/*--------------------------------*- C++ -*----------------------------------*\
  =========                 |
  \\      /  F ield         | OpenFOAM: The Open Source CFD Toolbox
   \\    /   O peration     | Website:  https://openfoam.org
    \\  /    A nd           | Version:  8
     \\/     M anipulation  |
\*---------------------------------------------------------------------------*/
FoamFile
{
    version     2.0;
    format      ascii;
    class       volVectorField;
    location    "0.8";
    object      U;
}
// * * * * * * * * * * * * * * * * * * * * * * * * * * * * * * * * * * * * * //

dimensions      [0 1 -1 0 0 0 0];

internalField   nonuniform List<vector> 
325
(
(3 1.1895e-14 0)
(3 -7.20446e-14 0)
(3 1.00758e-13 0)
(3 2.29231e-14 0)
(3 -8.76285e-14 0)
(3 -9.63438e-15 0)
(3 -6.12295e-18 0)
(3 -4.97638e-14 0)
(3 8.46535e-14 0)
(3 1.41178e-13 0)
(3 4.21557e-12 0)
(3 6.39081e-10 0)
(3 -2.0274e-07 0)
(3 5.99518e-14 0)
(3 2.11543e-14 0)
(3 -5.82442e-14 0)
(3 -8.96938e-14 0)
(3 -5.05608e-14 0)
(3 -4.52151e-13 0)
(3 8.41093e-10 0)
(3 -2.19648e-07 0)
(3 1.29489e-15 0)
(3 -8.02847e-14 0)
(3 -1.26507e-13 0)
(3 -2.0008e-13 0)
(3 -3.54559e-14 0)
(3 -4.90909e-12 0)
(3 1.0109e-09 0)
(3 -2.38699e-07 0)
(3 -6.12485e-14 0)
(3 -2.10314e-13 0)
(3 -1.14044e-13 0)
(3 -3.03679e-13 0)
(3 3.79878e-14 0)
(3 -2.27211e-12 0)
(3 1.22023e-09 0)
(3 -2.50505e-07 0)
(3 -6.06158e-14 0)
(3 -2.037e-13 0)
(3 -2.60098e-14 0)
(3 -1.01528e-13 0)
(3 3.38066e-14 0)
(3 4.38545e-12 0)
(3 1.39307e-09 0)
(3 -2.54699e-07 0)
(3 9.15809e-15 0)
(3 -4.94765e-14 0)
(3 -6.64167e-14 0)
(3 4.34075e-14 0)
(3 -1.66711e-13 0)
(3 7.57032e-12 0)
(3 1.36652e-09 0)
(3 -2.46093e-07 0)
(3 4.81186e-14 0)
(3 -9.20442e-15 0)
(3 -9.09967e-14 0)
(3 -1.49935e-13 0)
(3 -5.54138e-14 0)
(3 1.00957e-11 0)
(3 1.38228e-09 0)
(3 -2.27516e-07 0)
(3 -2.76471e-14 0)
(3 -2.0571e-14 0)
(3 1.11021e-14 0)
(3 8.20485e-14 0)
(3 8.09165e-14 0)
(3 1.30691e-11 0)
(3 1.33016e-09 0)
(3 -1.94548e-07 0)
(3 2.66181e-14 0)
(3 1.04179e-13 0)
(3 1.04485e-13 0)
(3 2.0215e-13 0)
(3 -5.17068e-15 0)
(3 1.26247e-11 0)
(3 1.19173e-09 0)
(3 -1.60843e-07 0)
(3 5.79331e-14 0)
(3 1.41713e-13 0)
(3 6.8878e-14 0)
(3 7.70182e-14 0)
(3 -6.8598e-14 0)
(3 1.06247e-11 0)
(3 1.00631e-09 0)
(3 -1.31742e-07 0)
(3 1.27423e-15 0)
(3 8.26891e-14 0)
(3 3.98212e-14 0)
(3 -7.5446e-14 0)
(3 -4.97994e-14 0)
(3 5.76495e-12 0)
(3 9.22457e-10 0)
(3 -9.86713e-08 0)
(3 1.91683e-14 0)
(3 1.33368e-14 0)
(3 2.37502e-14 0)
(3 -1.23652e-13 0)
(3 7.10496e-14 0)
(3 -6.25201e-13 0)
(3 7.55296e-10 0)
(3 -7.20945e-08 0)
(3 8.48065e-14 0)
(3 -7.56033e-15 0)
(3 -4.61809e-14 0)
(3 -5.23177e-14 0)
(3 9.41578e-14 0)
(3 -3.63788e-12 0)
(3 6.03845e-10 0)
(3 -5.70371e-08 0)
(3 -4.78189e-14 0)
(3 -1.47484e-13 0)
(3 -7.73083e-14 0)
(3 -3.35345e-14 0)
(3 1.04997e-13 0)
(3 -4.90436e-12 0)
(3 4.34579e-10 0)
(3 -3.8449e-08 0)
(3 -9.648e-14 0)
(3 2.0775e-15 0)
(3 -3.07818e-14 0)
(3 6.02086e-14 0)
(3 1.85641e-13 0)
(3 -5.9188e-12 0)
(3 7.5567e-10 0)
(3 -1.5017e-08 0)
(3 1.03192e-13 0)
(3 4.0326e-14 0)
(3 -1.0343e-14 0)
(3 4.91734e-14 0)
(3 2.03659e-13 0)
(3 -6.51567e-12 0)
(3 9.98344e-10 0)
(3 6.68889e-09 0)
(3 1.55258e-14 0)
(3 -9.73231e-14 0)
(3 6.18356e-14 0)
(3 3.96072e-14 0)
(3 2.52351e-13 0)
(3 -8.98822e-12 0)
(3 9.38889e-10 0)
(3 1.30112e-08 0)
(3 -1.59263e-14 0)
(3 -7.30413e-14 0)
(3 2.00207e-14 0)
(3 -8.35332e-15 0)
(3 8.17386e-14 0)
(3 -7.27829e-12 0)
(3 8.2434e-10 0)
(3 1.45134e-08 0)
(3 -2.94396e-14 0)
(3 9.70115e-14 0)
(3 -4.59973e-14 0)
(3 -1.02064e-13 0)
(3 9.44505e-14 0)
(3 -3.42643e-12 0)
(3 5.47295e-10 0)
(3 1.81928e-08 0)
(3 -5.83802e-14 0)
(3 5.89038e-14 0)
(3 1.16789e-13 0)
(3 -9.1945e-14 0)
(3 -9.07478e-14 0)
(3 -1.21664e-12 0)
(3 1.78152e-10 0)
(3 5.41324e-09 0)
(3 -3.16648e-15 0)
(3 -7.71791e-15 0)
(3 -1.14201e-13 0)
(3 -2.25501e-13 0)
(3 -2.93394e-13 0)
(3 3.97929e-12 0)
(3 -2.34678e-10 0)
(3 2.7945e-09 0)
(3 2.69701e-15 0)
(3 -8.31719e-14 0)
(3 -7.47588e-14 0)
(3 -4.06216e-13 0)
(3 -5.54205e-13 0)
(3 -1.20979e-11 0)
(3 -4.57865e-10 0)
(3 8.55647e-09 0)
(3 4.36989e-14 0)
(3 -1.14413e-13 0)
(3 -2.2698e-13 0)
(3 -2.32766e-13 0)
(3 -4.6417e-13 0)
(3 -2.69965e-11 0)
(3 -7.00632e-10 0)
(3 1.45075e-08 0)
(3 7.41863e-14 0)
(3 4.33705e-14 0)
(3 -2.30571e-13 0)
(3 -2.11208e-13 0)
(3 -1.88995e-13 0)
(3 -3.17846e-11 0)
(3 -8.40837e-10 0)
(3 2.02827e-08 0)
(3 -2.79465e-14 0)
(3 -4.24667e-14 0)
(3 -1.84434e-13 0)
(3 -1.76804e-13 0)
(3 -6.01074e-14 0)
(3 -3.07873e-11 0)
(3 -8.24582e-10 0)
(3 2.53687e-08 0)
(3 -1.36747e-13 0)
(3 -1.16351e-13 0)
(3 -1.3113e-13 0)
(3 -7.46103e-14 0)
(3 1.29086e-14 0)
(3 -3.26268e-11 0)
(3 -7.15282e-10 0)
(3 2.9346e-08 0)
(3 -4.67594e-14 0)
(3 1.24564e-14 0)
(3 1.78335e-13 0)
(3 1.04695e-13 0)
(3 1.89063e-13 0)
(3 -4.03773e-11 0)
(3 -3.54252e-10 0)
(3 3.15198e-08 0)
(3 1.13053e-14 0)
(3 9.2728e-14 0)
(3 2.4143e-13 0)
(3 1.70264e-13 0)
(3 2.18124e-13 0)
(3 -4.79977e-11 0)
(3 8.97072e-10 0)
(3 3.24463e-08 0)
(3 -1.40715e-14 0)
(3 -2.4275e-14 0)
(3 1.45697e-14 0)
(3 6.54068e-14 0)
(3 2.89096e-13 0)
(3 -5.883e-11 0)
(3 6.90429e-10 0)
(3 2.9489e-08 0)
(3 2.32101e-14 0)
(3 -1.05673e-13 0)
(3 -1.08201e-13 0)
(3 5.53642e-14 0)
(3 3.4046e-13 0)
(3 -6.39251e-11 0)
(3 2.00175e-09 0)
(3 2.21406e-08 0)
(3 6.71788e-14 0)
(3 -8.00862e-15 0)
(3 -7.15095e-14 0)
(3 -2.21057e-15 0)
(3 2.29695e-13 0)
(3 -6.86675e-11 0)
(3 1.08033e-09 0)
(3 2.00886e-08 0)
(3 5.69276e-14 0)
(3 9.94312e-14 0)
(3 5.57382e-14 0)
(3 4.81842e-14 0)
(3 2.42527e-13 0)
(3 -6.94774e-11 0)
(3 -2.67957e-10 0)
(3 1.75437e-08 0)
(3 1.09615e-14 0)
(3 4.96121e-14 0)
(3 1.14654e-13 0)
(3 1.02063e-13 0)
(3 2.55482e-13 0)
(3 -6.23472e-11 0)
(3 -1.06884e-09 0)
(3 6.51963e-09 0)
(3 -5.42307e-14 0)
(3 -2.4755e-14 0)
(3 1.76898e-13 0)
(3 -1.11616e-14 0)
(3 1.78935e-13 0)
(3 -4.59153e-11 0)
(3 -1.5334e-09 0)
(3 -2.3364e-08 0)
(3 -1.78097e-14 0)
(3 6.15808e-14 0)
(3 9.51896e-14 0)
(3 1.24453e-13 0)
(3 2.99663e-13 0)
(3 -2.87326e-11 0)
(3 -2.32934e-09 0)
(3 -6.27251e-08 0)
(3 1.62773e-14 0)
(3 5.40547e-14 0)
(3 -3.8787e-14 0)
(3 1.41564e-14 0)
(3 2.1166e-13 0)
(3 -1.38977e-11 0)
(3 -2.68532e-09 0)
(3 -1.01191e-07 0)
(3 -7.27618e-14 0)
(3 -6.94655e-14 0)
(3 1.23264e-14 0)
(3 -8.59384e-14 0)
(3 -4.38519e-14 0)
(3 -1.97567e-12 0)
(3 -2.3969e-09 0)
(3 -1.1715e-07 0)
(3 -2.82009e-14 0)
(3 6.89414e-15 0)
(3 8.14975e-14 0)
(3 3.78346e-14 0)
(3 3.12147e-14 0)
(3 9.33211e-12 0)
(3 -1.77831e-09 0)
(3 -1.36011e-07 0)
(3 6.43521e-14 0)
(3 6.62423e-14 0)
(3 1.63756e-14 0)
(3 1.71112e-14 0)
(3 5.2374e-14 0)
(3 1.40375e-11 0)
(3 -8.82217e-10 0)
(3 -1.53104e-07 0)
(3 1.82319e-15 0)
(3 -3.79614e-15 0)
(3 -3.62016e-14 0)
(3 -3.4185e-14 0)
(3 7.76734e-14 0)
(3 9.18519e-12 0)
(3 1.07014e-10 0)
(3 -1.7304e-07 0)
)
;

boundaryField
{
    inlet
    {
        type            fixedValue;
        value           uniform (3 0 0);
    }
    outlet
    {
        type            inletOutlet;
        inletValue      nonuniform List<vector> 0();
        value           nonuniform List<vector> 0();
    }
    triangle
    {
        type            slip;
    }
    top
    {
        type            symmetryPlane;
    }
    bottom
    {
        type            symmetryPlane;
    }
    defaultFaces
    {
        type            empty;
    }
    procBoundary0to1
    {
        type            processor;
        value           nonuniform List<vector> 
40
(
(3.00001 1.55655e-05 0)
(3.00001 1.66988e-05 0)
(3.00001 1.78486e-05 0)
(3.00002 1.86606e-05 0)
(3.00002 1.94438e-05 0)
(3.00002 1.99452e-05 0)
(3.00002 2.04476e-05 0)
(3.00002 2.06314e-05 0)
(3.00002 2.10131e-05 0)
(3.00003 2.09396e-05 0)
(3.00003 2.10666e-05 0)
(3.00003 2.06821e-05 0)
(3.00004 2.01035e-05 0)
(3.00004 1.93006e-05 0)
(3.00004 1.84655e-05 0)
(3.00005 1.62231e-05 0)
(3.00006 1.5088e-05 0)
(3.00007 9.18254e-06 0)
(3.00008 9.90728e-06 0)
(3.00009 4.48262e-06 0)
(3 -7.63503e-08 0)
(3 -8.55463e-08 0)
(3 -1.54508e-07 0)
(3 -1.98215e-07 0)
(3 -2.61644e-07 0)
(3 -2.99245e-07 0)
(3 -2.57383e-07 0)
(3 -2.42563e-07 0)
(3 -6.99291e-08 0)
(3 4.69684e-07 0)
(3 1.14931e-06 0)
(3 1.91998e-06 0)
(3 2.65282e-06 0)
(3 3.52695e-06 0)
(3 4.60277e-06 0)
(3 5.93227e-06 0)
(3 7.66636e-06 0)
(3 9.58682e-06 0)
(3.00001 1.17399e-05 0)
(3.00001 1.37937e-05 0)
)
;
    }
    procBoundary0to4
    {
        type            processor;
        value           nonuniform List<vector> 9((3 -3.58907e-14 0) (3 -3.79746e-14 0) (3 -3.31529e-14 0) (3 2.09052e-14 0) (3 9.12791e-13 0) (3 -2.69922e-14 0) (3 9.12791e-13 0) (3 -2.20484e-10 0) (3 -1.14842e-08 0));
    }
}


// ************************************************************************* //
