/*--------------------------------*- C++ -*----------------------------------*\
  =========                 |
  \\      /  F ield         | OpenFOAM: The Open Source CFD Toolbox
   \\    /   O peration     | Website:  https://openfoam.org
    \\  /    A nd           | Version:  8
     \\/     M anipulation  |
\*---------------------------------------------------------------------------*/
FoamFile
{
    version     2.0;
    format      ascii;
    class       volVectorField;
    location    "0.9";
    object      U;
}
// * * * * * * * * * * * * * * * * * * * * * * * * * * * * * * * * * * * * * //

dimensions      [0 1 -1 0 0 0 0];

internalField   nonuniform List<vector> 
325
(
(3 2.2587e-14 0)
(3 9.49914e-12 0)
(3 3.9532e-11 0)
(3 2.57369e-14 0)
(3 -1.34261e-13 0)
(3 -2.16871e-13 0)
(3 -1.90308e-13 0)
(3 -1.23438e-13 0)
(3 -1.03772e-13 0)
(3 2.39804e-11 0)
(3 2.71468e-10 0)
(3 -3.84688e-14 0)
(3 -1.15418e-13 0)
(3 -2.01166e-13 0)
(3 -2.68525e-13 0)
(3 1.24384e-14 0)
(3 -4.93572e-14 0)
(3 3.54505e-11 0)
(3 5.99941e-10 0)
(3 -1.21756e-14 0)
(3 -5.77462e-14 0)
(3 -2.14854e-13 0)
(3 -1.85457e-13 0)
(3 8.22029e-14 0)
(3 -6.44948e-14 0)
(3 4.90081e-11 0)
(3 1.02701e-09 0)
(3 3.49206e-15 0)
(3 -1.33085e-14 0)
(3 -5.7684e-14 0)
(3 -4.40411e-14 0)
(3 -1.55083e-13 0)
(3 -3.01143e-13 0)
(3 5.94837e-11 0)
(3 1.57023e-09 0)
(3 -5.00907e-14 0)
(3 -6.03654e-14 0)
(3 2.34987e-14 0)
(3 1.43466e-13 0)
(3 -1.62984e-14 0)
(3 -4.59513e-13 0)
(3 6.76255e-11 0)
(3 2.27557e-09 0)
(3 8.61775e-14 0)
(3 -7.24183e-15 0)
(3 1.27038e-13 0)
(3 9.72013e-14 0)
(3 -4.06726e-14 0)
(3 -3.81979e-13 0)
(3 7.19965e-11 0)
(3 2.93694e-09 0)
(3 5.9258e-14 0)
(3 1.34027e-13 0)
(3 3.08833e-13 0)
(3 3.57571e-14 0)
(3 9.65974e-15 0)
(3 -4.01534e-13 0)
(3 7.15043e-11 0)
(3 3.49461e-09 0)
(3 2.64842e-14 0)
(3 1.75748e-14 0)
(3 1.31286e-13 0)
(3 7.78405e-14 0)
(3 9.17477e-14 0)
(3 -7.41556e-13 0)
(3 7.02436e-11 0)
(3 3.98507e-09 0)
(3 1.23559e-14 0)
(3 -1.15168e-13 0)
(3 -1.87532e-14 0)
(3 9.80702e-14 0)
(3 -6.77327e-15 0)
(3 -9.6201e-13 0)
(3 6.74695e-11 0)
(3 4.54378e-09 0)
(3 -6.69893e-15 0)
(3 -6.91483e-14 0)
(3 -1.40427e-13 0)
(3 1.39963e-14 0)
(3 -1.25235e-13 0)
(3 -1.15204e-12 0)
(3 6.70001e-11 0)
(3 5.05827e-09 0)
(3 3.38491e-14 0)
(3 1.02259e-14 0)
(3 -1.49179e-13 0)
(3 -3.66156e-14 0)
(3 -1.79948e-13 0)
(3 -1.09932e-12 0)
(3 6.45014e-11 0)
(3 5.46994e-09 0)
(3 -5.96536e-14 0)
(3 6.41167e-14 0)
(3 -1.91469e-14 0)
(3 -9.10336e-14 0)
(3 2.64575e-14 0)
(3 -9.04682e-13 0)
(3 6.42065e-11 0)
(3 5.96069e-09 0)
(3 -5.80695e-14 0)
(3 -4.00523e-14 0)
(3 3.11952e-14 0)
(3 7.26816e-15 0)
(3 1.34642e-13 0)
(3 -9.37499e-13 0)
(3 6.17477e-11 0)
(3 6.4753e-09 0)
(3 -6.62557e-15 0)
(3 -2.03323e-13 0)
(3 -1.31247e-13 0)
(3 -1.21859e-14 0)
(3 4.16187e-14 0)
(3 -1.19712e-12 0)
(3 6.22789e-11 0)
(3 7.0796e-09 0)
(3 -4.08952e-14 0)
(3 -1.74605e-13 0)
(3 -1.1102e-13 0)
(3 2.69417e-14 0)
(3 -7.8994e-14 0)
(3 -1.30475e-12 0)
(3 6.15108e-11 0)
(3 7.66671e-09 0)
(3 -4.86363e-14 0)
(3 -3.97043e-14 0)
(3 1.05376e-13 0)
(3 1.50504e-13 0)
(3 4.51274e-14 0)
(3 -1.09311e-12 0)
(3 6.26964e-11 0)
(3 8.33881e-09 0)
(3 3.82829e-14 0)
(3 2.22664e-14 0)
(3 7.40128e-14 0)
(3 1.29097e-13 0)
(3 2.28557e-13 0)
(3 -9.98185e-13 0)
(3 6.35264e-11 0)
(3 8.9073e-09 0)
(3 4.51527e-15 0)
(3 2.27569e-14 0)
(3 8.33001e-14 0)
(3 2.13761e-13 0)
(3 2.23839e-13 0)
(3 -1.06045e-12 0)
(3 6.6981e-11 0)
(3 9.50937e-09 0)
(3 -4.71923e-15 0)
(3 5.57619e-14 0)
(3 2.69194e-13 0)
(3 3.7667e-13 0)
(3 1.5907e-13 0)
(3 -9.84317e-13 0)
(3 7.22889e-11 0)
(3 1.00841e-08 0)
(3 1.14089e-13 0)
(3 1.67797e-13 0)
(3 1.45046e-13 0)
(3 1.71817e-13 0)
(3 3.8756e-14 0)
(3 -9.50116e-13 0)
(3 7.24196e-11 0)
(3 1.08021e-08 0)
(3 -2.01598e-14 0)
(3 7.78065e-14 0)
(3 -4.23173e-14 0)
(3 -7.26279e-14 0)
(3 2.41558e-14 0)
(3 -9.32264e-13 0)
(3 7.88768e-11 0)
(3 1.19681e-08 0)
(3 -6.42693e-14 0)
(3 -3.63414e-14 0)
(3 -1.21217e-13 0)
(3 -2.0366e-13 0)
(3 3.3632e-14 0)
(3 -9.17385e-13 0)
(3 7.3791e-11 0)
(3 1.21668e-08 0)
(3 1.43841e-14 0)
(3 -4.69006e-14 0)
(3 -1.7194e-13 0)
(3 -2.63096e-13 0)
(3 -3.37517e-15 0)
(3 -5.3662e-13 0)
(3 5.84954e-11 0)
(3 1.17851e-08 0)
(3 1.05649e-13 0)
(3 8.43062e-14 0)
(3 -1.4048e-14 0)
(3 -7.75831e-14 0)
(3 -9.4182e-14 0)
(3 -3.17495e-13 0)
(3 2.00209e-11 0)
(3 1.08187e-08 0)
(3 5.70834e-14 0)
(3 9.47397e-14 0)
(3 3.97331e-14 0)
(3 -4.2265e-14 0)
(3 -1.5332e-13 0)
(3 -2.97656e-13 0)
(3 -4.02802e-11 0)
(3 9.47516e-09 0)
(3 -1.58305e-14 0)
(3 1.51516e-14 0)
(3 2.67351e-14 0)
(3 -6.24714e-14 0)
(3 -1.21513e-14 0)
(3 1.07701e-13 0)
(3 -1.0387e-10 0)
(3 7.84145e-09 0)
(3 -4.237e-14 0)
(3 -1.83146e-14 0)
(3 2.60233e-14 0)
(3 1.5002e-13 0)
(3 2.02954e-13 0)
(3 5.98295e-13 0)
(3 -1.52913e-10 0)
(3 6.34618e-09 0)
(3 -7.68105e-14 0)
(3 -8.70753e-14 0)
(3 1.34523e-13 0)
(3 3.50841e-13 0)
(3 1.78565e-13 0)
(3 8.84382e-13 0)
(3 -1.69242e-10 0)
(3 5.14181e-09 0)
(3 1.21125e-14 0)
(3 -4.79208e-14 0)
(3 1.46077e-13 0)
(3 1.68508e-13 0)
(3 1.36464e-13 0)
(3 9.6104e-13 0)
(3 -1.5152e-10 0)
(3 4.02287e-09 0)
(3 -5.32388e-15 0)
(3 8.59947e-14 0)
(3 -2.35959e-15 0)
(3 7.84259e-14 0)
(3 1.74892e-14 0)
(3 1.23784e-12 0)
(3 -1.08365e-10 0)
(3 3.32523e-09 0)
(3 -2.95791e-07 0)
(3 -3.13446e-14 0)
(3 -1.48066e-14 0)
(3 -1.11127e-13 0)
(3 -1.0404e-13 0)
(3 -1.87616e-13 0)
(3 1.01616e-12 0)
(3 -7.13529e-11 0)
(3 2.25236e-09 0)
(3 -2.23482e-07 0)
(3 -1.33991e-14 0)
(3 -9.44629e-14 0)
(3 -1.85095e-13 0)
(3 -2.54425e-13 0)
(3 -2.233e-13 0)
(3 7.24138e-14 0)
(3 -3.58032e-11 0)
(3 1.27378e-09 0)
(3 -1.65983e-07 0)
(3 -2.32643e-14 0)
(3 -2.48848e-14 0)
(3 -1.58071e-13 0)
(3 -2.75096e-13 0)
(3 -8.17971e-14 0)
(3 -3.72378e-13 0)
(3 1.34662e-11 0)
(3 8.0388e-10 0)
(3 -1.20668e-07 0)
(3 4.25668e-14 0)
(3 7.32844e-14 0)
(3 -1.54355e-13 0)
(3 -2.57809e-13 0)
(3 -2.51423e-15 0)
(3 -6.94495e-13 0)
(3 3.16774e-11 0)
(3 8.56499e-10 0)
(3 -8.38883e-08 0)
(3 6.31881e-14 0)
(3 6.14761e-15 0)
(3 -1.45516e-13 0)
(3 -1.38816e-13 0)
(3 -3.52328e-14 0)
(3 -5.4087e-13 0)
(3 2.78409e-11 0)
(3 9.46162e-10 0)
(3 -5.15945e-08 0)
(3 2.93842e-14 0)
(3 3.47155e-14 0)
(3 4.55319e-14 0)
(3 2.38711e-15 0)
(3 -2.56332e-13 0)
(3 -4.76784e-13 0)
(3 2.02506e-11 0)
(3 9.34164e-10 0)
(3 -2.2633e-08 0)
(3 2.51027e-14 0)
(3 7.59918e-14 0)
(3 2.46224e-13 0)
(3 1.04522e-13 0)
(3 -3.16502e-13 0)
(3 -4.39559e-13 0)
(3 9.14932e-12 0)
(3 4.25123e-10 0)
(3 -2.9296e-09 0)
(3 4.29109e-14 0)
(3 1.3269e-14 0)
(3 1.15004e-13 0)
(3 1.04145e-13 0)
(3 -2.45695e-13 0)
(3 -2.47188e-13 0)
(3 1.32768e-12 0)
(3 2.58121e-11 0)
(3 -1.14379e-10 0)
(3 -3.66104e-16 0)
(3 -2.55689e-15 0)
(3 3.39408e-15 0)
(3 1.90837e-14 0)
(3 -8.63971e-14 0)
(3 -7.90734e-14 0)
(3 7.31813e-13 0)
(3 -5.9885e-11 0)
(3 7.74395e-10 0)
)
;

boundaryField
{
    inlet
    {
        type            fixedValue;
        value           uniform (3 0 0);
    }
    outlet
    {
        type            inletOutlet;
        inletValue      nonuniform List<vector> 0();
        value           nonuniform List<vector> 0();
    }
    triangle
    {
        type            slip;
    }
    top
    {
        type            symmetryPlane;
    }
    bottom
    {
        type            symmetryPlane;
    }
    defaultFaces
    {
        type            empty;
    }
    procBoundary4to0
    {
        type            processor;
        value           nonuniform List<vector> 9((3 3.42461e-14 0) (3 -8.31391e-15 0) (3 -6.03805e-14 0) (3 -3.73034e-14 0) (3 -8.48339e-14 0) (3 -8.48339e-14 0) (3 9.00058e-14 0) (3 -4.82432e-12 0) (3 -1.93329e-10 0));
    }
    procBoundary4to1
    {
        type            processor;
        value           nonuniform List<vector> 2((3.00001 -3.5199e-07 0) (3.00001 -8.11731e-07 0));
    }
    procBoundary4to5
    {
        type            processor;
        value           nonuniform List<vector> 
39
(
(3.00001 -6.12295e-07 0)
(3 -9.62074e-07 0)
(3 -1.04877e-06 0)
(3 -1.18955e-06 0)
(3 -1.26627e-06 0)
(3 -1.31766e-06 0)
(3 -1.36336e-06 0)
(3 -1.3699e-06 0)
(3 -1.39633e-06 0)
(3 -1.40854e-06 0)
(3 -1.42069e-06 0)
(3 -1.42056e-06 0)
(3 -1.41725e-06 0)
(3 -1.40477e-06 0)
(3 -1.38875e-06 0)
(3 -1.36494e-06 0)
(3 -1.33667e-06 0)
(3 -1.30052e-06 0)
(3 -1.24852e-06 0)
(3 -1.17342e-06 0)
(3 -1.08945e-06 0)
(3 -9.98379e-07 0)
(3 -9.00615e-07 0)
(3 -8.01535e-07 0)
(3 -6.94939e-07 0)
(3 -5.89161e-07 0)
(3 -4.82607e-07 0)
(3 -3.84248e-07 0)
(3 -3.84248e-07 0)
(2.99999 5.04099e-06 0)
(3 2.38016e-06 0)
(3 8.9572e-07 0)
(3 1.68041e-07 0)
(3 -3.20012e-08 0)
(3 -5.66356e-08 0)
(3 5.03739e-08 0)
(2.99999 1.55735e-07 0)
(2.99999 3.77395e-07 0)
(2.99999 6.68277e-07 0)
)
;
    }
}


// ************************************************************************* //
