/*--------------------------------*- C++ -*----------------------------------*\
  =========                 |
  \\      /  F ield         | OpenFOAM: The Open Source CFD Toolbox
   \\    /   O peration     | Website:  https://openfoam.org
    \\  /    A nd           | Version:  8
     \\/     M anipulation  |
\*---------------------------------------------------------------------------*/
FoamFile
{
    version     2.0;
    format      ascii;
    class       volScalarField;
    location    "0.3";
    object      p;
}
// * * * * * * * * * * * * * * * * * * * * * * * * * * * * * * * * * * * * * //

dimensions      [1 -1 -2 0 0 0 0];

internalField   nonuniform List<scalar> 
2600
(
0.36881
0.346429
0.443727
0.744466
0.953939
0.990714
0.960944
0.93696
0.94525
0.983788
0.374896
0.336299
0.440458
0.745391
0.954868
0.994749
0.963343
0.937922
0.945716
0.983639
0.371459
0.328615
0.441059
0.747374
0.954739
1.00106
0.963717
0.938162
0.945643
0.98349
0.375052
0.326373
0.444688
0.763978
0.96152
1.00785
0.967334
0.9385
0.945566
0.98333
0.387799
0.328978
0.445366
0.769717
0.96196
1.01231
0.969261
0.938622
0.945501
0.983201
0.406391
0.334508
0.450817
0.778557
0.964825
1.01547
0.971007
0.938629
0.945426
0.983077
0.41512
0.336957
0.464018
0.790523
0.969479
1.01953
0.972658
0.9386
0.94516
0.982901
0.416294
0.334983
0.474531
0.800272
0.97114
1.02123
0.973255
0.938644
0.945368
0.982886
0.410453
0.335681
0.469502
0.804525
0.979463
1.02234
0.972404
0.938226
0.945403
0.982842
0.408359
0.338806
0.478135
0.804263
0.978754
1.02362
0.973859
0.938829
0.945489
0.982803
0.408359
0.338806
0.478135
0.804263
0.978754
1.02362
0.973859
0.938829
0.945489
0.982803
0.410453
0.335681
0.469502
0.804525
0.979463
1.02234
0.972404
0.938226
0.945403
0.982842
0.416294
0.334983
0.474531
0.800272
0.97114
1.02123
0.973255
0.938644
0.945368
0.982886
0.41512
0.336957
0.464018
0.790523
0.969479
1.01953
0.972658
0.9386
0.94516
0.982901
0.406391
0.334508
0.450817
0.778557
0.964825
1.01547
0.971007
0.938629
0.945426
0.983077
0.387799
0.328978
0.445366
0.769717
0.96196
1.01231
0.969261
0.938622
0.945501
0.983201
0.375052
0.326373
0.444688
0.763978
0.96152
1.00785
0.967334
0.9385
0.945566
0.98333
0.371459
0.328615
0.441059
0.747374
0.954739
1.00106
0.963717
0.938162
0.945643
0.98349
0.374896
0.336299
0.440458
0.745391
0.954868
0.994749
0.963343
0.937922
0.945716
0.983639
0.36881
0.346429
0.443727
0.744466
0.953939
0.990714
0.960944
0.93696
0.94525
0.983788
0.466392
0.350703
0.424763
0.728932
0.947134
0.986303
0.957881
0.937005
0.945927
0.984046
0.584658
0.352
0.41039
0.70845
0.93665
0.980761
0.954632
0.936269
0.946062
0.98431
0.681928
0.365375
0.422721
0.69873
0.927671
0.975927
0.951624
0.935487
0.946177
0.984608
0.762396
0.399982
0.442677
0.69732
0.921773
0.970124
0.948423
0.9347
0.946277
0.984959
0.829458
0.450343
0.463946
0.697089
0.916725
0.96189
0.944371
0.933696
0.946505
0.985377
0.886157
0.507938
0.483467
0.698631
0.909826
0.95331
0.939364
0.932671
0.946913
0.985839
0.937488
0.562813
0.50351
0.705242
0.904563
0.948084
0.936519
0.93193
0.947331
0.986328
0.982562
0.615004
0.524826
0.714449
0.903318
0.946406
0.93524
0.931356
0.947679
0.986842
1.02234
0.667741
0.542579
0.714733
0.902403
0.948131
0.935034
0.93061
0.94788
0.987379
1.05756
0.71806
0.559617
0.713517
0.900266
0.95106
0.934304
0.929092
0.947775
0.987937
1.08859
0.767735
0.579326
0.7041
0.886819
0.948767
0.932585
0.92657
0.947286
0.988579
1.11615
0.813385
0.611391
0.67775
0.857737
0.937792
0.92872
0.922917
0.946788
0.989415
1.14105
0.854607
0.652802
0.667276
0.803385
0.911614
0.920046
0.918582
0.947258
0.990513
1.164
0.893096
0.695129
0.670095
0.747705
0.864176
0.904005
0.915862
0.949491
0.991816
1.18361
0.926649
0.737132
0.686381
0.735333
0.818386
0.883032
0.914882
0.953123
0.99317
1.20186
0.957859
0.775605
0.709962
0.736712
0.799991
0.874002
0.915764
0.957109
0.994403
1.21832
0.9861
0.811636
0.739212
0.745711
0.793955
0.869865
0.918198
0.96087
0.995449
1.23409
1.01234
0.844341
0.768133
0.762054
0.797044
0.86922
0.921251
0.964178
0.996337
1.24906
1.03754
0.873962
0.79281
0.780032
0.805145
0.870507
0.924081
0.967171
0.997127
1.26341
1.06109
0.901388
0.815687
0.798647
0.815339
0.871317
0.926495
0.969936
0.99785
2.23389
2.14345
2.08222
2.02179
1.96363
1.90467
1.83843
1.76114
1.63596
1.5073
2.11567
2.03456
1.99389
1.9476
1.90155
1.84828
1.78414
1.69848
1.56732
1.39869
2.0766
2.01673
1.98415
1.94095
1.89663
1.84371
1.77991
1.69381
1.56536
1.40115
2.0307
1.98078
1.95258
1.91284
1.87171
1.81945
1.7553
1.66886
1.54352
1.37769
1.99366
1.9517
1.9277
1.88925
1.84919
1.79755
1.7335
1.64685
1.52859
1.36066
1.95839
1.92132
1.89876
1.86208
1.82419
1.77331
1.71045
1.62474
1.51504
1.34984
1.92715
1.89412
1.87278
1.83828
1.8023
1.75186
1.69002
1.60657
1.50421
1.34485
1.89731
1.8675
1.84599
1.81278
1.77806
1.72895
1.66936
1.58928
1.49321
1.34336
1.8689
1.84258
1.82106
1.7898
1.75587
1.70825
1.65037
1.57417
1.48269
1.34461
1.84139
1.81904
1.79741
1.7677
1.73326
1.68874
1.63239
1.56071
1.47332
1.34757
1.81417
1.79562
1.77285
1.74609
1.71221
1.6706
1.61558
1.54868
1.46546
1.35205
1.78324
1.77153
1.74782
1.72503
1.69164
1.65206
1.59966
1.53811
1.45964
1.35769
1.74985
1.74896
1.72489
1.70369
1.67341
1.63511
1.58701
1.52981
1.45592
1.36338
1.71286
1.7238
1.70451
1.68539
1.65494
1.61935
1.57695
1.52322
1.45369
1.36877
1.6669
1.69499
1.68321
1.66485
1.63834
1.60756
1.56828
1.51751
1.45307
1.3738
1.6124
1.66562
1.66169
1.64756
1.62353
1.59813
1.5614
1.51401
1.4539
1.37884
1.54722
1.63688
1.63929
1.63133
1.61316
1.59024
1.55884
1.51212
1.45479
1.38409
1.46288
1.60617
1.62241
1.61927
1.60323
1.58326
1.55627
1.5089
1.45316
1.38812
1.34882
1.55595
1.61393
1.61702
1.60234
1.58078
1.55061
1.50385
1.45036
1.39289
1.21824
1.43567
1.58575
1.62502
1.6129
1.58164
1.5463
1.50211
1.45184
1.39935
1.037
1.05681
1.05471
1.0485
1.04137
1.03401
1.02579
1.01698
1.02708
1.58508
1.037
1.05681
1.05471
1.0485
1.04137
1.03401
1.0258
1.01685
1.02633
1.57607
1.037
1.05681
1.05471
1.0485
1.04137
1.03401
1.02582
1.01657
1.02484
1.56324
1.037
1.05681
1.05471
1.0485
1.04137
1.03401
1.02584
1.01623
1.02293
1.54585
1.037
1.05681
1.05471
1.0485
1.04138
1.03401
1.02587
1.01593
1.02018
1.5261
1.037
1.05681
1.05471
1.0485
1.04138
1.034
1.02591
1.01559
1.01735
1.50394
1.037
1.05681
1.05471
1.0485
1.04138
1.034
1.02596
1.01549
1.01436
1.48029
1.037
1.05681
1.05471
1.0485
1.04138
1.03399
1.026
1.01545
1.01147
1.45521
1.037
1.05681
1.05471
1.0485
1.04138
1.03398
1.02602
1.01555
1.00889
1.42887
1.037
1.05681
1.05471
1.0485
1.04138
1.03398
1.02603
1.01577
1.00701
1.40098
1.037
1.05681
1.05471
1.0485
1.04138
1.03398
1.02601
1.01602
1.006
1.37204
1.037
1.05681
1.05471
1.0485
1.04138
1.03398
1.02597
1.01629
1.00546
1.34262
1.037
1.05681
1.05471
1.0485
1.04138
1.03399
1.02593
1.0165
1.00522
1.31278
1.037
1.05681
1.05471
1.0485
1.04138
1.034
1.02589
1.01661
1.00519
1.28265
1.037
1.05681
1.05471
1.0485
1.04138
1.034
1.02587
1.01664
1.00519
1.25209
1.037
1.05681
1.05471
1.0485
1.04138
1.034
1.02587
1.01664
1.00519
1.22075
1.037
1.05681
1.05471
1.0485
1.04138
1.034
1.02587
1.01664
1.0052
1.18815
1.037
1.05681
1.05471
1.0485
1.04138
1.034
1.02587
1.01663
1.00522
1.1538
1.037
1.05681
1.05471
1.0485
1.04138
1.034
1.02587
1.01662
1.00524
1.11834
1.037
1.05681
1.05471
1.0485
1.04138
1.034
1.02588
1.01661
1.00527
1.085
1.037
1.05681
1.05471
1.0485
1.04138
1.034
1.02588
1.01661
1.00527
1.085
1.037
1.05681
1.05471
1.0485
1.04138
1.034
1.02587
1.01662
1.00524
1.11834
1.037
1.05681
1.05471
1.0485
1.04138
1.034
1.02587
1.01663
1.00522
1.1538
1.037
1.05681
1.05471
1.0485
1.04138
1.034
1.02587
1.01664
1.0052
1.18815
1.037
1.05681
1.05471
1.0485
1.04138
1.034
1.02587
1.01664
1.00519
1.22075
1.037
1.05681
1.05471
1.0485
1.04138
1.034
1.02587
1.01664
1.00519
1.25209
1.037
1.05681
1.05471
1.0485
1.04138
1.034
1.02589
1.01661
1.00519
1.28265
1.037
1.05681
1.05471
1.0485
1.04138
1.03399
1.02593
1.0165
1.00522
1.31278
1.037
1.05681
1.05471
1.0485
1.04138
1.03398
1.02597
1.01629
1.00546
1.34262
1.037
1.05681
1.05471
1.0485
1.04138
1.03398
1.02601
1.01602
1.006
1.37204
1.037
1.05681
1.05471
1.0485
1.04138
1.03398
1.02603
1.01577
1.00701
1.40098
1.037
1.05681
1.05471
1.0485
1.04138
1.03398
1.02602
1.01555
1.00889
1.42887
1.037
1.05681
1.05471
1.0485
1.04138
1.03399
1.026
1.01545
1.01147
1.45521
1.037
1.05681
1.05471
1.0485
1.04138
1.034
1.02596
1.01549
1.01436
1.48029
1.037
1.05681
1.05471
1.0485
1.04138
1.034
1.02591
1.01559
1.01735
1.50394
1.037
1.05681
1.05471
1.0485
1.04138
1.03401
1.02587
1.01593
1.02018
1.5261
1.037
1.05681
1.05471
1.0485
1.04137
1.03401
1.02584
1.01623
1.02293
1.54585
1.037
1.05681
1.05471
1.0485
1.04137
1.03401
1.02582
1.01657
1.02484
1.56324
1.037
1.05681
1.05471
1.0485
1.04137
1.03401
1.0258
1.01685
1.02633
1.57607
1.037
1.05681
1.05471
1.0485
1.04137
1.03401
1.02579
1.01698
1.02708
1.58508
1.21824
1.43567
1.58575
1.62502
1.6129
1.58164
1.5463
1.50211
1.45184
1.39935
1.34882
1.55595
1.61393
1.61702
1.60234
1.58078
1.55061
1.50385
1.45036
1.39289
1.46288
1.60617
1.62241
1.61927
1.60323
1.58326
1.55627
1.5089
1.45316
1.38812
1.54722
1.63688
1.63929
1.63133
1.61316
1.59024
1.55884
1.51212
1.45479
1.38409
1.6124
1.66562
1.66169
1.64756
1.62353
1.59813
1.5614
1.51401
1.4539
1.37884
1.6669
1.69499
1.68321
1.66485
1.63834
1.60756
1.56828
1.51751
1.45307
1.3738
1.71286
1.7238
1.70451
1.68539
1.65494
1.61935
1.57695
1.52322
1.45369
1.36877
1.74985
1.74896
1.72489
1.70369
1.67341
1.63511
1.58701
1.52981
1.45592
1.36338
1.78324
1.77153
1.74782
1.72503
1.69164
1.65206
1.59966
1.53811
1.45964
1.35769
1.81417
1.79562
1.77285
1.74609
1.71221
1.6706
1.61558
1.54868
1.46546
1.35205
1.84139
1.81904
1.79741
1.7677
1.73326
1.68874
1.63239
1.56071
1.47332
1.34757
1.8689
1.84258
1.82106
1.7898
1.75587
1.70825
1.65037
1.57417
1.48269
1.34461
1.89731
1.8675
1.84599
1.81278
1.77806
1.72895
1.66936
1.58928
1.49321
1.34336
1.92715
1.89412
1.87278
1.83828
1.8023
1.75186
1.69002
1.60657
1.50421
1.34485
1.95839
1.92132
1.89876
1.86208
1.82419
1.77331
1.71045
1.62474
1.51504
1.34984
1.99366
1.9517
1.9277
1.88925
1.84919
1.79755
1.7335
1.64685
1.52859
1.36066
2.0307
1.98078
1.95258
1.91284
1.87171
1.81945
1.7553
1.66886
1.54352
1.37769
2.0766
2.01673
1.98415
1.94095
1.89663
1.84371
1.77991
1.69381
1.56536
1.40115
2.11567
2.03456
1.99389
1.9476
1.90155
1.84828
1.78414
1.69848
1.56732
1.39869
2.23389
2.14345
2.08222
2.02179
1.96363
1.90467
1.83843
1.76114
1.63596
1.5073
1.26341
1.06109
0.901388
0.815687
0.798647
0.815339
0.871317
0.926495
0.969936
0.99785
1.24906
1.03754
0.873962
0.79281
0.780032
0.805145
0.870507
0.924081
0.967171
0.997127
1.23409
1.01234
0.844341
0.768133
0.762054
0.797044
0.86922
0.921251
0.964178
0.996337
1.21832
0.9861
0.811636
0.739212
0.745711
0.793955
0.869865
0.918198
0.96087
0.995449
1.20186
0.957859
0.775605
0.709962
0.736712
0.799991
0.874002
0.915764
0.957109
0.994403
1.18361
0.926649
0.737132
0.686381
0.735333
0.818386
0.883032
0.914882
0.953123
0.99317
1.164
0.893096
0.695129
0.670095
0.747705
0.864176
0.904005
0.915862
0.949491
0.991816
1.14105
0.854607
0.652802
0.667276
0.803385
0.911614
0.920046
0.918582
0.947258
0.990513
1.11615
0.813385
0.611391
0.67775
0.857737
0.937792
0.92872
0.922917
0.946788
0.989415
1.08859
0.767735
0.579326
0.7041
0.886819
0.948767
0.932585
0.92657
0.947286
0.988579
1.05756
0.71806
0.559617
0.713517
0.900266
0.95106
0.934304
0.929092
0.947775
0.987937
1.02234
0.667741
0.542579
0.714733
0.902403
0.948131
0.935034
0.93061
0.94788
0.987379
0.982562
0.615004
0.524826
0.714449
0.903318
0.946406
0.93524
0.931356
0.947679
0.986842
0.937488
0.562813
0.50351
0.705242
0.904563
0.948084
0.936519
0.93193
0.947331
0.986328
0.886157
0.507938
0.483467
0.698631
0.909826
0.95331
0.939364
0.932671
0.946913
0.985839
0.829458
0.450343
0.463946
0.697089
0.916725
0.96189
0.944371
0.933696
0.946505
0.985377
0.762396
0.399982
0.442677
0.69732
0.921773
0.970124
0.948423
0.9347
0.946277
0.984959
0.681928
0.365375
0.422721
0.69873
0.927671
0.975927
0.951624
0.935487
0.946177
0.984608
0.584658
0.352
0.41039
0.70845
0.93665
0.980761
0.954632
0.936269
0.946062
0.98431
0.466392
0.350703
0.424763
0.728932
0.947134
0.986303
0.957881
0.937005
0.945927
0.984046
0.999893
0.999981
0.999999
1
1
1
1
1
1
1.00206
0.999893
0.999981
0.999999
1
1
1
1
1
1
1.00206
0.999893
0.999981
0.999999
1
1
1
1
1
1
1.00206
0.999893
0.999981
0.999999
1
1
1
1
1
1
1.00206
0.999892
0.999979
1
1.00003
1.00004
1.00001
1
1
1
1.00206
0.999885
0.999978
1.00048
1.00259
1.00268
1.00109
1.00007
1
1
1.00206
0.999876
1.00042
1.01099
1.03137
1.03046
1.01569
1.00219
1.00005
1
1.00206
0.999892
1.00883
1.06326
1.1053
1.09601
1.05816
1.01491
1.00086
1.00001
1.00206
1.00099
1.05263
1.14784
1.16788
1.14432
1.09675
1.03835
1.00489
1.00011
1.00207
1.01472
1.14187
1.20594
1.19063
1.15499
1.10943
1.0563
1.01267
1.0006
1.00213
1.0727
1.22977
1.22484
1.18957
1.1493
1.10798
1.06192
1.02042
1.00186
1.0022
1.18267
1.27378
1.22232
1.16863
1.10814
1.08292
1.06028
1.02479
1.00375
1.00229
1.29354
1.28356
1.21344
1.12413
1.05187
1.0355
1.03901
1.02551
1.00558
1.00245
1.35761
1.2779
1.17909
1.08083
1.00965
0.996698
1.0096
1.01656
1.00644
1.00263
1.37651
1.26368
1.14273
1.0418
0.977813
0.969118
0.984409
1.00127
1.00411
1.00277
1.36946
1.22878
1.10269
1.00471
0.949393
0.94408
0.961809
0.9861
0.999142
1.0024
1.35136
1.1946
1.06255
0.966078
0.920025
0.919436
0.941787
0.972404
0.993923
1.00186
1.32784
1.16148
1.02232
0.926598
0.889662
0.892715
0.920582
0.958085
0.987789
1.00112
1.30449
1.1287
0.981379
0.885827
0.857109
0.864192
0.900078
0.944832
0.9812
1.00011
1.2822
1.09223
0.937271
0.845918
0.825169
0.836853
0.882584
0.93317
0.974508
0.998868
1.2822
1.09223
0.937271
0.845918
0.825169
0.836853
0.882584
0.93317
0.974508
0.998868
1.30449
1.1287
0.981379
0.885827
0.857109
0.864192
0.900078
0.944832
0.9812
1.00011
1.32784
1.16148
1.02232
0.926598
0.889662
0.892715
0.920582
0.958085
0.987789
1.00112
1.35136
1.1946
1.06255
0.966078
0.920025
0.919436
0.941787
0.972404
0.993923
1.00186
1.36946
1.22878
1.10269
1.00471
0.949393
0.94408
0.961809
0.9861
0.999142
1.0024
1.37651
1.26368
1.14273
1.0418
0.977813
0.969118
0.984409
1.00127
1.00411
1.00277
1.35761
1.2779
1.17909
1.08083
1.00965
0.996698
1.0096
1.01656
1.00644
1.00263
1.29354
1.28356
1.21344
1.12413
1.05187
1.0355
1.03901
1.02551
1.00558
1.00245
1.18267
1.27378
1.22232
1.16863
1.10814
1.08292
1.06028
1.02479
1.00375
1.00229
1.0727
1.22977
1.22484
1.18957
1.1493
1.10798
1.06192
1.02042
1.00186
1.0022
1.01472
1.14187
1.20594
1.19063
1.15499
1.10943
1.0563
1.01267
1.0006
1.00213
1.00099
1.05263
1.14784
1.16788
1.14432
1.09675
1.03835
1.00489
1.00011
1.00207
0.999892
1.00883
1.06326
1.1053
1.09601
1.05816
1.01491
1.00086
1.00001
1.00206
0.999876
1.00042
1.01099
1.03137
1.03046
1.01569
1.00219
1.00005
1
1.00206
0.999885
0.999978
1.00048
1.00259
1.00268
1.00109
1.00007
1
1
1.00206
0.999892
0.999979
1
1.00003
1.00004
1.00001
1
1
1
1.00206
0.999893
0.999981
0.999999
1
1
1
1
1
1
1.00206
0.999893
0.999981
0.999999
1
1
1
1
1
1
1.00206
0.999893
0.999981
0.999999
1
1
1
1
1
1
1.00206
0.999893
0.999981
0.999999
1
1
1
1
1
1
1.00206
1.10785
1.2122
1.44552
1.5901
1.60465
1.58267
1.54846
1.50673
1.46027
1.40784
1.04722
1.06272
1.16649
1.4052
1.54578
1.57206
1.5574
1.52099
1.47398
1.4195
1.0219
1.02297
1.03543
1.12563
1.33417
1.4911
1.54123
1.5268
1.4835
1.4338
1.01001
1.0104
1.01058
1.01904
1.08461
1.26568
1.4403
1.50176
1.49043
1.44795
1.004
1.00422
1.00398
1.0037
1.00854
1.05453
1.20229
1.3785
1.45354
1.45081
1.00077
1.00081
1.00078
1.00056
1.00039
1.00294
1.03222
1.14683
1.31599
1.40831
0.999817
0.999696
0.999665
0.999644
0.999594
0.999609
1.00086
1.01901
1.10579
1.26937
0.999715
0.999574
0.999526
0.999523
0.999523
0.999533
0.999572
1.00022
1.01128
1.08532
0.999712
0.999571
0.999522
0.999519
0.99952
0.999532
0.999562
0.999618
0.999964
1.00812
0.999712
0.999571
0.999522
0.999519
0.99952
0.999532
0.999565
0.99962
0.999678
0.999947
0.999712
0.999571
0.999522
0.999519
0.99952
0.999532
0.999566
0.99962
0.999685
0.999756
0.999712
0.999571
0.999522
0.999519
0.999521
0.999532
0.999566
0.999618
0.999691
0.999748
0.999712
0.999571
0.999522
0.999519
0.999521
0.999532
0.999566
0.999619
0.999691
0.999754
0.999712
0.999571
0.999522
0.999519
0.99952
0.999532
0.999566
0.99962
0.999687
0.999763
0.999712
0.999571
0.999522
0.999519
0.99952
0.999532
0.999565
0.99962
0.999686
0.999763
0.999712
0.999571
0.999522
0.999519
0.99952
0.999532
0.999565
0.99962
0.999687
0.999762
0.999712
0.999571
0.999522
0.999519
0.99952
0.999532
0.999565
0.99962
0.999687
0.999762
0.999712
0.999571
0.999522
0.999519
0.99952
0.999532
0.999565
0.99962
0.999687
0.999762
0.999712
0.999571
0.999522
0.999519
0.99952
0.999532
0.999565
0.99962
0.999687
0.999762
0.999712
0.999571
0.999522
0.999519
0.99952
0.999532
0.999565
0.99962
0.999687
0.999762
1.037
1.05681
1.05471
1.0485
1.04138
1.034
1.02588
1.0166
1.00532
1.05343
1.037
1.05681
1.05471
1.0485
1.04138
1.034
1.02588
1.01658
1.00547
1.02898
1.037
1.05681
1.05471
1.0485
1.04138
1.034
1.02588
1.01656
1.00574
1.01508
1.037
1.05681
1.05471
1.0485
1.04138
1.034
1.02588
1.01656
1.00582
1.00789
1.037
1.05681
1.05471
1.0485
1.04138
1.034
1.02588
1.01657
1.00598
1.00405
1.037
1.05681
1.05471
1.0485
1.04138
1.034
1.02588
1.01653
1.00635
1.00239
1.037
1.05681
1.05471
1.0485
1.04138
1.034
1.02589
1.01649
1.00661
1.00204
1.037
1.05681
1.05471
1.0485
1.04138
1.034
1.02589
1.01647
1.00669
1.00202
1.037
1.05681
1.05471
1.0485
1.04138
1.034
1.02589
1.01646
1.0067
1.00202
1.037
1.05681
1.05471
1.0485
1.04138
1.034
1.02589
1.01646
1.0067
1.00202
1.037
1.05681
1.05471
1.0485
1.04138
1.034
1.02589
1.01646
1.0067
1.00202
1.037
1.05681
1.05471
1.0485
1.04138
1.034
1.02589
1.01646
1.0067
1.00202
1.037
1.05681
1.05471
1.0485
1.04138
1.034
1.02589
1.01646
1.0067
1.00202
1.037
1.05681
1.05471
1.0485
1.04138
1.034
1.02589
1.01646
1.0067
1.00202
1.037
1.05681
1.05471
1.0485
1.04138
1.034
1.02589
1.01646
1.0067
1.00202
1.037
1.05681
1.05471
1.0485
1.04138
1.034
1.02589
1.01646
1.0067
1.00202
1.037
1.05681
1.05471
1.0485
1.04138
1.034
1.02589
1.01646
1.0067
1.00202
1.037
1.05681
1.05471
1.0485
1.04138
1.034
1.02589
1.01646
1.0067
1.00202
1.037
1.05681
1.05471
1.0485
1.04138
1.034
1.02589
1.01646
1.0067
1.00202
1.037
1.05681
1.05471
1.0485
1.04138
1.034
1.02589
1.01646
1.0067
1.00202
1.037
1.05681
1.05471
1.0485
1.04138
1.034
1.02589
1.01646
1.0067
1.00202
1.037
1.05681
1.05471
1.0485
1.04138
1.034
1.02589
1.01646
1.0067
1.00202
1.037
1.05681
1.05471
1.0485
1.04138
1.034
1.02589
1.01646
1.0067
1.00202
1.037
1.05681
1.05471
1.0485
1.04138
1.034
1.02589
1.01646
1.0067
1.00202
1.037
1.05681
1.05471
1.0485
1.04138
1.034
1.02589
1.01646
1.0067
1.00202
1.037
1.05681
1.05471
1.0485
1.04138
1.034
1.02589
1.01646
1.0067
1.00202
1.037
1.05681
1.05471
1.0485
1.04138
1.034
1.02589
1.01646
1.0067
1.00202
1.037
1.05681
1.05471
1.0485
1.04138
1.034
1.02589
1.01646
1.0067
1.00202
1.037
1.05681
1.05471
1.0485
1.04138
1.034
1.02589
1.01646
1.0067
1.00202
1.037
1.05681
1.05471
1.0485
1.04138
1.034
1.02589
1.01646
1.0067
1.00202
1.037
1.05681
1.05471
1.0485
1.04138
1.034
1.02589
1.01646
1.0067
1.00202
1.037
1.05681
1.05471
1.0485
1.04138
1.034
1.02589
1.01646
1.0067
1.00202
1.037
1.05681
1.05471
1.0485
1.04138
1.034
1.02589
1.01647
1.00669
1.00202
1.037
1.05681
1.05471
1.0485
1.04138
1.034
1.02589
1.01649
1.00661
1.00204
1.037
1.05681
1.05471
1.0485
1.04138
1.034
1.02588
1.01653
1.00635
1.00239
1.037
1.05681
1.05471
1.0485
1.04138
1.034
1.02588
1.01657
1.00598
1.00405
1.037
1.05681
1.05471
1.0485
1.04138
1.034
1.02588
1.01656
1.00582
1.00789
1.037
1.05681
1.05471
1.0485
1.04138
1.034
1.02588
1.01656
1.00574
1.01508
1.037
1.05681
1.05471
1.0485
1.04138
1.034
1.02588
1.01658
1.00547
1.02898
1.037
1.05681
1.05471
1.0485
1.04138
1.034
1.02588
1.0166
1.00532
1.05343
0.999712
0.999571
0.999522
0.999519
0.99952
0.999532
0.999565
0.99962
0.999687
0.999762
0.999712
0.999571
0.999522
0.999519
0.99952
0.999532
0.999565
0.99962
0.999687
0.999762
0.999712
0.999571
0.999522
0.999519
0.99952
0.999532
0.999565
0.99962
0.999687
0.999762
0.999712
0.999571
0.999522
0.999519
0.99952
0.999532
0.999565
0.99962
0.999687
0.999762
0.999712
0.999571
0.999522
0.999519
0.99952
0.999532
0.999565
0.99962
0.999687
0.999762
0.999712
0.999571
0.999522
0.999519
0.99952
0.999532
0.999565
0.99962
0.999686
0.999763
0.999712
0.999571
0.999522
0.999519
0.99952
0.999532
0.999566
0.99962
0.999687
0.999763
0.999712
0.999571
0.999522
0.999519
0.999521
0.999532
0.999566
0.999619
0.999691
0.999754
0.999712
0.999571
0.999522
0.999519
0.999521
0.999532
0.999566
0.999618
0.999691
0.999748
0.999712
0.999571
0.999522
0.999519
0.99952
0.999532
0.999566
0.99962
0.999685
0.999756
0.999712
0.999571
0.999522
0.999519
0.99952
0.999532
0.999565
0.99962
0.999678
0.999947
0.999712
0.999571
0.999522
0.999519
0.99952
0.999532
0.999562
0.999618
0.999964
1.00812
0.999715
0.999574
0.999526
0.999523
0.999523
0.999533
0.999572
1.00022
1.01128
1.08532
0.999817
0.999696
0.999665
0.999644
0.999594
0.999609
1.00086
1.01901
1.10579
1.26937
1.00077
1.00081
1.00078
1.00056
1.00039
1.00294
1.03222
1.14683
1.31599
1.40831
1.004
1.00422
1.00398
1.0037
1.00854
1.05453
1.20229
1.3785
1.45354
1.45081
1.01001
1.0104
1.01058
1.01904
1.08461
1.26568
1.4403
1.50176
1.49043
1.44795
1.0219
1.02297
1.03543
1.12563
1.33417
1.4911
1.54123
1.5268
1.4835
1.4338
1.04722
1.06272
1.16649
1.4052
1.54578
1.57206
1.5574
1.52099
1.47398
1.4195
1.10785
1.2122
1.44552
1.5901
1.60465
1.58267
1.54846
1.50673
1.46027
1.40784
)
;

boundaryField
{
    inlet
    {
        type            fixedValue;
        value           uniform 1;
    }
    outlet
    {
        type            zeroGradient;
    }
    triangle
    {
        type            zeroGradient;
    }
    top
    {
        type            symmetryPlane;
    }
    bottom
    {
        type            symmetryPlane;
    }
    defaultFaces
    {
        type            empty;
    }
}


// ************************************************************************* //
