/*--------------------------------*- C++ -*----------------------------------*\
  =========                 |
  \\      /  F ield         | OpenFOAM: The Open Source CFD Toolbox
   \\    /   O peration     | Website:  https://openfoam.org
    \\  /    A nd           | Version:  8
     \\/     M anipulation  |
\*---------------------------------------------------------------------------*/
FoamFile
{
    version     2.0;
    format      ascii;
    class       volVectorField;
    location    "0.3";
    object      U;
}
// * * * * * * * * * * * * * * * * * * * * * * * * * * * * * * * * * * * * * //

dimensions      [0 1 -1 0 0 0 0];

internalField   nonuniform List<vector> 
2600
(
(0.889076 0.166335 0)
(1.42347 0.234007 0)
(1.53078 0.268315 0)
(1.21315 0.23766 0)
(1.01151 0.148391 0)
(0.991768 0.099799 0)
(0.998397 0.0611639 0)
(1.01995 0.031746 0)
(1.0501 0.0136398 0)
(1.08401 0.00326189 0)
(0.396509 -0.127114 0)
(1.10415 0.191942 0)
(1.4372 0.252937 0)
(1.18708 0.245023 0)
(0.988343 0.15559 0)
(0.975854 0.0989935 0)
(0.993249 0.0569023 0)
(1.02061 0.0285165 0)
(1.05096 0.0121794 0)
(1.08398 0.00288151 0)
(0.0453918 -0.103945 0)
(0.666809 0.124343 0)
(1.20726 0.239813 0)
(1.1211 0.252674 0)
(0.955238 0.159697 0)
(0.959607 0.0951947 0)
(0.989125 0.0519169 0)
(1.01981 0.0249899 0)
(1.05113 0.0105777 0)
(1.08375 0.00259799 0)
(-0.131287 -0.176653 0)
(0.260915 0.0456408 0)
(0.865769 0.122948 0)
(0.984005 0.241013 0)
(0.908355 0.162521 0)
(0.944405 0.0891047 0)
(0.990601 0.0459645 0)
(1.02125 0.0215831 0)
(1.05072 0.00913624 0)
(1.08341 0.0023297 0)
(-0.232815 -0.153409 0)
(-0.0474023 0.00748803 0)
(0.462162 0.12596 0)
(0.783094 0.212635 0)
(0.843265 0.150902 0)
(0.929796 0.0799656 0)
(0.990472 0.0400258 0)
(1.02161 0.0179593 0)
(1.05033 0.00778599 0)
(1.08318 0.00198492 0)
(-0.293292 -0.142069 0)
(-0.253223 -0.020176 0)
(0.125983 0.0453854 0)
(0.55516 0.207241 0)
(0.76208 0.152535 0)
(0.914006 0.0721079 0)
(0.990165 0.0337361 0)
(1.02207 0.0144412 0)
(1.05057 0.0063397 0)
(1.08314 0.00159267 0)
(-0.330758 -0.117424 0)
(-0.369212 -0.0232242 0)
(-0.114073 0.0449844 0)
(0.365808 0.14911 0)
(0.688608 0.115885 0)
(0.905966 0.0545805 0)
(0.989813 0.0271214 0)
(1.02177 0.0109863 0)
(1.05024 0.00492458 0)
(1.08303 0.00124865 0)
(-0.354146 -0.0902604 0)
(-0.418458 -0.0343587 0)
(-0.244377 -0.000826457 0)
(0.23003 0.110056 0)
(0.62006 0.0936897 0)
(0.884942 0.042879 0)
(0.988954 0.0202865 0)
(1.02326 0.00773265 0)
(1.05105 0.00347129 0)
(1.0832 0.000858737 0)
(-0.360869 -0.0585975 0)
(-0.435607 -0.0332895 0)
(-0.297764 -0.0312306 0)
(0.162225 0.0585447 0)
(0.584911 0.0513763 0)
(0.869153 0.0257764 0)
(0.985702 0.0121911 0)
(1.02255 0.00434789 0)
(1.0509 0.00203986 0)
(1.08319 0.000519501 0)
(-0.368678 -0.0213318 0)
(-0.440914 -0.00983706 0)
(-0.312831 -0.00887485 0)
(0.133543 0.0195376 0)
(0.557653 0.0188801 0)
(0.867683 0.00885675 0)
(0.989385 0.00442924 0)
(1.02432 0.00162292 0)
(1.05121 0.000688507 0)
(1.08305 0.000185589 0)
(-0.368678 0.0213318 0)
(-0.440914 0.00983706 0)
(-0.312831 0.00887485 0)
(0.133543 -0.0195376 0)
(0.557653 -0.0188801 0)
(0.867683 -0.00885675 0)
(0.989385 -0.00442924 0)
(1.02432 -0.00162292 0)
(1.05121 -0.000688507 0)
(1.08305 -0.000185589 0)
(-0.360869 0.0585975 0)
(-0.435607 0.0332895 0)
(-0.297764 0.0312306 0)
(0.162225 -0.0585447 0)
(0.584911 -0.0513763 0)
(0.869153 -0.0257764 0)
(0.985702 -0.0121911 0)
(1.02255 -0.00434789 0)
(1.0509 -0.00203986 0)
(1.08319 -0.000519501 0)
(-0.354146 0.0902604 0)
(-0.418458 0.0343587 0)
(-0.244377 0.000826457 0)
(0.23003 -0.110056 0)
(0.62006 -0.0936897 0)
(0.884942 -0.042879 0)
(0.988954 -0.0202865 0)
(1.02326 -0.00773265 0)
(1.05105 -0.00347129 0)
(1.0832 -0.000858737 0)
(-0.330758 0.117424 0)
(-0.369212 0.0232242 0)
(-0.114073 -0.0449844 0)
(0.365808 -0.14911 0)
(0.688608 -0.115885 0)
(0.905966 -0.0545805 0)
(0.989813 -0.0271214 0)
(1.02177 -0.0109863 0)
(1.05024 -0.00492458 0)
(1.08303 -0.00124865 0)
(-0.293292 0.142069 0)
(-0.253223 0.020176 0)
(0.125983 -0.0453854 0)
(0.55516 -0.207241 0)
(0.76208 -0.152535 0)
(0.914006 -0.0721079 0)
(0.990165 -0.0337361 0)
(1.02207 -0.0144412 0)
(1.05057 -0.0063397 0)
(1.08314 -0.00159267 0)
(-0.232815 0.153409 0)
(-0.0474023 -0.00748803 0)
(0.462162 -0.12596 0)
(0.783094 -0.212635 0)
(0.843265 -0.150902 0)
(0.929796 -0.0799656 0)
(0.990472 -0.0400258 0)
(1.02161 -0.0179593 0)
(1.05033 -0.00778599 0)
(1.08318 -0.00198492 0)
(-0.131287 0.176653 0)
(0.260915 -0.0456408 0)
(0.865769 -0.122948 0)
(0.984005 -0.241013 0)
(0.908355 -0.162521 0)
(0.944405 -0.0891047 0)
(0.990601 -0.0459645 0)
(1.02125 -0.0215831 0)
(1.05072 -0.00913624 0)
(1.08341 -0.0023297 0)
(0.0453918 0.103945 0)
(0.666809 -0.124343 0)
(1.20726 -0.239813 0)
(1.1211 -0.252674 0)
(0.955238 -0.159697 0)
(0.959607 -0.0951947 0)
(0.989125 -0.0519169 0)
(1.01981 -0.0249899 0)
(1.05113 -0.0105777 0)
(1.08375 -0.00259799 0)
(0.396509 0.127114 0)
(1.10415 -0.191942 0)
(1.4372 -0.252937 0)
(1.18708 -0.245023 0)
(0.988343 -0.15559 0)
(0.975854 -0.0989935 0)
(0.993249 -0.0569023 0)
(1.02061 -0.0285165 0)
(1.05096 -0.0121794 0)
(1.08398 -0.00288151 0)
(0.889076 -0.166335 0)
(1.42347 -0.234007 0)
(1.53078 -0.268315 0)
(1.21315 -0.23766 0)
(1.01151 -0.148391 0)
(0.991768 -0.099799 0)
(0.998397 -0.0611639 0)
(1.01995 -0.031746 0)
(1.0501 -0.0136398 0)
(1.08401 -0.00326189 0)
(1.34016 -0.069735 0)
(1.57268 -0.240598 0)
(1.5511 -0.307758 0)
(1.22408 -0.246427 0)
(1.03072 -0.148001 0)
(1.00639 -0.101945 0)
(1.00521 -0.0650845 0)
(1.02212 -0.034802 0)
(1.05083 -0.0154351 0)
(1.08426 -0.00359999 0)
(1.37556 0.039192 0)
(1.61733 -0.250233 0)
(1.54041 -0.33189 0)
(1.22657 -0.256121 0)
(1.04944 -0.149458 0)
(1.01951 -0.105061 0)
(1.0126 -0.0692001 0)
(1.02463 -0.0376619 0)
(1.05102 -0.017422 0)
(1.08439 -0.00407752 0)
(1.34032 0.0777642 0)
(1.59782 -0.204674 0)
(1.52978 -0.340701 0)
(1.24196 -0.254738 0)
(1.06897 -0.147469 0)
(1.0307 -0.107964 0)
(1.01907 -0.0726554 0)
(1.0276 -0.0403006 0)
(1.05217 -0.0191578 0)
(1.08471 -0.00450579 0)
(1.29428 0.12873 0)
(1.5587 -0.163187 0)
(1.51893 -0.337241 0)
(1.26342 -0.248135 0)
(1.08873 -0.143081 0)
(1.04088 -0.110915 0)
(1.02432 -0.0761372 0)
(1.03035 -0.0429954 0)
(1.05359 -0.0208045 0)
(1.08513 -0.00489756 0)
(1.26606 0.148989 0)
(1.5253 -0.123754 0)
(1.50194 -0.314585 0)
(1.28132 -0.237376 0)
(1.1067 -0.138049 0)
(1.04991 -0.11609 0)
(1.02836 -0.080346 0)
(1.03252 -0.0459346 0)
(1.055 -0.0223195 0)
(1.08564 -0.0052231 0)
(1.23481 0.174114 0)
(1.49562 -0.0910424 0)
(1.48385 -0.292507 0)
(1.29986 -0.232985 0)
(1.12211 -0.138038 0)
(1.05818 -0.119902 0)
(1.03208 -0.0844557 0)
(1.03488 -0.0485542 0)
(1.05643 -0.0236056 0)
(1.08619 -0.00550913 0)
(1.21048 0.18576 0)
(1.45985 -0.0617817 0)
(1.47036 -0.26037 0)
(1.31288 -0.219707 0)
(1.13259 -0.134055 0)
(1.06449 -0.119347 0)
(1.03607 -0.0863312 0)
(1.03728 -0.0506618 0)
(1.05785 -0.0248338 0)
(1.08679 -0.00576233 0)
(1.18471 0.197153 0)
(1.41875 -0.0321549 0)
(1.46713 -0.240551 0)
(1.32273 -0.209297 0)
(1.14098 -0.12771 0)
(1.0705 -0.115287 0)
(1.03936 -0.0863277 0)
(1.03973 -0.0523255 0)
(1.05938 -0.0259785 0)
(1.08744 -0.00598888 0)
(1.16339 0.203247 0)
(1.38218 -0.00934988 0)
(1.45844 -0.218052 0)
(1.32711 -0.20608 0)
(1.14982 -0.120005 0)
(1.0753 -0.109019 0)
(1.04168 -0.0853509 0)
(1.04211 -0.0540442 0)
(1.06102 -0.0271511 0)
(1.08814 -0.00618468 0)
(1.14336 0.207842 0)
(1.34865 0.0131128 0)
(1.44716 -0.20156 0)
(1.3287 -0.20847 0)
(1.15913 -0.115709 0)
(1.07885 -0.102629 0)
(1.04337 -0.085045 0)
(1.04443 -0.0561137 0)
(1.06273 -0.0285667 0)
(1.08891 -0.00636488 0)
(1.12686 0.209396 0)
(1.31692 0.0358737 0)
(1.42921 -0.180515 0)
(1.32991 -0.217669 0)
(1.1744 -0.121324 0)
(1.08269 -0.0983832 0)
(1.0448 -0.0856234 0)
(1.04651 -0.0588081 0)
(1.06456 -0.0301967 0)
(1.08977 -0.00645333 0)
(1.11201 0.210202 0)
(1.29097 0.0540131 0)
(1.41405 -0.155946 0)
(1.32658 -0.240115 0)
(1.19057 -0.140616 0)
(1.08747 -0.101332 0)
(1.04679 -0.088366 0)
(1.04846 -0.0623896 0)
(1.06677 -0.0317303 0)
(1.0907 -0.00637413 0)
(1.09884 0.209687 0)
(1.26415 0.073166 0)
(1.39552 -0.128166 0)
(1.32184 -0.246346 0)
(1.20019 -0.180395 0)
(1.09344 -0.115214 0)
(1.04831 -0.0946298 0)
(1.05011 -0.0666687 0)
(1.06932 -0.0325197 0)
(1.09165 -0.0060499 0)
(1.08652 0.209429 0)
(1.24404 0.0858069 0)
(1.36244 -0.0909293 0)
(1.32464 -0.238056 0)
(1.20086 -0.225651 0)
(1.10259 -0.146536 0)
(1.05245 -0.106609 0)
(1.05228 -0.0700836 0)
(1.07197 -0.0320201 0)
(1.09257 -0.00553117 0)
(1.07354 0.209507 0)
(1.22342 0.0985574 0)
(1.33663 -0.0642279 0)
(1.32366 -0.223247 0)
(1.19902 -0.235407 0)
(1.11374 -0.177714 0)
(1.05783 -0.120166 0)
(1.05521 -0.0717257 0)
(1.07454 -0.0303238 0)
(1.09339 -0.00491454 0)
(1.06192 0.209669 0)
(1.20486 0.108668 0)
(1.3116 -0.0389463 0)
(1.31439 -0.194827 0)
(1.19659 -0.231487 0)
(1.12232 -0.18833 0)
(1.0651 -0.127097 0)
(1.05906 -0.0719095 0)
(1.07705 -0.0284008 0)
(1.09411 -0.00434831 0)
(1.05031 0.209242 0)
(1.18834 0.116955 0)
(1.29052 -0.0187207 0)
(1.30311 -0.16514 0)
(1.19348 -0.222122 0)
(1.12856 -0.186324 0)
(1.07238 -0.1288 0)
(1.06321 -0.0706312 0)
(1.07952 -0.0265223 0)
(1.09474 -0.00386951 0)
(1.0402 0.208681 0)
(1.172 0.125002 0)
(1.27163 -0.00118845 0)
(1.29299 -0.139412 0)
(1.1928 -0.207214 0)
(1.13074 -0.176967 0)
(1.07885 -0.125294 0)
(1.06762 -0.0687765 0)
(1.08197 -0.0249999 0)
(1.09531 -0.00347585 0)
(1.03175 0.208422 0)
(1.15856 0.131678 0)
(1.25388 0.0137491 0)
(1.2793 -0.115819 0)
(1.1915 -0.187466 0)
(1.13474 -0.16842 0)
(1.0863 -0.124828 0)
(1.07223 -0.0672109 0)
(1.08439 -0.0235517 0)
(1.09585 -0.0031133 0)
(1.02468 0.208598 0)
(1.14736 0.137548 0)
(1.2367 0.0272222 0)
(1.26534 -0.0958659 0)
(1.18788 -0.166994 0)
(1.13359 -0.154705 0)
(1.09078 -0.117631 0)
(1.07671 -0.065035 0)
(1.08673 -0.0222299 0)
(1.09633 -0.0027704 0)
(0.342984 0.135121 0)
(0.394924 0.158559 0)
(0.423438 0.197039 0)
(0.456353 0.225254 0)
(0.487578 0.249458 0)
(0.522651 0.270066 0)
(0.565504 0.293656 0)
(0.624359 0.320516 0)
(0.706923 0.360753 0)
(0.855174 0.401705 0)
(0.363182 0.155945 0)
(0.401623 0.17134 0)
(0.422025 0.201777 0)
(0.453792 0.226167 0)
(0.48561 0.249543 0)
(0.521928 0.270342 0)
(0.564469 0.291186 0)
(0.62336 0.315374 0)
(0.706651 0.352832 0)
(0.849839 0.385539 0)
(0.405254 0.154717 0)
(0.433999 0.164638 0)
(0.447733 0.187997 0)
(0.475083 0.20885 0)
(0.504012 0.232343 0)
(0.540124 0.253767 0)
(0.585071 0.274848 0)
(0.647237 0.296548 0)
(0.73333 0.331309 0)
(0.877308 0.352155 0)
(0.453968 0.173 0)
(0.47778 0.183257 0)
(0.489009 0.203044 0)
(0.514526 0.217984 0)
(0.541365 0.238104 0)
(0.577415 0.257298 0)
(0.624609 0.275963 0)
(0.688305 0.296146 0)
(0.774351 0.326192 0)
(0.907093 0.335015 0)
(0.50163 0.180656 0)
(0.523726 0.188758 0)
(0.535889 0.206276 0)
(0.561241 0.218116 0)
(0.586568 0.236567 0)
(0.622293 0.253623 0)
(0.669514 0.269311 0)
(0.730479 0.286068 0)
(0.810802 0.316253 0)
(0.930111 0.320988 0)
(0.542858 0.18761 0)
(0.563317 0.194838 0)
(0.57628 0.211408 0)
(0.601471 0.22351 0)
(0.626658 0.241716 0)
(0.663318 0.254969 0)
(0.709627 0.267655 0)
(0.765673 0.28404 0)
(0.83751 0.309546 0)
(0.946451 0.314095 0)
(0.579137 0.189232 0)
(0.597962 0.195098 0)
(0.611514 0.209383 0)
(0.635785 0.219649 0)
(0.660941 0.235895 0)
(0.697543 0.246345 0)
(0.741091 0.259152 0)
(0.790752 0.276858 0)
(0.854616 0.301424 0)
(0.953263 0.305545 0)
(0.611548 0.189719 0)
(0.628811 0.194785 0)
(0.642995 0.207113 0)
(0.666183 0.216978 0)
(0.691223 0.231619 0)
(0.726814 0.240082 0)
(0.765516 0.254047 0)
(0.808099 0.272936 0)
(0.865239 0.295074 0)
(0.954522 0.298415 0)
(0.640743 0.187739 0)
(0.656314 0.192181 0)
(0.671027 0.202752 0)
(0.692979 0.212023 0)
(0.717454 0.223939 0)
(0.750319 0.232548 0)
(0.782521 0.2491 0)
(0.819132 0.268928 0)
(0.87158 0.288884 0)
(0.952917 0.291665 0)
(0.667345 0.184836 0)
(0.681097 0.189202 0)
(0.696244 0.198343 0)
(0.716464 0.206978 0)
(0.739677 0.21699 0)
(0.767568 0.228636 0)
(0.793519 0.246862 0)
(0.82598 0.265978 0)
(0.874617 0.283039 0)
(0.949928 0.284734 0)
(0.691998 0.18009 0)
(0.703266 0.184261 0)
(0.718576 0.192096 0)
(0.735876 0.201655 0)
(0.756981 0.212463 0)
(0.778176 0.226802 0)
(0.799666 0.245538 0)
(0.830133 0.263399 0)
(0.876459 0.277106 0)
(0.947171 0.277194 0)
(0.715085 0.172234 0)
(0.722392 0.179711 0)
(0.738634 0.187235 0)
(0.751363 0.197731 0)
(0.768239 0.209813 0)
(0.784087 0.226289 0)
(0.803646 0.245332 0)
(0.833957 0.260706 0)
(0.878687 0.270573 0)
(0.946434 0.26945 0)
(0.737695 0.166547 0)
(0.738549 0.176744 0)
(0.754377 0.184327 0)
(0.762055 0.196002 0)
(0.775209 0.210491 0)
(0.788454 0.227651 0)
(0.807797 0.245186 0)
(0.83843 0.257166 0)
(0.88199 0.263219 0)
(0.946491 0.261506 0)
(0.759107 0.163369 0)
(0.753264 0.173896 0)
(0.764107 0.184595 0)
(0.769568 0.198149 0)
(0.779636 0.213351 0)
(0.791565 0.229026 0)
(0.812519 0.243758 0)
(0.844499 0.252245 0)
(0.887265 0.255219 0)
(0.947665 0.254051 0)
(0.780284 0.161138 0)
(0.766672 0.173113 0)
(0.770162 0.187149 0)
(0.774141 0.201826 0)
(0.782946 0.216515 0)
(0.796374 0.229508 0)
(0.819763 0.2396 0)
(0.852654 0.245481 0)
(0.894193 0.248382 0)
(0.948812 0.247833 0)
(0.80463 0.163451 0)
(0.777864 0.176151 0)
(0.775193 0.19153 0)
(0.779163 0.205452 0)
(0.789253 0.218263 0)
(0.80519 0.226911 0)
(0.829794 0.233561 0)
(0.862177 0.239165 0)
(0.900238 0.242743 0)
(0.947989 0.242663 0)
(0.835336 0.169118 0)
(0.789152 0.182341 0)
(0.783896 0.19627 0)
(0.787652 0.207269 0)
(0.800849 0.215836 0)
(0.818331 0.222148 0)
(0.840438 0.228969 0)
(0.869351 0.233827 0)
(0.902287 0.237659 0)
(0.944996 0.238236 0)
(0.881463 0.172519 0)
(0.80912 0.18886 0)
(0.798832 0.198343 0)
(0.801651 0.204877 0)
(0.815322 0.209381 0)
(0.83149 0.21688 0)
(0.849687 0.226293 0)
(0.873469 0.230283 0)
(0.90202 0.233887 0)
(0.941959 0.233986 0)
(0.951438 0.160835 0)
(0.849686 0.190585 0)
(0.814526 0.202278 0)
(0.815223 0.208259 0)
(0.827876 0.209885 0)
(0.842383 0.216524 0)
(0.856817 0.224159 0)
(0.876551 0.227479 0)
(0.902764 0.230433 0)
(0.940248 0.230768 0)
(1.02655 0.121044 0)
(0.920592 0.172552 0)
(0.834418 0.202008 0)
(0.824947 0.210673 0)
(0.833542 0.215252 0)
(0.84774 0.218807 0)
(0.861271 0.222667 0)
(0.87918 0.225818 0)
(0.904104 0.228714 0)
(0.939141 0.229752 0)
(1.16411 2.81293e-11 0)
(1.14372 -6.78583e-10 0)
(1.13787 5.87609e-09 0)
(1.13355 -4.30658e-08 0)
(1.12902 3.13728e-07 0)
(1.12395 -2.35139e-06 0)
(1.11828 1.83756e-05 0)
(1.1118 -0.000151888 0)
(1.09076 0.00106345 0)
(0.564369 0.0153278 0)
(1.16411 8.46998e-11 0)
(1.14372 -2.05069e-09 0)
(1.13787 1.79255e-08 0)
(1.13355 -1.28655e-07 0)
(1.12902 8.69707e-07 0)
(1.12395 -5.76481e-06 0)
(1.1183 3.97375e-05 0)
(1.11158 -0.000338663 0)
(1.09201 0.00331696 0)
(0.585779 0.0485027 0)
(1.16411 1.38069e-10 0)
(1.14372 -3.41396e-09 0)
(1.13787 3.01663e-08 0)
(1.13355 -2.18022e-07 0)
(1.12902 1.47117e-06 0)
(1.12395 -9.73966e-06 0)
(1.11834 6.58981e-05 0)
(1.11129 -0.000510873 0)
(1.0945 0.00467597 0)
(0.622144 0.0732217 0)
(1.16411 1.82216e-10 0)
(1.14372 -4.60814e-09 0)
(1.13787 4.13168e-08 0)
(1.13354 -3.01679e-07 0)
(1.12902 2.04012e-06 0)
(1.12394 -1.35645e-05 0)
(1.11837 9.26968e-05 0)
(1.11111 -0.000705833 0)
(1.09678 0.0053049 0)
(0.660595 0.0968408 0)
(1.16411 2.1882e-10 0)
(1.14372 -5.64986e-09 0)
(1.13787 5.18541e-08 0)
(1.13354 -3.92751e-07 0)
(1.12902 2.7642e-06 0)
(1.12394 -1.86066e-05 0)
(1.11838 0.00012334 0)
(1.11114 -0.000888257 0)
(1.09878 0.00543101 0)
(0.70053 0.114008 0)
(1.16411 2.48573e-10 0)
(1.14372 -6.41005e-09 0)
(1.13787 5.88501e-08 0)
(1.13354 -4.46365e-07 0)
(1.12902 3.16804e-06 0)
(1.12394 -2.17687e-05 0)
(1.11836 0.00014841 0)
(1.11128 -0.00106713 0)
(1.10064 0.00493767 0)
(0.739316 0.12829 0)
(1.16411 2.78052e-10 0)
(1.14372 -7.48219e-09 0)
(1.13787 6.95398e-08 0)
(1.13354 -5.28178e-07 0)
(1.12902 3.7235e-06 0)
(1.12394 -2.53425e-05 0)
(1.11833 0.000170647 0)
(1.11146 -0.0011479 0)
(1.10178 0.00430421 0)
(0.776696 0.138502 0)
(1.16411 2.97667e-10 0)
(1.14372 -7.82421e-09 0)
(1.13787 7.35e-08 0)
(1.13354 -5.689e-07 0)
(1.12902 4.08238e-06 0)
(1.12395 -2.79109e-05 0)
(1.1183 0.000178825 0)
(1.11171 -0.00106655 0)
(1.10251 0.00336362 0)
(0.811957 0.145945 0)
(1.16411 3.15425e-10 0)
(1.14372 -8.50064e-09 0)
(1.13787 8.05499e-08 0)
(1.13354 -6.20083e-07 0)
(1.12902 4.34171e-06 0)
(1.12395 -2.83462e-05 0)
(1.11829 0.000172405 0)
(1.11186 -0.000916449 0)
(1.10307 0.0022685 0)
(0.845084 0.150433 0)
(1.16411 3.09725e-10 0)
(1.14372 -8.25442e-09 0)
(1.13787 7.873e-08 0)
(1.13354 -6.04844e-07 0)
(1.12902 4.17426e-06 0)
(1.12395 -2.65206e-05 0)
(1.11828 0.000149674 0)
(1.1119 -0.000713454 0)
(1.10346 0.00126187 0)
(0.876337 0.152242 0)
(1.16411 2.74362e-10 0)
(1.14372 -7.29326e-09 0)
(1.13787 6.98708e-08 0)
(1.13354 -5.33886e-07 0)
(1.12902 3.6148e-06 0)
(1.12395 -2.22379e-05 0)
(1.11827 0.000119675 0)
(1.11187 -0.000478211 0)
(1.10361 0.000598612 0)
(0.906147 0.151766 0)
(1.16411 2.17227e-10 0)
(1.14372 -5.77745e-09 0)
(1.13787 5.59492e-08 0)
(1.13354 -4.29232e-07 0)
(1.12902 2.86763e-06 0)
(1.12395 -1.68974e-05 0)
(1.11827 8.23886e-05 0)
(1.11184 -0.000269225 0)
(1.10366 0.000198083 0)
(0.934671 0.149095 0)
(1.16411 1.48589e-10 0)
(1.14372 -4.0313e-09 0)
(1.13787 3.89474e-08 0)
(1.13355 -2.91714e-07 0)
(1.12902 1.85785e-06 0)
(1.12395 -1.00638e-05 0)
(1.11828 4.28717e-05 0)
(1.11182 -0.000106548 0)
(1.10369 2.73302e-05 0)
(0.961841 0.144051 0)
(1.16411 7.56131e-11 0)
(1.14372 -2.07849e-09 0)
(1.13787 1.9481e-08 0)
(1.13355 -1.37771e-07 0)
(1.12902 8.01253e-07 0)
(1.12395 -3.7748e-06 0)
(1.11828 1.2961e-05 0)
(1.11181 -2.05083e-05 0)
(1.1037 -9.62466e-07 0)
(0.98731 0.136928 0)
(1.16411 2.07881e-11 0)
(1.14372 -5.49931e-10 0)
(1.13787 4.61656e-09 0)
(1.13355 -2.7986e-08 0)
(1.12902 1.30682e-07 0)
(1.12395 -4.32639e-07 0)
(1.11828 6.84358e-07 0)
(1.11181 1.20442e-06 0)
(1.1037 -2.96497e-06 0)
(1.01056 0.127848 0)
(1.16411 -2.78172e-12 0)
(1.14372 8.97371e-11 0)
(1.13787 -9.99917e-10 0)
(1.13355 8.34867e-09 0)
(1.12902 -5.73854e-08 0)
(1.12395 3.28882e-07 0)
(1.11828 -1.5408e-06 0)
(1.11181 4.92902e-06 0)
(1.1037 -5.56002e-06 0)
(1.0309 0.116739 0)
(1.16411 -8.0737e-12 0)
(1.14372 2.22742e-10 0)
(1.13787 -2.06924e-09 0)
(1.13355 1.51074e-08 0)
(1.12902 -9.65859e-08 0)
(1.12395 5.45981e-07 0)
(1.11828 -2.62182e-06 0)
(1.11181 8.93499e-06 0)
(1.1037 -1.21524e-05 0)
(1.04773 0.103932 0)
(1.16411 -9.55622e-12 0)
(1.14372 2.61739e-10 0)
(1.13787 -2.5028e-09 0)
(1.13355 1.9035e-08 0)
(1.12902 -1.26964e-07 0)
(1.12395 7.53864e-07 0)
(1.11828 -3.91386e-06 0)
(1.11181 1.48759e-05 0)
(1.10369 -2.47253e-05 0)
(1.06107 0.0891784 0)
(1.16411 -1.06443e-11 0)
(1.14372 2.93402e-10 0)
(1.13787 -2.8455e-09 0)
(1.13355 2.23129e-08 0)
(1.12902 -1.56188e-07 0)
(1.12395 9.90668e-07 0)
(1.11828 -5.57497e-06 0)
(1.11181 2.26929e-05 0)
(1.10369 -4.11832e-05 0)
(1.07193 0.071931 0)
(1.16411 -1.13971e-11 0)
(1.14372 3.19075e-10 0)
(1.13787 -3.19275e-09 0)
(1.13355 2.57987e-08 0)
(1.12902 -1.85223e-07 0)
(1.12395 1.21118e-06 0)
(1.11828 -6.9334e-06 0)
(1.11181 2.91432e-05 0)
(1.10369 -5.74893e-05 0)
(1.081 0.0533223 0)
(1.16411 1.13275e-11 0)
(1.14372 -3.18768e-10 0)
(1.13787 3.1924e-09 0)
(1.13355 -2.57981e-08 0)
(1.12902 1.85221e-07 0)
(1.12395 -1.21118e-06 0)
(1.11828 6.93339e-06 0)
(1.11181 -2.91432e-05 0)
(1.10369 5.74893e-05 0)
(1.081 -0.0533223 0)
(1.16411 1.06265e-11 0)
(1.14372 -2.93144e-10 0)
(1.13787 2.84502e-09 0)
(1.13355 -2.23124e-08 0)
(1.12902 1.56186e-07 0)
(1.12395 -9.90661e-07 0)
(1.11828 5.57495e-06 0)
(1.11181 -2.26929e-05 0)
(1.10369 4.11832e-05 0)
(1.07193 -0.071931 0)
(1.16411 9.61208e-12 0)
(1.14372 -2.61352e-10 0)
(1.13787 2.50196e-09 0)
(1.13355 -1.90347e-08 0)
(1.12902 1.26962e-07 0)
(1.12395 -7.53855e-07 0)
(1.11828 3.91384e-06 0)
(1.11181 -1.48758e-05 0)
(1.10369 2.47252e-05 0)
(1.06107 -0.0891784 0)
(1.16411 8.06995e-12 0)
(1.14372 -2.22291e-10 0)
(1.13787 2.06836e-09 0)
(1.13355 -1.51066e-08 0)
(1.12902 9.65828e-08 0)
(1.12395 -5.45971e-07 0)
(1.11828 2.62179e-06 0)
(1.11181 -8.93493e-06 0)
(1.1037 1.21524e-05 0)
(1.04773 -0.103932 0)
(1.16411 2.89177e-12 0)
(1.14372 -8.89321e-11 0)
(1.13787 9.99594e-10 0)
(1.13355 -8.34724e-09 0)
(1.12902 5.73819e-08 0)
(1.12395 -3.28872e-07 0)
(1.11828 1.54078e-06 0)
(1.11181 -4.92896e-06 0)
(1.1037 5.55995e-06 0)
(1.0309 -0.116739 0)
(1.16411 -2.05023e-11 0)
(1.14372 5.5034e-10 0)
(1.13787 -4.61686e-09 0)
(1.13355 2.79882e-08 0)
(1.12902 -1.30685e-07 0)
(1.12395 4.32649e-07 0)
(1.11828 -6.84384e-07 0)
(1.11181 -1.20436e-06 0)
(1.1037 2.96492e-06 0)
(1.01056 -0.127848 0)
(1.16411 -7.53727e-11 0)
(1.14372 2.07865e-09 0)
(1.13787 -1.94816e-08 0)
(1.13355 1.37772e-07 0)
(1.12902 -8.01256e-07 0)
(1.12395 3.77481e-06 0)
(1.11828 -1.29611e-05 0)
(1.11181 2.05084e-05 0)
(1.1037 9.62421e-07 0)
(0.98731 -0.136928 0)
(1.16411 -1.48471e-10 0)
(1.14372 4.03137e-09 0)
(1.13787 -3.89477e-08 0)
(1.13355 2.91715e-07 0)
(1.12902 -1.85786e-06 0)
(1.12395 1.00638e-05 0)
(1.11828 -4.28717e-05 0)
(1.11182 0.000106548 0)
(1.10369 -2.73302e-05 0)
(0.961841 -0.144051 0)
(1.16411 -2.17221e-10 0)
(1.14372 5.77815e-09 0)
(1.13787 -5.59498e-08 0)
(1.13354 4.29233e-07 0)
(1.12902 -2.86763e-06 0)
(1.12395 1.68974e-05 0)
(1.11827 -8.23886e-05 0)
(1.11184 0.000269225 0)
(1.10366 -0.000198083 0)
(0.934671 -0.149095 0)
(1.16411 -2.74466e-10 0)
(1.14372 7.29375e-09 0)
(1.13787 -6.98711e-08 0)
(1.13354 5.33887e-07 0)
(1.12902 -3.6148e-06 0)
(1.12395 2.22379e-05 0)
(1.11827 -0.000119675 0)
(1.11187 0.000478211 0)
(1.10361 -0.000598612 0)
(0.906147 -0.151766 0)
(1.16411 -3.09857e-10 0)
(1.14372 8.25469e-09 0)
(1.13787 -7.873e-08 0)
(1.13354 6.04844e-07 0)
(1.12902 -4.17426e-06 0)
(1.12395 2.65207e-05 0)
(1.11828 -0.000149674 0)
(1.1119 0.000713454 0)
(1.10346 -0.00126187 0)
(0.876337 -0.152242 0)
(1.16411 -3.15617e-10 0)
(1.14372 8.50078e-09 0)
(1.13787 -8.05498e-08 0)
(1.13354 6.20083e-07 0)
(1.12902 -4.34171e-06 0)
(1.12395 2.83462e-05 0)
(1.11829 -0.000172405 0)
(1.11186 0.00091645 0)
(1.10307 -0.0022685 0)
(0.845084 -0.150433 0)
(1.16411 -2.97832e-10 0)
(1.14372 7.82434e-09 0)
(1.13787 -7.34999e-08 0)
(1.13354 5.68899e-07 0)
(1.12902 -4.08238e-06 0)
(1.12395 2.79109e-05 0)
(1.1183 -0.000178825 0)
(1.11171 0.00106655 0)
(1.10251 -0.00336362 0)
(0.811957 -0.145945 0)
(1.16411 -2.7805e-10 0)
(1.14372 7.48191e-09 0)
(1.13787 -6.95399e-08 0)
(1.13354 5.28178e-07 0)
(1.12902 -3.7235e-06 0)
(1.12394 2.53425e-05 0)
(1.11833 -0.000170647 0)
(1.11146 0.0011479 0)
(1.10178 -0.00430421 0)
(0.776696 -0.138502 0)
(1.16411 -2.48244e-10 0)
(1.14372 6.40987e-09 0)
(1.13787 -5.88496e-08 0)
(1.13354 4.46365e-07 0)
(1.12902 -3.16804e-06 0)
(1.12394 2.17687e-05 0)
(1.11836 -0.00014841 0)
(1.11128 0.00106713 0)
(1.10064 -0.00493767 0)
(0.739316 -0.12829 0)
(1.16411 -2.18584e-10 0)
(1.14372 5.64976e-09 0)
(1.13787 -5.18536e-08 0)
(1.13354 3.92751e-07 0)
(1.12902 -2.7642e-06 0)
(1.12394 1.86066e-05 0)
(1.11838 -0.00012334 0)
(1.11114 0.000888257 0)
(1.09878 -0.00543101 0)
(0.70053 -0.114008 0)
(1.16411 -1.8215e-10 0)
(1.14372 4.60818e-09 0)
(1.13787 -4.13162e-08 0)
(1.13354 3.01679e-07 0)
(1.12902 -2.04012e-06 0)
(1.12394 1.35645e-05 0)
(1.11837 -9.26968e-05 0)
(1.11111 0.000705833 0)
(1.09678 -0.0053049 0)
(0.660595 -0.0968408 0)
(1.16411 -1.38165e-10 0)
(1.14372 3.41391e-09 0)
(1.13787 -3.01657e-08 0)
(1.13355 2.18022e-07 0)
(1.12902 -1.47117e-06 0)
(1.12395 9.73966e-06 0)
(1.11834 -6.58981e-05 0)
(1.11129 0.000510873 0)
(1.0945 -0.00467597 0)
(0.622144 -0.0732217 0)
(1.16411 -8.48395e-11 0)
(1.14372 2.05027e-09 0)
(1.13787 -1.7925e-08 0)
(1.13355 1.28654e-07 0)
(1.12902 -8.69706e-07 0)
(1.12395 5.76481e-06 0)
(1.1183 -3.97375e-05 0)
(1.11158 0.000338663 0)
(1.09201 -0.00331696 0)
(0.585779 -0.0485027 0)
(1.16411 -2.83396e-11 0)
(1.14372 6.77874e-10 0)
(1.13787 -5.87568e-09 0)
(1.13355 4.30648e-08 0)
(1.12902 -3.13727e-07 0)
(1.12395 2.35138e-06 0)
(1.11828 -1.83756e-05 0)
(1.1118 0.000151888 0)
(1.09076 -0.00106345 0)
(0.564369 -0.0153278 0)
(1.02655 -0.121044 0)
(0.920592 -0.172552 0)
(0.834418 -0.202008 0)
(0.824947 -0.210673 0)
(0.833542 -0.215252 0)
(0.84774 -0.218807 0)
(0.861271 -0.222667 0)
(0.87918 -0.225818 0)
(0.904104 -0.228714 0)
(0.939141 -0.229752 0)
(0.951438 -0.160835 0)
(0.849686 -0.190585 0)
(0.814526 -0.202278 0)
(0.815223 -0.208259 0)
(0.827876 -0.209885 0)
(0.842383 -0.216524 0)
(0.856817 -0.224159 0)
(0.876551 -0.227479 0)
(0.902764 -0.230433 0)
(0.940248 -0.230768 0)
(0.881463 -0.172519 0)
(0.80912 -0.18886 0)
(0.798832 -0.198343 0)
(0.801651 -0.204877 0)
(0.815322 -0.209381 0)
(0.83149 -0.21688 0)
(0.849687 -0.226293 0)
(0.873469 -0.230283 0)
(0.90202 -0.233887 0)
(0.941959 -0.233986 0)
(0.835336 -0.169118 0)
(0.789152 -0.182341 0)
(0.783896 -0.19627 0)
(0.787652 -0.207269 0)
(0.800849 -0.215836 0)
(0.818331 -0.222148 0)
(0.840438 -0.228969 0)
(0.869351 -0.233827 0)
(0.902287 -0.237659 0)
(0.944996 -0.238236 0)
(0.80463 -0.163451 0)
(0.777864 -0.176151 0)
(0.775193 -0.19153 0)
(0.779163 -0.205452 0)
(0.789253 -0.218263 0)
(0.80519 -0.226911 0)
(0.829794 -0.233561 0)
(0.862177 -0.239165 0)
(0.900238 -0.242743 0)
(0.947989 -0.242663 0)
(0.780284 -0.161138 0)
(0.766672 -0.173113 0)
(0.770162 -0.187149 0)
(0.774141 -0.201826 0)
(0.782946 -0.216515 0)
(0.796374 -0.229508 0)
(0.819763 -0.2396 0)
(0.852654 -0.245481 0)
(0.894193 -0.248382 0)
(0.948812 -0.247833 0)
(0.759107 -0.163369 0)
(0.753264 -0.173896 0)
(0.764107 -0.184595 0)
(0.769568 -0.198149 0)
(0.779636 -0.213351 0)
(0.791565 -0.229026 0)
(0.812519 -0.243758 0)
(0.844499 -0.252245 0)
(0.887265 -0.255219 0)
(0.947665 -0.254051 0)
(0.737695 -0.166547 0)
(0.738549 -0.176744 0)
(0.754377 -0.184327 0)
(0.762055 -0.196002 0)
(0.775209 -0.210491 0)
(0.788454 -0.227651 0)
(0.807797 -0.245186 0)
(0.83843 -0.257166 0)
(0.88199 -0.263219 0)
(0.946491 -0.261506 0)
(0.715085 -0.172234 0)
(0.722392 -0.179711 0)
(0.738634 -0.187235 0)
(0.751363 -0.197731 0)
(0.768239 -0.209813 0)
(0.784087 -0.226289 0)
(0.803646 -0.245332 0)
(0.833957 -0.260706 0)
(0.878687 -0.270573 0)
(0.946434 -0.26945 0)
(0.691998 -0.18009 0)
(0.703266 -0.184261 0)
(0.718576 -0.192096 0)
(0.735876 -0.201655 0)
(0.756981 -0.212463 0)
(0.778176 -0.226802 0)
(0.799666 -0.245538 0)
(0.830133 -0.263399 0)
(0.876459 -0.277106 0)
(0.947171 -0.277194 0)
(0.667345 -0.184836 0)
(0.681097 -0.189202 0)
(0.696244 -0.198343 0)
(0.716464 -0.206978 0)
(0.739677 -0.21699 0)
(0.767568 -0.228636 0)
(0.793519 -0.246862 0)
(0.82598 -0.265978 0)
(0.874617 -0.283039 0)
(0.949928 -0.284734 0)
(0.640743 -0.187739 0)
(0.656314 -0.192181 0)
(0.671027 -0.202752 0)
(0.692979 -0.212023 0)
(0.717454 -0.223939 0)
(0.750319 -0.232548 0)
(0.782521 -0.2491 0)
(0.819132 -0.268928 0)
(0.87158 -0.288884 0)
(0.952917 -0.291665 0)
(0.611548 -0.189719 0)
(0.628811 -0.194785 0)
(0.642995 -0.207113 0)
(0.666183 -0.216978 0)
(0.691223 -0.231619 0)
(0.726814 -0.240082 0)
(0.765516 -0.254047 0)
(0.808099 -0.272936 0)
(0.865239 -0.295074 0)
(0.954522 -0.298415 0)
(0.579137 -0.189232 0)
(0.597962 -0.195098 0)
(0.611514 -0.209383 0)
(0.635785 -0.219649 0)
(0.660941 -0.235895 0)
(0.697543 -0.246345 0)
(0.741091 -0.259152 0)
(0.790752 -0.276858 0)
(0.854616 -0.301424 0)
(0.953263 -0.305545 0)
(0.542858 -0.18761 0)
(0.563317 -0.194838 0)
(0.57628 -0.211408 0)
(0.601471 -0.22351 0)
(0.626658 -0.241716 0)
(0.663318 -0.254969 0)
(0.709627 -0.267655 0)
(0.765673 -0.28404 0)
(0.83751 -0.309546 0)
(0.946451 -0.314095 0)
(0.50163 -0.180656 0)
(0.523726 -0.188758 0)
(0.535889 -0.206276 0)
(0.561241 -0.218116 0)
(0.586568 -0.236567 0)
(0.622293 -0.253623 0)
(0.669514 -0.269311 0)
(0.730479 -0.286068 0)
(0.810802 -0.316253 0)
(0.930111 -0.320988 0)
(0.453968 -0.173 0)
(0.47778 -0.183257 0)
(0.489009 -0.203044 0)
(0.514526 -0.217984 0)
(0.541365 -0.238104 0)
(0.577415 -0.257298 0)
(0.624609 -0.275963 0)
(0.688305 -0.296146 0)
(0.774351 -0.326192 0)
(0.907093 -0.335015 0)
(0.405254 -0.154717 0)
(0.433999 -0.164638 0)
(0.447733 -0.187997 0)
(0.475083 -0.20885 0)
(0.504012 -0.232343 0)
(0.540124 -0.253767 0)
(0.585071 -0.274848 0)
(0.647237 -0.296548 0)
(0.73333 -0.331309 0)
(0.877308 -0.352155 0)
(0.363182 -0.155945 0)
(0.401623 -0.17134 0)
(0.422025 -0.201777 0)
(0.453792 -0.226167 0)
(0.48561 -0.249543 0)
(0.521928 -0.270342 0)
(0.564469 -0.291186 0)
(0.62336 -0.315374 0)
(0.706651 -0.352832 0)
(0.849839 -0.385539 0)
(0.342984 -0.135121 0)
(0.394924 -0.158559 0)
(0.423438 -0.197039 0)
(0.456353 -0.225254 0)
(0.487578 -0.249458 0)
(0.522651 -0.270066 0)
(0.565504 -0.293656 0)
(0.624359 -0.320516 0)
(0.706923 -0.360753 0)
(0.855174 -0.401705 0)
(1.02468 -0.208598 0)
(1.14736 -0.137548 0)
(1.2367 -0.0272222 0)
(1.26534 0.0958659 0)
(1.18788 0.166994 0)
(1.13359 0.154705 0)
(1.09078 0.117631 0)
(1.07671 0.065035 0)
(1.08673 0.0222299 0)
(1.09633 0.0027704 0)
(1.03175 -0.208422 0)
(1.15856 -0.131678 0)
(1.25388 -0.0137491 0)
(1.2793 0.115819 0)
(1.1915 0.187466 0)
(1.13474 0.16842 0)
(1.0863 0.124828 0)
(1.07223 0.0672109 0)
(1.08439 0.0235517 0)
(1.09585 0.0031133 0)
(1.0402 -0.208681 0)
(1.172 -0.125002 0)
(1.27163 0.00118845 0)
(1.29299 0.139412 0)
(1.1928 0.207214 0)
(1.13074 0.176967 0)
(1.07885 0.125294 0)
(1.06762 0.0687765 0)
(1.08197 0.0249999 0)
(1.09531 0.00347585 0)
(1.05031 -0.209242 0)
(1.18834 -0.116955 0)
(1.29052 0.0187207 0)
(1.30311 0.16514 0)
(1.19348 0.222122 0)
(1.12856 0.186324 0)
(1.07238 0.1288 0)
(1.06321 0.0706312 0)
(1.07952 0.0265223 0)
(1.09474 0.00386951 0)
(1.06192 -0.209669 0)
(1.20486 -0.108668 0)
(1.3116 0.0389463 0)
(1.31439 0.194827 0)
(1.19659 0.231487 0)
(1.12232 0.18833 0)
(1.0651 0.127097 0)
(1.05906 0.0719095 0)
(1.07705 0.0284008 0)
(1.09411 0.00434831 0)
(1.07354 -0.209507 0)
(1.22342 -0.0985574 0)
(1.33663 0.0642279 0)
(1.32366 0.223247 0)
(1.19902 0.235407 0)
(1.11374 0.177714 0)
(1.05783 0.120166 0)
(1.05521 0.0717257 0)
(1.07454 0.0303238 0)
(1.09339 0.00491454 0)
(1.08652 -0.209429 0)
(1.24404 -0.0858069 0)
(1.36244 0.0909293 0)
(1.32464 0.238056 0)
(1.20086 0.225651 0)
(1.10259 0.146536 0)
(1.05245 0.106609 0)
(1.05228 0.0700836 0)
(1.07197 0.0320201 0)
(1.09257 0.00553117 0)
(1.09884 -0.209687 0)
(1.26415 -0.073166 0)
(1.39552 0.128166 0)
(1.32184 0.246346 0)
(1.20019 0.180395 0)
(1.09344 0.115214 0)
(1.04831 0.0946298 0)
(1.05011 0.0666687 0)
(1.06932 0.0325197 0)