/*--------------------------------*- C++ -*----------------------------------*\
  =========                 |
  \\      /  F ield         | OpenFOAM: The Open Source CFD Toolbox
   \\    /   O peration     | Website:  https://openfoam.org
    \\  /    A nd           | Version:  7
     \\/     M anipulation  |
\*---------------------------------------------------------------------------*/
FoamFile
{
    version     2.0;
    format      ascii;
    class       volVectorField;
    location    "1.1";
    object      U;
}
// * * * * * * * * * * * * * * * * * * * * * * * * * * * * * * * * * * * * * //

dimensions      [0 1 -1 0 0 0 0];

internalField   nonuniform List<vector> 
325
(
(0.76227 0.0264715 0)
(0.850815 0.0168339 0)
(0.970248 0.135517 0)
(1.14068 0.0756858 0)
(-0.0252823 0.0124458 0)
(0.152168 0.0209969 0)
(0.264069 0.0115746 0)
(0.416818 0.00913306 0)
(0.563876 0.010311 0)
(0.694963 0.0784568 0)
(0.935473 0.0504926 0)
(-0.206236 0.00810947 0)
(-0.0649807 0.0171074 0)
(0.0562733 0.0118399 0)
(0.233385 0.0128532 0)
(0.40935 0.00751164 0)
(0.50807 0.0573792 0)
(0.774819 0.0365852 0)
(-0.258859 0.00535886 0)
(-0.130369 0.00886092 0)
(-0.00510837 0.00551454 0)
(0.178711 0.00444127 0)
(0.362157 0.00111514 0)
(0.43224 0.0221325 0)
(0.705524 0.0169953 0)
(-0.13047 -0.00471107 0)
(-0.00485547 -0.00294157 0)
(0.179292 -0.00753611 0)
(0.361926 -0.00493533 0)
(0.431923 -0.0211786 0)
(0.705073 -0.0145905 0)
(-0.0656452 -0.0134375 0)
(0.0579594 -0.00783337 0)
(0.236852 -0.0128489 0)
(0.411058 -0.0099834 0)
(0.506731 -0.0579045 0)
(0.773396 -0.0369982 0)
(0.150158 -0.0175651 0)
(0.268109 -0.00967423 0)
(0.42552 -0.0111938 0)
(0.568216 -0.012339 0)
(0.692589 -0.0788762 0)
(0.933351 -0.0500438 0)
(0.555823 -0.0374107 0)
(0.660852 -0.027203 0)
(0.775799 -0.0282595 0)
(0.856775 -0.0250301 0)
(0.967094 -0.13739 0)
(1.13854 -0.0762741 0)
(1.10436 -0.0322072 0)
(1.18431 -0.0164999 0)
(1.24254 -0.00632784 0)
(1.23992 -0.0227288 0)
(1.26551 -0.151272 0)
(1.31386 -0.0905112 0)
(1.6781 -0.0559237 0)
(1.71221 -0.0389113 0)
(1.7123 -0.0236846 0)
(1.6293 -0.0295773 0)
(1.49899 -0.20543 0)
(1.41806 -0.114505 0)
(2.14005 -0.0573504 0)
(2.12268 -0.0363415 0)
(2.0704 -0.0105545 0)
(1.92737 -0.0228814 0)
(1.63666 -0.217511 0)
(1.46523 -0.127799 0)
(2.42696 -0.079097 0)
(2.37208 -0.049967 0)
(2.28702 -0.0140403 0)
(2.10284 -0.0259063 0)
(1.68075 -0.24715 0)
(1.48184 -0.143724 0)
(2.56457 -0.0879276 0)
(2.49384 -0.063166 0)
(2.3973 -0.012799 0)
(2.18659 -0.0219095 0)
(1.68701 -0.253029 0)
(1.49363 -0.162454 0)
(2.61458 -0.111051 0)
(2.54468 -0.076778 0)
(2.45196 -0.0204807 0)
(2.22552 -0.0199591 0)
(1.68267 -0.260377 0)
(1.51033 -0.190191 0)
(2.63453 -0.143996 0)
(2.57045 -0.0929517 0)
(2.48743 -0.0266635 0)
(2.25459 -0.0152544 0)
(1.68783 -0.259539 0)
(1.54888 -0.218268 0)
(2.64827 -0.182398 0)
(2.59542 -0.116818 0)
(2.5204 -0.0372216 0)
(2.29053 -0.0112634 0)
(1.70879 -0.26166 0)
(1.60794 -0.243384 0)
(2.6636 -0.212391 0)
(2.62736 -0.134452 0)
(2.55109 -0.047899 0)
(2.33534 -0.00775899 0)
(1.7495 -0.263642 0)
(1.68384 -0.262178 0)
(2.68356 -0.226154 0)
(2.651 -0.166864 0)
(2.57585 -0.0511446 0)
(2.3845 -0.00563853 0)
(1.80918 -0.26857 0)
(1.77604 -0.275565 0)
(2.69965 -0.243908 0)
(2.67246 -0.196084 0)
(2.59317 -0.0758099 0)
(2.42518 -0.0141616 0)
(1.88283 -0.276869 0)
(1.87773 -0.288502 0)
(2.71504 -0.255763 0)
(2.68975 -0.221548 0)
(2.59913 -0.105394 0)
(2.44548 -0.0386495 0)
(1.96149 -0.292019 0)
(1.97607 -0.297777 0)
(2.72586 -0.256438 0)
(2.70469 -0.241695 0)
(2.61887 -0.130705 0)
(2.443 -0.0754883 0)
(2.03327 -0.301301 0)
(2.05247 -0.303876 0)
(2.73035 -0.259359 0)
(2.72 -0.250556 0)
(2.6379 -0.145212 0)
(2.42671 -0.101133 0)
(2.08245 -0.328306 0)
(2.09526 -0.317196 0)
(2.73492 -0.235848 0)
(2.72784 -0.248886 0)
(2.65554 -0.155176 0)
(2.3984 -0.131427 0)
(2.11273 -0.329746 0)
(2.11763 -0.324845 0)
(2.74162 -0.212998 0)
(2.73177 -0.238865 0)
(2.67086 -0.171021 0)
(2.36732 -0.167132 0)
(2.12903 -0.344422 0)
(2.13277 -0.332907 0)
(2.74453 -0.181714 0)
(2.73223 -0.231574 0)
(2.6781 -0.192077 0)
(2.34966 -0.20368 0)
(2.13666 -0.367204 0)
(2.13735 -0.338238 0)
(2.7448 -0.151407 0)
(2.72615 -0.227673 0)
(2.68185 -0.213981 0)
(2.33255 -0.251041 0)
(2.14124 -0.386509 0)
(2.13345 -0.339611 0)
(2.73571 -0.114513 0)
(2.71472 -0.220635 0)
(2.68258 -0.23518 0)
(2.31689 -0.296698 0)
(2.1502 -0.402129 0)
(2.12825 -0.33934 0)
(2.72704 -0.0732397 0)
(2.70803 -0.226832 0)
(2.68184 -0.249967 0)
(2.33116 -0.35331 0)
(2.17337 -0.417442 0)
(2.12433 -0.336324 0)
(2.70293 -0.0377561 0)
(2.71305 -0.216094 0)
(2.67007 -0.258582 0)
(2.32718 -0.400787 0)
(2.18817 -0.434353 0)
(2.12145 -0.329776 0)
(2.676 0.00307336 0)
(2.71042 -0.202599 0)
(2.66095 -0.264695 0)
(2.34635 -0.445062 0)
(2.20222 -0.453089 0)
(2.11522 -0.328487 0)
(2.65138 0.0459076 0)
(2.70313 -0.183412 0)
(2.64961 -0.266993 0)
(2.35141 -0.49168 0)
(2.19078 -0.466452 0)
(2.10818 -0.323967 0)
(2.63362 0.0837853 0)
(2.69143 -0.152841 0)
(2.63589 -0.260487 0)
(2.35297 -0.533228 0)
(2.17189 -0.476961 0)
(2.09925 -0.32685 0)
(2.61351 0.130624 0)
(2.68136 -0.123873 0)
(2.62119 -0.262293 0)
(2.35433 -0.568943 0)
(2.15371 -0.479141 0)
(2.09035 -0.327061 0)
(2.59947 0.163529 0)
(2.66801 -0.0944608 0)
(2.60171 -0.249483 0)
(2.34842 -0.597168 0)
(2.13642 -0.479933 0)
(2.08243 -0.32843 0)
(2.54519 0.243963 0)
(2.63018 -0.0398562 0)
(2.56363 -0.247909 0)
(2.31594 -0.629877 0)
(2.11862 -0.490689 0)
(2.07668 -0.320542 0)
(2.50057 0.315208 0)
(2.59212 0.00197482 0)
(2.5084 -0.22905 0)
(2.26025 -0.647803 0)
(2.11181 -0.525256 0)
(2.07459 -0.324692 0)
(2.45592 0.399008 0)
(2.53246 0.0691587 0)
(2.4296 -0.223361 0)
(2.22717 -0.624128 0)
(2.12575 -0.568712 0)
(2.09492 -0.333158 0)
(2.41858 0.472964 0)
(2.46842 0.120415 0)
(2.34946 -0.222002 0)
(2.21868 -0.566545 0)
(2.12823 -0.576716 0)
(2.13998 -0.358224 0)
(2.39653 0.529331 0)
(2.40827 0.165603 0)
(2.28871 -0.208357 0)
(2.21308 -0.537027 0)
(2.12706 -0.557365 0)
(2.18653 -0.375491 0)
(2.3886 0.571404 0)
(2.35422 0.205136 0)
(2.2559 -0.197014 0)
(2.20251 -0.470599 0)
(2.12771 -0.532107 0)
(2.21819 -0.384803 0)
(2.37275 0.621952 0)
(2.29991 0.259135 0)
(2.22872 -0.196003 0)
(2.16992 -0.412266 0)
(2.13744 -0.495763 0)
(2.22797 -0.392767 0)
(2.35593 0.646959 0)
(2.25703 0.276528 0)
(2.17686 -0.197874 0)
(2.11822 -0.347127 0)
(2.1221 -0.434464 0)
(2.23138 -0.386098 0)
(2.33665 0.663578 0)
(2.18643 0.282252 0)
(2.104 -0.166634 0)
(2.06642 -0.294992 0)
(2.11669 -0.391693 0)
(2.24007 -0.369391 0)
(2.36656 0.684614 0)
(2.07729 0.263944 0)
(2.03242 -0.138728 0)
(2.02339 -0.247032 0)
(2.09585 -0.33579 0)
(2.2435 -0.346306 0)
(2.45952 0.710425 0)
(1.99735 0.23798 0)
(1.96581 -0.10514 0)
(1.99796 -0.204773 0)
(2.09256 -0.297243 0)
(2.25117 -0.32412 0)
(2.58174 0.703296 0)
(1.93832 0.212154 0)
(1.92432 -0.0671329 0)
(1.98764 -0.164603 0)
(2.08979 -0.2521 0)
(2.25612 -0.292066 0)
(2.62369 0.676797 0)
(1.87633 0.186995 0)
(1.89853 -0.0269115 0)
(1.9887 -0.125166 0)
(2.09803 -0.214063 0)
(2.26782 -0.259324 0)
(2.63107 0.593652 0)
(1.82375 0.156864 0)
(1.87728 0.00657731 0)
(1.99555 -0.089494 0)
(2.11523 -0.178881 0)
(2.288 -0.229041 0)
(2.57693 0.436053 0)
(1.80306 0.132668 0)
(1.8594 0.0274859 0)
(1.99862 -0.0607313 0)
(2.13316 -0.143143 0)
(2.30912 -0.191875 0)
(2.47664 0.224852 0)
(1.78135 0.108636 0)
(1.83675 0.0497171 0)
(1.99241 -0.0312356 0)
(2.14727 -0.11082 0)
(2.33518 -0.160573 0)
(2.32363 0.0722079 0)
(1.70196 0.105268 0)
(1.7868 0.062651 0)
(1.96952 0.000713862 0)
(2.1444 -0.0741163 0)
(2.35249 -0.120853 0)
(2.19163 -0.0153774 0)
(1.53869 0.0845841 0)
(1.7087 0.0446117 0)
(1.92349 0.0179704 0)
(2.1357 -0.0402302 0)
(2.37301 -0.0882419 0)
(2.09189 -0.0391874 0)
(1.37924 0.0468672 0)
(1.63109 0.0356156 0)
(1.86739 0.0114407 0)
(2.11086 -0.0223341 0)
(2.38367 -0.0499441 0)
(2.04985 -0.0344758 0)
(1.30084 0.0276142 0)
(1.58663 0.0263906 0)
(1.83911 0.00908511 0)
(2.10265 -0.00372132 0)
(2.38068 -0.0181403 0)
)
;

boundaryField
{
    inlet
    {
        type            fixedValue;
        value           nonuniform 0();
    }
    outlet
    {
        type            inletOutlet;
        inletValue      uniform (3 0 0);
        value           nonuniform List<vector> 
54
(
(2.07668 -0.320542 0)
(2.07459 -0.324692 0)
(2.09492 -0.333158 0)
(2.13998 -0.358224 0)
(2.18653 -0.375491 0)
(2.21819 -0.384803 0)
(2.22797 -0.392767 0)
(2.23138 -0.386098 0)
(2.24007 -0.369391 0)
(2.2435 -0.346306 0)
(2.25117 -0.32412 0)
(2.25612 -0.292066 0)
(2.26782 -0.259324 0)
(2.288 -0.229041 0)
(2.30912 -0.191875 0)
(2.33518 -0.160573 0)
(2.35249 -0.120853 0)
(2.37301 -0.0882419 0)
(2.38367 -0.0499441 0)
(2.38068 -0.0181403 0)
(1.54888 -0.218268 0)
(1.60794 -0.243384 0)
(1.68384 -0.262178 0)
(1.77604 -0.275565 0)
(1.87773 -0.288502 0)
(1.97607 -0.297777 0)
(2.05247 -0.303876 0)
(2.09526 -0.317196 0)
(2.11763 -0.324845 0)
(2.13277 -0.332907 0)
(2.13735 -0.338238 0)
(2.13345 -0.339611 0)
(2.12825 -0.33934 0)
(2.12433 -0.336324 0)
(2.12145 -0.329776 0)
(2.11522 -0.328487 0)
(2.10818 -0.323967 0)
(2.09925 -0.32685 0)
(2.09035 -0.327061 0)
(2.08243 -0.32843 0)
(1.14068 0.0756858 0)
(0.935473 0.0504926 0)
(0.774819 0.0365852 0)
(0.705524 0.0169953 0)
(0.705073 -0.0145905 0)
(0.773396 -0.0369982 0)
(0.933351 -0.0500438 0)
(1.13854 -0.0762741 0)
(1.31386 -0.0905112 0)
(1.41806 -0.114505 0)
(1.46523 -0.127799 0)
(1.48184 -0.143724 0)
(1.49363 -0.162454 0)
(1.51033 -0.190191 0)
)
;
    }
    triangle
    {
        type            slip;
    }
    top
    {
        type            symmetryPlane;
    }
    bottom
    {
        type            symmetryPlane;
    }
    defaultFaces
    {
        type            empty;
    }
    procBoundary7to2
    {
        type            processor;
        value           nonuniform List<vector> 7((-0.196563 -0.0333436 0) (-0.29547 -0.0233412 0) (-0.328969 -0.00917635 0) (-0.259002 -0.00350053 0) (-0.259002 -0.00350053 0) (-0.207482 -0.00723459 0) (-0.028769 -0.0105557 0));
    }
    procBoundary7to3
    {
        type            processor;
        value           nonuniform List<vector> 8((1.22722 0.00500252 0) (1.23332 0.0221881 0) (1.26842 0.152682 0) (1.31532 0.0921127 0) (0.331791 0.0304241 0) (0.559506 0.0401556 0) (0.654422 0.029226 0) (0.654422 0.029226 0));
    }
    procBoundary7to6
    {
        type            processor;
        value           nonuniform List<vector> 
47
(
(0.325578 -0.0288778 0)
(0.839227 -0.0606608 0)
(1.43041 -0.104388 0)
(1.96938 -0.164913 0)
(2.36066 -0.217613 0)
(2.58114 -0.243163 0)
(2.67596 -0.270933 0)
(2.7106 -0.259803 0)
(2.72023 -0.271234 0)
(2.72019 -0.260204 0)
(2.72105 -0.260302 0)
(2.72424 -0.25638 0)
(2.73319 -0.261358 0)
(2.73729 -0.230555 0)
(2.74034 -0.220151 0)
(2.72394 -0.165169 0)
(2.70703 -0.139886 0)
(2.67849 -0.0689992 0)
(2.66263 -0.0323192 0)
(2.63369 0.0423722 0)
(2.61615 0.088277 0)
(2.58414 0.157285 0)
(2.56986 0.198313 0)
(2.53544 0.260456 0)
(2.51833 0.292169 0)
(2.48508 0.343453 0)
(2.46112 0.372565 0)
(2.40418 0.432583 0)
(2.35188 0.491985 0)
(2.335 0.541554 0)
(2.30669 0.617448 0)
(2.31435 0.658086 0)
(2.35989 0.659818 0)
(2.34013 0.674031 0)
(2.35667 0.690805 0)
(2.43803 0.715316 0)
(2.58158 0.732507 0)
(2.70938 0.642923 0)
(2.80259 0.438843 0)
(2.87746 0.244404 0)
(2.93375 0.121138 0)
(2.96622 0.0614904 0)
(2.98263 0.0347579 0)
(2.99162 0.0198436 0)
(2.99599 0.0115533 0)
(2.99812 0.00642862 0)
(2.99832 0.0019293 0)
)
;
    }
}


// ************************************************************************* //
