/*--------------------------------*- C++ -*----------------------------------*\
  =========                 |
  \\      /  F ield         | OpenFOAM: The Open Source CFD Toolbox
   \\    /   O peration     | Website:  https://openfoam.org
    \\  /    A nd           | Version:  8
     \\/     M anipulation  |
\*---------------------------------------------------------------------------*/
FoamFile
{
    version     2.0;
    format      ascii;
    class       volVectorField;
    location    "1.1";
    object      U;
}
// * * * * * * * * * * * * * * * * * * * * * * * * * * * * * * * * * * * * * //

dimensions      [0 1 -1 0 0 0 0];

internalField   nonuniform List<vector> 
325
(
(0.761519 0.0261229 0)
(0.853097 0.021472 0)
(0.97064 0.137713 0)
(1.13991 0.0765642 0)
(-0.0243205 0.0136919 0)
(0.151093 0.0220272 0)
(0.261193 0.0106107 0)
(0.416611 0.00793274 0)
(0.566076 0.00823223 0)
(0.695507 0.0790928 0)
(0.934662 0.050681 0)
(-0.205988 0.00959407 0)
(-0.0654543 0.0189034 0)
(0.0551713 0.0116194 0)
(0.233366 0.0114993 0)
(0.410305 0.00605815 0)
(0.508317 0.0578161 0)
(0.774243 0.0371851 0)
(-0.258812 0.00684701 0)
(-0.130403 0.0102311 0)
(-0.00523471 0.00378986 0)
(0.178726 0.00322761 0)
(0.361847 0.00208867 0)
(0.432292 0.0225551 0)
(0.705184 0.0157768 0)
(-0.130353 -0.00336594 0)
(-0.004659 -0.00447294 0)
(0.179284 -0.00839425 0)
(0.36218 -0.00473037 0)
(0.431782 -0.0210233 0)
(0.705225 -0.0157946 0)
(-0.0651116 -0.0118152 0)
(0.0591678 -0.00836115 0)
(0.236964 -0.0142105 0)
(0.410054 -0.011613 0)
(0.506328 -0.0576267 0)
(0.773755 -0.0364078 0)
(0.15131 -0.0164417 0)
(0.271151 -0.0106995 0)
(0.425849 -0.0123719 0)
(0.565915 -0.0142442 0)
(0.691673 -0.0781278 0)
(0.93379 -0.0498649 0)
(0.557443 -0.0364714 0)
(0.665711 -0.0280145 0)
(0.776655 -0.0287407 0)
(0.854386 -0.0200842 0)
(0.966285 -0.134987 0)
(1.13892 -0.0754193 0)
(1.10602 -0.0315526 0)
(1.18998 -0.0173292 0)
(1.24359 -0.00790999 0)
(1.23778 -0.0235121 0)
(1.26517 -0.151374 0)
(1.31422 -0.0912947 0)
(1.6795 -0.0558568 0)
(1.71723 -0.039875 0)
(1.71304 -0.0230648 0)
(1.62755 -0.0276593 0)
(1.49864 -0.20589 0)
(1.41864 -0.115127 0)
(2.14114 -0.0577812 0)
(2.12615 -0.0377386 0)
(2.07065 -0.00976231 0)
(1.92654 -0.0250506 0)
(1.63643 -0.218804 0)
(1.46562 -0.126859 0)
(2.42784 -0.0797007 0)
(2.37407 -0.0507915 0)
(2.28689 -0.0136361 0)
(2.10231 -0.0269999 0)
(1.68094 -0.246445 0)
(1.48223 -0.142922 0)
(2.56528 -0.0880396 0)
(2.49498 -0.0643936 0)
(2.39696 -0.0129315 0)
(2.18595 -0.0211796 0)
(1.68716 -0.252466 0)
(1.49315 -0.163671 0)
(2.61517 -0.111139 0)
(2.54551 -0.0780833 0)
(2.45149 -0.0201893 0)
(2.22491 -0.0186494 0)
(1.68297 -0.260542 0)
(1.51043 -0.19095 0)
(2.63504 -0.144339 0)
(2.57114 -0.0938651 0)
(2.48699 -0.0261941 0)
(2.25412 -0.015173 0)
(1.68815 -0.259976 0)
(1.54874 -0.21816 0)
(2.64871 -0.182791 0)
(2.59599 -0.117696 0)
(2.51996 -0.0373238 0)
(2.29016 -0.0114386 0)
(1.70908 -0.261586 0)
(1.60772 -0.242933 0)
(2.66401 -0.212658 0)
(2.62779 -0.135466 0)
(2.55079 -0.0475956 0)
(2.33513 -0.00726254 0)
(1.74975 -0.26347 0)
(1.68377 -0.26222 0)
(2.68384 -0.226362 0)
(2.65133 -0.167715 0)
(2.57573 -0.0508061 0)
(2.38451 -0.00512961 0)
(1.80932 -0.268755 0)
(1.77594 -0.275966 0)
(2.69985 -0.243997 0)
(2.67271 -0.196786 0)
(2.59307 -0.0757827 0)
(2.42529 -0.0141426 0)
(1.88283 -0.277003 0)
(1.8776 -0.288472 0)
(2.71512 -0.255836 0)
(2.68991 -0.222117 0)
(2.59896 -0.105377 0)
(2.44553 -0.0384773 0)
(1.96136 -0.291708 0)
(1.97596 -0.297608 0)
(2.7259 -0.256497 0)
(2.70484 -0.242034 0)
(2.61868 -0.130745 0)
(2.44291 -0.0748533 0)
(2.03312 -0.301165 0)
(2.05239 -0.304035 0)
(2.73045 -0.259443 0)
(2.72016 -0.250836 0)
(2.63775 -0.145114 0)
(2.42641 -0.101321 0)
(2.08253 -0.328351 0)
(2.09525 -0.317414 0)
(2.73504 -0.235924 0)
(2.72796 -0.249074 0)
(2.65545 -0.155 0)
(2.39824 -0.13189 0)
(2.113 -0.330418 0)
(2.11758 -0.324984 0)
(2.74173 -0.21312 0)
(2.7319 -0.239069 0)
(2.67081 -0.170862 0)
(2.36727 -0.167516 0)
(2.12895 -0.34538 0)
(2.13266 -0.332945 0)
(2.74463 -0.181842 0)
(2.73235 -0.231811 0)
(2.67811 -0.191925 0)
(2.34967 -0.203858 0)
(2.13708 -0.367017 0)
(2.13731 -0.338212 0)
(2.74489 -0.151544 0)
(2.72625 -0.227918 0)
(2.6819 -0.213864 0)
(2.33225 -0.250946 0)
(2.14109 -0.386326 0)
(2.13343 -0.339541 0)
(2.73572 -0.114554 0)
(2.71479 -0.22082 0)
(2.68254 -0.235194 0)
(2.31634 -0.296166 0)
(2.14966 -0.401637 0)
(2.12829 -0.339232 0)
(2.72708 -0.0733303 0)
(2.70808 -0.227049 0)
(2.68179 -0.250143 0)
(2.33128 -0.352947 0)
(2.17319 -0.417224 0)
(2.12444 -0.336315 0)
(2.70299 -0.037804 0)
(2.71299 -0.21614 0)
(2.67006 -0.258694 0)
(2.32741 -0.400789 0)
(2.18804 -0.434477 0)
(2.12164 -0.329755 0)
(2.67604 0.00302731 0)
(2.71049 -0.20283 0)
(2.66097 -0.264878 0)
(2.34649 -0.445194 0)
(2.20223 -0.453728 0)
(2.1154 -0.328306 0)
(2.65141 0.0458867 0)
(2.70312 -0.183368 0)
(2.64962 -0.267071 0)
(2.35137 -0.49179 0)
(2.19067 -0.467058 0)
(2.10831 -0.323734 0)
(2.63366 0.0837556 0)
(2.69152 -0.153011 0)
(2.6359 -0.260649 0)
(2.35304 -0.533267 0)
(2.17177 -0.477061 0)
(2.09932 -0.32659 0)
(2.61354 0.130657 0)
(2.68138 -0.123852 0)
(2.62119 -0.262356 0)
(2.3544 -0.568951 0)
(2.15366 -0.478811 0)
(2.09036 -0.327006 0)
(2.59951 0.163534 0)
(2.66805 -0.0945233 0)
(2.60171 -0.249589 0)
(2.34843 -0.597122 0)
(2.13636 -0.479485 0)
(2.08242 -0.328491 0)
(2.54519 0.244008 0)
(2.63018 -0.0398444 0)
(2.56363 -0.247911 0)
(2.31606 -0.6298 0)
(2.1186 -0.490554 0)
(2.07667 -0.320552 0)
(2.50059 0.315194 0)
(2.59215 0.00190904 0)
(2.50842 -0.229083 0)
(2.26023 -0.647823 0)
(2.11176 -0.525215 0)
(2.07455 -0.324569 0)
(2.45592 0.399025 0)
(2.53245 0.0691665 0)
(2.42961 -0.22335 0)
(2.22709 -0.624202 0)
(2.12574 -0.568784 0)
(2.09489 -0.333105 0)
(2.41858 0.472964 0)
(2.46841 0.120395 0)
(2.34946 -0.222023 0)
(2.21866 -0.566568 0)
(2.12823 -0.576764 0)
(2.13995 -0.358176 0)
(2.39653 0.529332 0)
(2.40826 0.16561 0)
(2.2887 -0.208369 0)
(2.21309 -0.537018 0)
(2.12704 -0.557394 0)
(2.18653 -0.375556 0)
(2.3886 0.571406 0)
(2.35421 0.205124 0)
(2.25589 -0.197036 0)
(2.20251 -0.470619 0)
(2.12771 -0.532153 0)
(2.21819 -0.384838 0)
(2.37275 0.621951 0)
(2.2999 0.259123 0)
(2.22871 -0.196032 0)
(2.1699 -0.412261 0)
(2.13743 -0.495763 0)
(2.22796 -0.392812 0)
(2.35592 0.646953 0)
(2.25703 0.276507 0)
(2.17684 -0.197892 0)
(2.11822 -0.347135 0)
(2.12211 -0.43448 0)
(2.23138 -0.386117 0)
(2.33664 0.663568 0)
(2.18641 0.282231 0)
(2.10398 -0.166644 0)
(2.0664 -0.294992 0)
(2.11668 -0.391691 0)
(2.24007 -0.3694 0)
(2.36654 0.684598 0)
(2.07727 0.263926 0)
(2.0324 -0.138733 0)
(2.02339 -0.247037 0)
(2.09584 -0.335793 0)
(2.24349 -0.346312 0)
(2.45949 0.710405 0)
(1.99733 0.237967 0)
(1.96579 -0.105143 0)
(1.99795 -0.204775 0)
(2.09255 -0.297246 0)
(2.25117 -0.324125 0)
(2.58171 0.703274 0)
(1.9383 0.212147 0)
(1.92431 -0.0671388 0)
(1.98763 -0.16461 0)
(2.08978 -0.252099 0)
(2.25611 -0.292059 0)
(2.62365 0.676771 0)
(1.87631 0.186987 0)
(1.89851 -0.0269179 0)
(1.98869 -0.125169 0)
(2.09802 -0.214065 0)
(2.26782 -0.259327 0)
(2.63103 0.593627 0)
(1.82374 0.156857 0)
(1.87727 0.00657065 0)
(1.99555 -0.0894972 0)
(2.11523 -0.178877 0)
(2.288 -0.229035 0)
(2.57687 0.436035 0)
(1.80304 0.13266 0)
(1.8594 0.0274793 0)
(1.99862 -0.0607318 0)
(2.13315 -0.143141 0)
(2.30912 -0.191875 0)
(2.47658 0.224842 0)
(1.78133 0.10863 0)
(1.83675 0.0497121 0)
(1.99241 -0.0312356 0)
(2.14727 -0.110817 0)
(2.33518 -0.16057 0)
(2.32358 0.0721969 0)
(1.70195 0.105262 0)
(1.7868 0.0626485 0)
(1.96953 0.000712871 0)
(2.1444 -0.0741161 0)
(2.35249 -0.120852 0)
(2.19157 -0.0153793 0)
(1.53869 0.0845823 0)
(1.7087 0.0446087 0)
(1.9235 0.0179688 0)
(2.13571 -0.040232 0)
(2.37301 -0.0882402 0)
(2.09182 -0.0391861 0)
(1.37925 0.0468673 0)
(1.6311 0.0356131 0)
(1.8674 0.0114395 0)
(2.11087 -0.0223354 0)
(2.38367 -0.0499439 0)
(2.04978 -0.0344748 0)
(1.30084 0.0276142 0)
(1.58665 0.0263887 0)
(1.83913 0.00908458 0)
(2.10266 -0.00372195 0)
(2.38069 -0.0181424 0)
)
;

boundaryField
{
    inlet
    {
        type            fixedValue;
        value           nonuniform List<vector> 0();
    }
    outlet
    {
        type            inletOutlet;
        inletValue      uniform (3 0 0);
        value           nonuniform List<vector> 
54
(
(2.07667 -0.320552 0)
(2.07455 -0.324569 0)
(2.09489 -0.333105 0)
(2.13995 -0.358176 0)
(2.18653 -0.375556 0)
(2.21819 -0.384838 0)
(2.22796 -0.392812 0)
(2.23138 -0.386117 0)
(2.24007 -0.3694 0)
(2.24349 -0.346312 0)
(2.25117 -0.324125 0)
(2.25611 -0.292059 0)
(2.26782 -0.259327 0)
(2.288 -0.229035 0)
(2.30912 -0.191875 0)
(2.33518 -0.16057 0)
(2.35249 -0.120852 0)
(2.37301 -0.0882402 0)
(2.38367 -0.0499439 0)
(2.38069 -0.0181424 0)
(1.54874 -0.21816 0)
(1.60772 -0.242933 0)
(1.68377 -0.26222 0)
(1.77594 -0.275966 0)
(1.8776 -0.288472 0)
(1.97596 -0.297608 0)
(2.05239 -0.304035 0)
(2.09525 -0.317414 0)
(2.11758 -0.324984 0)
(2.13266 -0.332945 0)
(2.13731 -0.338212 0)
(2.13343 -0.339541 0)
(2.12829 -0.339232 0)
(2.12444 -0.336315 0)
(2.12164 -0.329755 0)
(2.1154 -0.328306 0)
(2.10831 -0.323734 0)
(2.09932 -0.32659 0)
(2.09036 -0.327006 0)
(2.08242 -0.328491 0)
(1.13991 0.0765642 0)
(0.934662 0.050681 0)
(0.774243 0.0371851 0)
(0.705184 0.0157768 0)
(0.705225 -0.0157946 0)
(0.773755 -0.0364078 0)
(0.93379 -0.0498649 0)
(1.13892 -0.0754193 0)
(1.31422 -0.0912947 0)
(1.41864 -0.115127 0)
(1.46562 -0.126859 0)
(1.48223 -0.142922 0)
(1.49315 -0.163671 0)
(1.51043 -0.19095 0)
)
;
    }
    triangle
    {
        type            slip;
    }
    top
    {
        type            symmetryPlane;
    }
    bottom
    {
        type            symmetryPlane;
    }
    defaultFaces
    {
        type            empty;
    }
    procBoundary7to2
    {
        type            processor;
        value           nonuniform List<vector> 7((-0.196086 -0.0337087 0) (-0.295247 -0.023352 0) (-0.328879 -0.0093015 0) (-0.258959 -0.00195767 0) (-0.258959 -0.00195767 0) (-0.207656 -0.00587971 0) (-0.0296676 -0.00927745 0));
    }
    procBoundary7to3
    {
        type            processor;
        value           nonuniform List<vector> 8((1.22632 0.00321333 0) (1.23541 0.0215215 0) (1.26845 0.152672 0) (1.31475 0.0912237 0) (0.333866 0.0316602 0) (0.558006 0.0410593 0) (0.649803 0.0282617 0) (0.649803 0.0282617 0));
    }
    procBoundary7to6
    {
        type            processor;
        value           nonuniform List<vector> 
47
(
(0.323579 -0.0276511 0)
(0.836193 -0.0599533 0)
(1.42715 -0.103531 0)
(1.96699 -0.164318 0)
(2.35953 -0.216903 0)
(2.5807 -0.242467 0)
(2.67574 -0.270325 0)
(2.71053 -0.259409 0)
(2.72018 -0.270997 0)
(2.72014 -0.259977 0)
(2.72104 -0.260069 0)
(2.72431 -0.25619 0)
(2.73326 -0.261231 0)
(2.73734 -0.230436 0)
(2.74038 -0.220137 0)
(2.72394 -0.165025 0)
(2.70704 -0.139886 0)
(2.67845 -0.068853 0)
(2.66261 -0.0322646 0)
(2.63363 0.042492 0)
(2.61611 0.0883175 0)
(2.58409 0.157317 0)
(2.5698 0.198354 0)
(2.53542 0.260457 0)
(2.51829 0.292211 0)
(2.48509 0.343432 0)
(2.4611 0.372598 0)
(2.40421 0.432551 0)
(2.35187 0.492023 0)
(2.33501 0.541553 0)
(2.30669 0.617457 0)
(2.31434 0.658088 0)
(2.35988 0.659819 0)
(2.34012 0.674031 0)
(2.35666 0.690805 0)
(2.43803 0.715318 0)
(2.58158 0.732519 0)
(2.70938 0.642947 0)
(2.80258 0.438873 0)
(2.87746 0.244429 0)
(2.93374 0.121153 0)
(2.96622 0.061498 0)
(2.98263 0.0347622 0)
(2.99162 0.0198463 0)
(2.99599 0.0115546 0)
(2.99812 0.00642929 0)
(2.99832 0.00192933 0)
)
;
    }
}


// ************************************************************************* //
