/*--------------------------------*- C++ -*----------------------------------*\
  =========                 |
  \\      /  F ield         | OpenFOAM: The Open Source CFD Toolbox
   \\    /   O peration     | Website:  https://openfoam.org
    \\  /    A nd           | Version:  8
     \\/     M anipulation  |
\*---------------------------------------------------------------------------*/
FoamFile
{
    version     2.0;
    format      ascii;
    class       volScalarField;
    location    "0.7";
    object      p;
}
// * * * * * * * * * * * * * * * * * * * * * * * * * * * * * * * * * * * * * //

dimensions      [1 -1 -2 0 0 0 0];

internalField   nonuniform List<scalar> 
2600
(
0.523416
0.471474
0.426188
0.434362
0.528792
0.794395
1.02836
1.05055
1.0351
1.01928
0.525095
0.464469
0.422775
0.440373
0.534244
0.798735
1.03371
1.05733
1.03741
1.0201
0.523734
0.461109
0.420816
0.446744
0.536735
0.805721
1.03554
1.06017
1.0378
1.02072
0.525091
0.457985
0.420024
0.45045
0.537462
0.809987
1.03362
1.06
1.03742
1.02145
0.525786
0.455186
0.419665
0.454118
0.538218
0.815687
1.03753
1.06565
1.03963
1.0225
0.527211
0.454438
0.419991
0.454764
0.538725
0.819251
1.0415
1.0677
1.04004
1.02325
0.527942
0.453366
0.419978
0.457407
0.540781
0.82422
1.04399
1.0681
1.04058
1.02398
0.526905
0.455456
0.419704
0.459712
0.542882
0.827621
1.04552
1.06865
1.04111
1.02468
0.526936
0.455214
0.41876
0.460353
0.544351
0.830781
1.04748
1.07033
1.04176
1.0251
0.526013
0.455611
0.419405
0.46121
0.545149
0.830616
1.04604
1.07003
1.0413
1.02533
0.525984
0.455527
0.419823
0.461237
0.545101
0.830609
1.04604
1.07004
1.04131
1.02533
0.526958
0.455296
0.418921
0.460334
0.544314
0.830793
1.04748
1.07035
1.04177
1.0251
0.526995
0.45561
0.419783
0.459703
0.542954
0.827662
1.04552
1.06865
1.04111
1.02468
0.527994
0.45347
0.420016
0.457365
0.540782
0.824254
1.04397
1.06811
1.04058
1.02398
0.527185
0.454345
0.419852
0.45463
0.538748
0.819251
1.04148
1.06771
1.04005
1.02325
0.525708
0.454912
0.419023
0.453896
0.538362
0.815914
1.03762
1.06562
1.03962
1.0225
0.525113
0.458019
0.420145
0.450456
0.537146
0.80961
1.03341
1.05999
1.03742
1.02145
0.523917
0.46118
0.421087
0.447039
0.536798
0.805855
1.03555
1.06025
1.03784
1.02072
0.525127
0.464659
0.422952
0.440746
0.535113
0.799724
1.03399
1.0573
1.03739
1.0201
0.523385
0.471434
0.426057
0.434238
0.528383
0.794306
1.02826
1.05045
1.03506
1.01928
0.612401
0.472402
0.432883
0.42935
0.519274
0.78746
1.02281
1.04686
1.03516
1.01965
0.706278
0.487919
0.447754
0.43077
0.50912
0.781717
1.01856
1.04523
1.03581
1.01972
0.799461
0.511327
0.458958
0.433609
0.499055
0.772799
1.01406
1.04174
1.03321
1.01789
0.87254
0.548054
0.474391
0.437844
0.490598
0.761224
1.00903
1.03686
1.02916
1.01533
0.936689
0.592764
0.491071
0.442274
0.484787
0.747334
1.00355
1.03173
1.02581
1.01358
0.990265
0.637326
0.511462
0.447638
0.481928
0.731262
0.998785
1.02864
1.02422
1.013
1.03645
0.683944
0.534498
0.453959
0.482641
0.714796
0.994899
1.02728
1.02336
1.01279
1.076
0.727967
0.559187
0.460875
0.485182
0.698608
0.990414
1.02552
1.02203
1.01213
1.11007
0.770794
0.586595
0.469424
0.489603
0.683092
0.984165
1.02239
1.01945
1.01055
1.13996
0.810301
0.613782
0.483195
0.493977
0.667609
0.976705
1.01882
1.01619
1.00831
1.16592
0.847156
0.642774
0.502956
0.498082
0.652689
0.968318
1.01588
1.01325
1.00542
1.18886
0.880861
0.672444
0.522978
0.50142
0.638239
0.958467
1.0139
1.01151
1.00422
1.20908
0.911735
0.70207
0.545702
0.507098
0.625827
0.946507
1.01262
1.01142
1.0045
1.22689
0.940094
0.730901
0.569174
0.512902
0.614203
0.931794
1.01192
1.01427
1.00707
1.24278
0.965929
0.758882
0.593631
0.521083
0.606275
0.915961
1.01337
1.02287
1.01504
1.25695
0.990138
0.785338
0.61807
0.5301
0.601729
0.89948
1.01901
1.03754
1.0302
1.26976
1.01243
0.81104
0.642521
0.540386
0.6028
0.883909
1.02818
1.05462
1.048
1.28113
1.03327
0.835604
0.665974
0.551683
0.607029
0.872685
1.03974
1.07108
1.06301
1.29127
1.05241
0.859047
0.689502
0.56254
0.613276
0.86503
1.05155
1.08506
1.07396
1.30036
1.07033
0.881729
0.711624
0.57442
0.62275
0.861905
1.06205
1.09604
1.08118
2.45967
2.34881
2.2729
2.19763
2.12381
2.05105
1.97173
1.88179
1.75159
1.61253
2.30393
2.20141
2.15403
2.09826
2.04233
1.98012
1.90705
1.81584
1.68361
1.50604
2.25973
2.18285
2.14053
2.0868
2.03392
1.97385
1.90167
1.8096
1.6781
1.50361
2.19857
2.13866
2.10174
2.05286
2.00452
1.94553
1.87422
1.78197
1.6543
1.47916
2.14484
2.09646
2.06626
2.02092
1.97489
1.917
1.84773
1.75691
1.63413
1.46105
2.09209
2.05149
2.02547
1.98453
1.94299
1.88798
1.822
1.73355
1.61669
1.44888
2.04422
2.01063
1.98817
1.95111
1.913
1.86039
1.79797
1.7124
1.60175
1.44245
1.99963
1.97162
1.95158
1.91799
1.883
1.83328
1.77483
1.69281
1.58861
1.43963
1.95891
1.93567
1.91792
1.88774
1.85551
1.80854
1.75377
1.67534
1.57736
1.43894
1.92155
1.90221
1.88636
1.85919
1.82941
1.78536
1.73418
1.65963
1.5677
1.43946
1.88773
1.8717
1.85756
1.8331
1.80552
1.76428
1.71635
1.64564
1.55934
1.44054
1.85733
1.84395
1.83121
1.80896
1.78327
1.74475
1.69982
1.63297
1.5521
1.44192
1.83058
1.81914
1.80749
1.78697
1.76284
1.72689
1.68475
1.62179
1.54614
1.44348
1.80765
1.7972
1.7862
1.76692
1.74403
1.71034
1.67075
1.6114
1.54077
1.44489
1.78801
1.77766
1.76686
1.74842
1.7264
1.69446
1.65713
1.60143
1.53607
1.44628
1.77048
1.75962
1.74878
1.73116
1.71011
1.67987
1.64466
1.59243
1.53178
1.44754
1.75433
1.74296
1.73208
1.71543
1.69557
1.66685
1.63313
1.58411
1.52747
1.44856
1.73855
1.72727
1.71605
1.69968
1.68068
1.65372
1.62172
1.57649
1.52342
1.44963
1.72213
1.71291
1.70257
1.68638
1.66776
1.64213
1.61147
1.56964
1.51937
1.4504
1.7035
1.69749
1.68958
1.67417
1.65604
1.63154
1.60198
1.5631
1.5154
1.45119
1.01649
1.08434
1.13634
1.14205
1.13838
1.13077
1.12123
1.11484
1.44572
1.95018
1.01649
1.08434
1.13634
1.14205
1.13838
1.13078
1.12128
1.11451
1.44352
1.94152
1.01649
1.08434
1.13634
1.14205
1.13838
1.13079
1.12132
1.11385
1.44049
1.92864
1.01649
1.08434
1.13634
1.14205
1.13837
1.13079
1.12138
1.1129
1.43632
1.91323
1.01649
1.08434
1.13634
1.14205
1.13837
1.1308
1.12143
1.11174
1.43106
1.89726
1.01649
1.08434
1.13635
1.14205
1.13837
1.13081
1.12149
1.11055
1.42454
1.88037
1.01649
1.08434
1.13635
1.14205
1.13836
1.13082
1.12154
1.10938
1.4167
1.86339
1.01649
1.08434
1.13635
1.14205
1.13836
1.13084
1.12159
1.10855
1.40756
1.84599
1.01649
1.08434
1.13636
1.14204
1.13835
1.13084
1.12163
1.10793
1.3971
1.82856
1.01649
1.08434
1.13636
1.14204
1.13835
1.13085
1.12167
1.10776
1.38537
1.8109
1.01649
1.08434
1.13636
1.14204
1.13834
1.13085
1.1217
1.10782
1.37263
1.79326
1.01649
1.08434
1.13637
1.14204
1.13834
1.13086
1.12172
1.10793
1.35907
1.77553
1.01649
1.08433
1.13638
1.14203
1.13834
1.13086
1.12173
1.10804
1.34485
1.75776
1.01649
1.08433
1.13638
1.14203
1.13834
1.13085
1.12174
1.10815
1.33005
1.74014
1.01649
1.08433
1.13639
1.14202
1.13834
1.13085
1.12175
1.10824
1.31477
1.72261
1.01649
1.08433
1.1364
1.14201
1.13835
1.13084
1.12175
1.10834
1.29914
1.7051
1.01649
1.08433
1.1364
1.142
1.13835
1.13083
1.12175
1.10843
1.28336
1.68788
1.01649
1.08433
1.13641
1.14199
1.13836
1.13082
1.12174
1.10852
1.26758
1.67098
1.01649
1.08433
1.13642
1.14198
1.13837
1.13081
1.12174
1.1086
1.25183
1.65376
1.01649
1.08433
1.13643
1.14196
1.13839
1.13078
1.12175
1.10867
1.23644
1.63693
1.01649
1.08433
1.13643
1.14196
1.13839
1.13078
1.12175
1.10867
1.23644
1.63693
1.01649
1.08433
1.13642
1.14198
1.13837
1.13081
1.12174
1.1086
1.25183
1.65376
1.01649
1.08433
1.13641
1.14199
1.13836
1.13082
1.12174
1.10852
1.26758
1.67098
1.01649
1.08433
1.1364
1.142
1.13835
1.13083
1.12175
1.10843
1.28336
1.68788
1.01649
1.08433
1.1364
1.14201
1.13835
1.13084
1.12175
1.10834
1.29914
1.7051
1.01649
1.08433
1.13639
1.14202
1.13834
1.13085
1.12175
1.10824
1.31477
1.72261
1.01649
1.08433
1.13638
1.14203
1.13834
1.13085
1.12174
1.10815
1.33005
1.74014
1.01649
1.08433
1.13638
1.14203
1.13834
1.13086
1.12173
1.10804
1.34485
1.75776
1.01649
1.08434
1.13637
1.14204
1.13834
1.13086
1.12172
1.10793
1.35907
1.77553
1.01649
1.08434
1.13636
1.14204
1.13834
1.13085
1.1217
1.10782
1.37262
1.79326
1.01649
1.08434
1.13636
1.14204
1.13835
1.13085
1.12167
1.10776
1.38537
1.8109
1.01649
1.08434
1.13636
1.14204
1.13835
1.13084
1.12163
1.10793
1.3971
1.82856
1.01649
1.08434
1.13635
1.14205
1.13836
1.13084
1.12159
1.10855
1.40756
1.84599
1.01649
1.08434
1.13635
1.14205
1.13836
1.13082
1.12154
1.10938
1.4167
1.86339
1.01649
1.08434
1.13635
1.14205
1.13837
1.13081
1.12149
1.11055
1.42454
1.88037
1.01649
1.08434
1.13634
1.14205
1.13837
1.1308
1.12144
1.11174
1.43106
1.89726
1.01649
1.08434
1.13634
1.14205
1.13837
1.13079
1.12137
1.1129
1.43632
1.91323
1.01649
1.08434
1.13634
1.14205
1.13838
1.13078
1.12132
1.11385
1.44049
1.92864
1.01649
1.08434
1.13634
1.14205
1.13838
1.13078
1.12128
1.11451
1.44352
1.94152
1.01649
1.08434
1.13634
1.14205
1.13838
1.13078
1.12124
1.11483
1.44572
1.95018
1.7035
1.69749
1.68958
1.67417
1.65604
1.63154
1.60198
1.5631
1.5154
1.45119
1.72213
1.71291
1.70257
1.68638
1.66776
1.64213
1.61147
1.56964
1.51937
1.4504
1.73855
1.72727
1.71605
1.69968
1.68068
1.65372
1.62172
1.57649
1.52342
1.44963
1.75433
1.74296
1.73208
1.71543
1.69557
1.66685
1.63313
1.58411
1.52747
1.44856
1.77048
1.75962
1.74878
1.73116
1.71011
1.67987
1.64466
1.59243
1.53178
1.44754
1.78801
1.77766
1.76686
1.74842
1.7264
1.69446
1.65713
1.60143
1.53607
1.44629
1.80765
1.7972
1.7862
1.76692
1.74403
1.71034
1.67075
1.6114
1.54077
1.44489
1.83058
1.81914
1.80749
1.78697
1.76284
1.72689
1.68475
1.62179
1.54614
1.44348
1.85733
1.84395
1.83121
1.80896
1.78327
1.74475
1.69982
1.63297
1.55211
1.44192
1.88773
1.8717
1.85756
1.8331
1.80552
1.76428
1.71635
1.64564
1.55934
1.44054
1.92155
1.90221
1.88636
1.85919
1.82941
1.78536
1.73418
1.65963
1.56769
1.43946
1.95891
1.93567
1.91792
1.88774
1.85551
1.80854
1.75377
1.67534
1.57735
1.43894
1.99963
1.97162
1.95158
1.91799
1.883
1.83328
1.77483
1.69281
1.58861
1.43964
2.04422
2.01063
1.98817
1.95111
1.913
1.86039
1.79797
1.7124
1.60175
1.44246
2.09209
2.05149
2.02547
1.98453
1.94299
1.88798
1.822
1.73355
1.61669
1.44887
2.14484
2.09646
2.06626
2.02092
1.97489
1.917
1.84773
1.75691
1.63413
1.46104
2.19857
2.13866
2.10174
2.05286
2.00452
1.94553
1.87422
1.78197
1.6543
1.47915
2.25973
2.18285
2.14053
2.0868
2.03392
1.97385
1.90167
1.8096
1.6781
1.50361
2.30393
2.20141
2.15403
2.09826
2.04233
1.98012
1.90705
1.81584
1.68361
1.50605
2.45967
2.3488
2.2729
2.19763
2.12381
2.05105
1.97173
1.88179
1.75159
1.61254
1.30036
1.07033
0.881728
0.711624
0.574421
0.62275
0.861907
1.06205
1.09604
1.08118
1.29127
1.05241
0.859041
0.689499
0.562542
0.61328
0.865036
1.05155
1.08506
1.07396
1.28113
1.03327
0.835596
0.665968
0.551682
0.607031
0.872686
1.03974
1.07108
1.06301
1.26976
1.01243
0.811036
0.642516
0.540382
0.602794
0.883895
1.02818
1.05462
1.04801
1.25696
0.990134
0.785344
0.61807
0.530092
0.601713
0.89943
1.019
1.03754
1.0302
1.24278
0.965924
0.758898
0.593647
0.521075
0.60623
0.915907
1.01336
1.02287
1.01504
1.22688
0.940094
0.730919
0.569203
0.512909
0.614192
0.931789
1.01191
1.01427
1.00707
1.20907
0.911749
0.702066
0.545732
0.507123
0.625932
0.94658
1.01263
1.01142
1.0045
1.18885
0.880892
0.672414
0.522989
0.501443
0.638431
0.958606
1.01393
1.01151
1.00422
1.16592
0.847185
0.642749
0.502914
0.498074
0.652675
0.968392
1.01593
1.01327
1.00541
1.13996
0.810304
0.613776
0.483095
0.493934
0.66731
0.97663
1.01887
1.01621
1.00831
1.11009
0.770721
0.586661
0.469377
0.489505
0.682697
0.983971
1.0224
1.01947
1.01056
1.07602
0.727866
0.559308
0.460887
0.485184
0.698539
0.990264
1.02547
1.02202
1.01214
1.03645
0.683929
0.53451
0.454056
0.482849
0.715333
0.994978
1.02723
1.02333
1.01279
0.990251
0.637403
0.511383
0.447834
0.481834
0.73169
0.998944
1.02863
1.02419
1.01299
0.936651
0.59288
0.490919
0.442323
0.48496
0.747506
1.00361
1.03177
1.02581
1.01358
0.87248
0.548131
0.474232
0.437605
0.490405
0.760862
1.00886
1.03689
1.02919
1.01533
0.79942
0.511175
0.458967
0.433329
0.498632
0.772205
1.01381
1.04169
1.03323
1.0179
0.706301
0.487748
0.447753
0.430922
0.509317
0.78189
1.0186
1.04517
1.03579
1.01972
0.612429
0.472602
0.43278
0.429868
0.520049
0.788144
1.02316
1.04689
1.03514
1.01964
1.8241
1.69457
1.53151
1.37433
1.22005
1.06636
0.914945
0.819926
0.813772
0.870147
1.7732
1.6879
1.53239
1.37388
1.21897
1.06515
0.917061
0.826228
0.827924
0.870588
1.73556
1.68183
1.53264
1.37195
1.21599
1.06229
0.919565
0.836435
0.836368
0.873878
1.66351
1.66313
1.53208
1.36815
1.21087
1.05765
0.922399
0.847862
0.849064
0.878445
1.57251
1.63108
1.5307
1.36408
1.20457
1.05156
0.92438
0.858367
0.856572
0.881606
1.48808
1.57116
1.51565
1.35967
1.19725
1.0441
0.924392
0.867044
0.8673
0.889114
1.43212
1.49182
1.48804
1.3523
1.18812
1.03525
0.922353
0.874709
0.880046
0.901078
1.40326
1.41078
1.43882
1.33992
1.17612
1.02451
0.918019
0.881809
0.893945
0.915684
1.3898
1.34291
1.3682
1.31259
1.15952
1.01187
0.913053
0.890127
0.909791
0.930927
1.3839
1.29509
1.28337
1.26853
1.13765
0.997973
0.909962
0.900455
0.92731
0.945845
1.38064
1.26544
1.20349
1.2032
1.11217
0.981334
0.907859
0.913349
0.946527
0.960004
1.37718
1.24959
1.14272
1.11937
1.06968
0.96069
0.908435
0.9301
0.966668
0.973399
1.37274
1.23851
1.10518
1.03817
1.01224
0.938098
0.909954
0.953041
0.987419
0.986846
1.36727
1.22687
1.08177
0.971337
0.935057
0.909882
0.909364
0.981289
1.0091
1.00216
1.36059
1.21293
1.06243
0.923838
0.849415
0.870652
0.9076
1.01202
1.03167
1.02003
1.3538
1.19551
1.04268
0.88851
0.772883
0.815582
0.902206
1.03963
1.05616
1.04094
1.3462
1.17534
1.0183
0.856567
0.715592
0.753513
0.894568
1.05797
1.08159
1.0643
1.33719
1.15241
0.988348
0.824073
0.671827
0.699201
0.884733
1.07335
1.0968
1.07961
1.32606
1.12551
0.954745
0.785128
0.634836
0.664289
0.872376
1.07969
1.10602
1.0858
1.31228
1.09503
0.91505
0.743383
0.597863
0.639947
0.863355
1.0734
1.1042
1.08509
1.31228
1.09503
0.915049
0.743382
0.597863
0.639947
0.863354
1.0734
1.1042
1.08509
1.32606
1.12551
0.954744
0.785127
0.634836
0.664289
0.872376
1.07969
1.10602
1.0858
1.33719
1.15241
0.988348
0.824073
0.671827
0.699201
0.884733
1.07335
1.0968
1.07961
1.3462
1.17534
1.0183
0.856567
0.715592
0.753513
0.894568
1.05797
1.08159
1.0643
1.3538
1.19551
1.04268
0.88851
0.772883
0.815582
0.902206
1.03963
1.05616
1.04094
1.36059
1.21293
1.06243
0.923838
0.849415
0.870652
0.9076
1.01202
1.03167
1.02003
1.36727
1.22687
1.08177
0.971337
0.935057
0.909882
0.909364
0.981289
1.0091
1.00216
1.37274
1.23851
1.10518
1.03817
1.01224
0.938098
0.909954
0.953041
0.987419
0.986846
1.37718
1.24959
1.14272
1.11937
1.06968
0.96069
0.908435
0.9301
0.966668
0.973399
1.38064
1.26544
1.20349
1.2032
1.11217
0.981334
0.907859
0.913349
0.946527
0.960004
1.3839
1.29509
1.28337
1.26853
1.13765
0.997973
0.909962
0.900455
0.92731
0.945845
1.3898
1.34291
1.3682
1.31259
1.15952
1.01187
0.913053
0.890127
0.909791
0.930927
1.40326
1.41078
1.43882
1.33992
1.17612
1.02451
0.918019
0.881809
0.893945
0.915684
1.43212
1.49182
1.48804
1.3523
1.18812
1.03525
0.922353
0.874709
0.880046
0.901078
1.48808
1.57116
1.51565
1.35967
1.19725
1.0441
0.924392
0.867044
0.8673
0.889114
1.57251
1.63108
1.5307
1.36408
1.20457
1.05156
0.92438
0.858367
0.856572
0.881606
1.66351
1.66313
1.53208
1.36815
1.21087
1.05765
0.922399
0.847862
0.849064
0.878445
1.73556
1.68183
1.53264
1.37195
1.21599
1.06229
0.919565
0.836435
0.836368
0.873878
1.7732
1.6879
1.53239
1.37388
1.21897
1.06515
0.917061
0.826228
0.827924
0.870588
1.8241
1.69457
1.53151
1.37433
1.22005
1.06636
0.914945
0.819926
0.813772
0.870147
1.68059
1.67221
1.66697
1.65534
1.63964
1.61742
1.58969
1.55414
1.50972
1.45153
1.67193
1.65723
1.64848
1.63567
1.62055
1.60032
1.57507
1.54337
1.50339
1.45207
1.67779
1.65621
1.64216
1.62564
1.60864
1.58819
1.56364
1.53412
1.49782
1.45209
1.68069
1.65532
1.63775
1.61947
1.60021
1.57895
1.5545
1.526
1.49224
1.45102
1.68091
1.65394
1.63516
1.61506
1.59445
1.57262
1.54831
1.52075
1.48851
1.45039
1.67292
1.64722
1.62964
1.60994
1.58958
1.56815
1.54456
1.5178
1.48624
1.45028
1.65574
1.63489
1.6187
1.60159
1.58228
1.56248
1.5407
1.5153
1.48514
1.45121
1.62658
1.61705
1.60352
1.59195
1.57485
1.55613
1.53619
1.51287
1.4847
1.45316
1.58997
1.59455
1.58596
1.58
1.56634
1.54865
1.53007
1.50963
1.4838
1.45328
1.54173
1.56675
1.56834
1.56587
1.5545
1.5395
1.52348
1.50653
1.48325
1.45409
1.48125
1.53809
1.55345
1.55232
1.54244
1.53029
1.51764
1.50299
1.48102
1.45263
1.40311
1.4956
1.53813
1.5417
1.53143
1.52108
1.51217
1.49939
1.47819
1.4498
1.31256
1.41586
1.50838
1.52745
1.5226
1.51469
1.50871
1.49554
1.47423
1.44565
1.23735
1.30296
1.43164
1.49824
1.51276
1.51378
1.50558
1.49132
1.46864
1.44391
1.18552
1.21184
1.30217
1.42601
1.49199
1.51088
1.50353
1.4875
1.46571
1.44786
1.15226
1.1616
1.19579
1.29805
1.42962
1.49206
1.50046
1.48741
1.46866
1.47141
1.13219
1.13711
1.14792
1.18812
1.30128
1.42727
1.49037
1.48515
1.48532
1.54414
1.11996
1.12463
1.13045
1.14144
1.18503
1.29716
1.42786
1.47565
1.54599
1.66057
1.11339
1.11812
1.12312
1.12767
1.13837
1.18305
1.29861
1.45705
1.65827
1.7753
1.10982
1.11442
1.11972
1.12351
1.12665
1.13768
1.19697
1.41801
1.74261
1.8599
1.01649
1.08432
1.13644
1.14194
1.13841
1.13075
1.12177
1.10876
1.21768
1.61719
1.01649
1.08432
1.13646
1.14192
1.13844
1.13068
1.12183
1.10885
1.19503
1.59074
1.01649
1.08432
1.13647
1.14189
1.13848
1.13059
1.12195
1.10888
1.1728
1.5597
1.01649
1.08432
1.13649
1.14186
1.13854
1.13047
1.12212
1.10889
1.15212
1.52603
1.01649
1.08432
1.1365
1.14182
1.1386
1.13032
1.12236
1.10901
1.13436
1.48989
1.01649
1.08432
1.13651
1.14179
1.13867
1.13014
1.1227
1.10864
1.12122
1.45139
1.01649
1.08432
1.13652
1.14176
1.13874
1.12994
1.12307
1.10804
1.11222
1.41244
1.01649
1.08432
1.13653
1.14173
1.13881
1.12974
1.12336
1.1081
1.10674
1.3733
1.01649
1.08432
1.13653
1.14171
1.13888
1.12958
1.12352
1.10842
1.10366
1.33447
1.01649
1.08432
1.13653
1.1417
1.13892
1.12951
1.12355
1.10898
1.10172
1.29692
1.01649
1.08432
1.13652
1.1417
1.13892
1.12953
1.12343
1.10972
1.10037
1.26003
1.01649
1.08432
1.13651
1.14172
1.1389
1.12963
1.12317
1.11063
1.0992
1.22436
1.01649
1.08433
1.13649
1.14175
1.13885
1.12981
1.12278
1.11158
1.09858
1.1924
1.01649
1.08433
1.13647
1.1418
1.13877
1.13005
1.12227
1.11248
1.09847
1.16578
1.01649
1.08433
1.13645
1.14185
1.13867
1.13033
1.12171
1.11332
1.09841
1.14465
1.01649
1.08433
1.13642
1.1419
1.13856
1.13062
1.12117
1.11399
1.09831
1.12818
1.01649
1.08433
1.1364
1.14196
1.13844
1.13088
1.12075
1.11455
1.0977
1.11593
1.01649
1.08433
1.13638
1.14202
1.13832
1.13107
1.12048
1.11497
1.09637
1.10766
1.01649
1.08434
1.13637
1.14205
1.13826
1.13115
1.12033
1.11522
1.09489
1.10423
1.01649
1.08434
1.13636
1.14208
1.13821
1.13124
1.12018
1.11556
1.09356
1.10253
1.01649
1.08434
1.13636
1.14208
1.13821
1.13124
1.12018
1.11556
1.09356
1.10253
1.01649
1.08434
1.13637
1.14205
1.13826
1.13115
1.12033
1.11522
1.09489
1.10423
1.01649
1.08433
1.13638
1.14202
1.13832
1.13107
1.12048
1.11497
1.09637
1.10766
1.01649
1.08433
1.1364
1.14196
1.13844
1.13088
1.12075
1.11455
1.0977
1.11593
1.01649
1.08433
1.13642
1.1419
1.13856
1.13062
1.12117
1.11399
1.09831
1.12818
1.01649
1.08433
1.13645
1.14185
1.13867
1.13033
1.12171
1.11332
1.09841
1.14465
1.01649
1.08433
1.13647
1.1418
1.13877
1.13005
1.12227
1.11248
1.09847
1.16578
1.01649
1.08433
1.13649
1.14175
1.13885
1.12981
1.12278
1.11158
1.09858
1.1924
1.01649
1.08432
1.13651
1.14172
1.1389
1.12963
1.12317
1.11063
1.0992
1.22436
1.01649
1.08432
1.13652
1.1417
1.13892
1.12953
1.12343
1.10972
1.10037
1.26003
1.01649
1.08432
1.13653
1.1417
1.13892
1.12951
1.12355
1.10898
1.10172
1.29692
1.01649
1.08432
1.13653
1.14171
1.13888
1.12958
1.12352
1.10842
1.10366
1.33447
1.01649
1.08432
1.13653
1.14173
1.13881
1.12974
1.12336
1.1081
1.10674
1.3733
1.01649
1.08432
1.13652
1.14176
1.13874
1.12994
1.12307
1.10804
1.11222
1.41244
1.01649
1.08432
1.13651
1.14179
1.13867
1.13014
1.1227
1.10864
1.12122
1.45139
1.01649
1.08432
1.1365
1.14182
1.1386
1.13032
1.12236
1.10901
1.13436
1.48989
1.01649
1.08432
1.13649
1.14186
1.13854
1.13047
1.12212
1.10889
1.15212
1.52603
1.01649
1.08432
1.13647
1.14189
1.13848
1.13059
1.12195
1.10888
1.1728
1.5597
1.01649
1.08432
1.13646
1.14192
1.13844
1.13068
1.12183
1.10885
1.19503
1.59074
1.01649
1.08432
1.13644
1.14194
1.13841
1.13075
1.12177
1.10876
1.21768
1.61719
1.10982
1.11442
1.11972
1.12351
1.12665
1.13768
1.19697
1.41801
1.74261
1.8599
1.11339
1.11812
1.12312
1.12767
1.13837
1.18305
1.29861
1.45705
1.65827
1.7753
1.11996
1.12463
1.13045
1.14144
1.18503
1.29716
1.42786
1.47565
1.54599
1.66057
1.13219
1.13711
1.14792
1.18812
1.30128
1.42727
1.49037
1.48515
1.48532
1.54414
1.15226
1.1616
1.19579
1.29805
1.42962
1.49206
1.50046
1.48741
1.46866
1.47141
1.18552
1.21184
1.30217
1.42601
1.49199
1.51088
1.50353
1.4875
1.46571
1.44786
1.23735
1.30296
1.43164
1.49824
1.51276
1.51378
1.50558
1.49132
1.46864
1.44391
1.31256
1.41586
1.50838
1.52745
1.5226
1.51469
1.50871
1.49554
1.47423
1.44565
1.40311
1.4956
1.53813
1.5417
1.53143
1.52108
1.51217
1.49939
1.47819
1.4498
1.48125
1.53809
1.55345
1.55232
1.54244
1.53029
1.51764
1.50299
1.48102
1.45263
1.54173
1.56675
1.56834
1.56587
1.5545
1.5395
1.52348
1.50653
1.48325
1.45409
1.58997
1.59455
1.58596
1.58
1.56634
1.54865
1.53007
1.50963
1.4838
1.45328
1.62658
1.61705
1.60352
1.59195
1.57485
1.55613
1.53619
1.51287
1.4847
1.45316
1.65574
1.63489
1.6187
1.60159
1.58228
1.56248
1.5407
1.5153
1.48514
1.45121
1.67292
1.64722
1.62964
1.60994
1.58958
1.56815
1.54456
1.5178
1.48624
1.45028
1.68091
1.65394
1.63516
1.61506
1.59445
1.57262
1.54831
1.52075
1.48851
1.45039
1.68069
1.65532
1.63775
1.61947
1.60021
1.57895
1.5545
1.526
1.49224
1.45102
1.67779
1.65621
1.64216
1.62564
1.60864
1.58819
1.56364
1.53412
1.49782
1.45209
1.67193
1.65723
1.64848
1.63567
1.62055
1.60032
1.57507
1.54337
1.50339
1.45207
1.68059
1.67221
1.66697
1.65534
1.63964
1.61742
1.58969
1.55414
1.50972
1.45153
)
;

boundaryField
{
    inlet
    {
        type            fixedValue;
        value           uniform 1;
    }
    outlet
    {
        type            zeroGradient;
    }
    triangle
    {
        type            zeroGradient;
    }
    top
    {
        type            symmetryPlane;
    }
    bottom
    {
        type            symmetryPlane;
    }
    defaultFaces
    {
        type            empty;
    }
}


// ************************************************************************* //
