/*--------------------------------*- C++ -*----------------------------------*\
  =========                 |
  \\      /  F ield         | OpenFOAM: The Open Source CFD Toolbox
   \\    /   O peration     | Website:  https://openfoam.org
    \\  /    A nd           | Version:  8
     \\/     M anipulation  |
\*---------------------------------------------------------------------------*/
FoamFile
{
    version     2.0;
    format      ascii;
    class       volScalarField;
    location    "0.7";
    object      rho;
}
// * * * * * * * * * * * * * * * * * * * * * * * * * * * * * * * * * * * * * //

dimensions      [1 -3 0 0 0 0 0];

internalField   nonuniform List<scalar> 
2600
(
0.721878
0.672208
0.643497
0.689875
0.818475
1.12402
1.37474
1.41017
1.40136
1.40006
0.726983
0.660996
0.626938
0.67673
0.8041
1.11128
1.37182
1.40954
1.39679
1.39644
0.734658
0.66128
0.620502
0.666445
0.784832
1.09538
1.36166
1.40102
1.38628
1.39038
0.742748
0.662587
0.61755
0.655984
0.762583
1.06983
1.3418
1.38343
1.37051
1.38271
0.745462
0.66002
0.613089
0.646694
0.740857
1.04032
1.31913
1.36451
1.35413
1.37524
0.746352
0.655915
0.608135
0.63745
0.724995
1.01406
1.29088
1.33935
1.33698
1.36919
0.745215
0.650819
0.60504
0.63645
0.721247
1.00589
1.26602
1.31758
1.32518
1.36576
0.742022
0.650606
0.604224
0.639904
0.725636
1.00971
1.25389
1.30668
1.31994
1.36441
0.740772
0.649385
0.60367
0.643685
0.732668
1.01795
1.25309
1.30528
1.31908
1.36402
0.73946
0.649541
0.604897
0.646634
0.736971
1.02216
1.25214
1.30487
1.31855
1.36406
0.739422
0.649487
0.605447
0.646658
0.736919
1.02215
1.25215
1.30488
1.31856
1.36406
0.74077
0.649494
0.603983
0.643654
0.732615
1.01796
1.25309
1.30529
1.31909
1.36402
0.742083
0.650728
0.604278
0.639857
0.725682
1.00974
1.25389
1.30668
1.31994
1.36441
0.745248
0.650872
0.604945
0.636355
0.721223
1.00591
1.266
1.31758
1.32518
1.36575
0.74632
0.655789
0.607912
0.637288
0.725003
1.01405
1.29085
1.33937
1.33699
1.36919
0.745382
0.659773
0.612446
0.646488
0.741029
1.04054
1.31923
1.36448
1.35411
1.37524
0.742775
0.662663
0.617721
0.656026
0.762335
1.06953
1.34162
1.38343
1.37051
1.38271
0.734846
0.661356
0.620805
0.66678
0.784956
1.09551
1.36168
1.40109
1.38632
1.39037
0.727017
0.661188
0.62711
0.677172
0.805019
1.11222
1.37207
1.40951
1.39677
1.39643
0.721856
0.672164
0.643315
0.689784
0.818
1.12393
1.37462
1.41008
1.40132
1.40006
0.847373
0.695965
0.675184
0.705912
0.826334
1.13063
1.37567
1.41198
1.40596
1.40334
0.992127
0.749751
0.720536
0.727227
0.82954
1.1352
1.37671
1.41478
1.40994
1.40551
1.1253
0.807512
0.756018
0.743042
0.827195
1.1329
1.37577
1.41449
1.40979
1.40521
1.22579
0.871022
0.789729
0.755278
0.822642
1.12474
1.37266
1.4116
1.40755
1.40387
1.30676
0.937
0.820356
0.765119
0.818857
1.11192
1.3681
1.40763
1.40548
1.40307
1.36884
0.995872
0.851973
0.774816
0.817113
1.09594
1.36385
1.40542
1.4049
1.4033
1.41895
1.05193
0.883114
0.784439
0.818941
1.0796
1.36047
1.40495
1.40498
1.40381
1.46007
1.10228
0.913461
0.793568
0.822635
1.06399
1.35688
1.40434
1.40467
1.40379
1.49451
1.14998
0.94608
0.804286
0.828549
1.04933
1.3522
1.40268
1.40315
1.40275
1.52414
1.19319
0.978141
0.821442
0.83469
1.03456
1.34703
1.40062
1.40092
1.40098
1.54955
1.23284
1.01203
0.845734
0.840792
1.01998
1.34148
1.39893
1.399
1.3986
1.5718
1.26862
1.04617
0.870166
0.845774
1.00538
1.33481
1.39783
1.39818
1.3978
1.59133
1.30102
1.07963
0.897941
0.852912
0.992327
1.32599
1.39712
1.39864
1.39836
1.60857
1.33052
1.11158
0.926444
0.859932
0.979671
1.31399
1.39666
1.40189
1.40119
1.62404
1.35717
1.1421
0.955653
0.869914
0.971001
1.30024
1.39814
1.41101
1.40925
1.63799
1.38193
1.17056
0.984268
0.880928
0.965987
1.28514
1.4037
1.42608
1.42429
1.65069
1.40454
1.19789
1.0124
0.893394
0.967428
1.27042
1.41269
1.44347
1.44188
1.66201
1.42545
1.22369
1.03899
0.906993
0.972575
1.25997
1.42413
1.46021
1.4567
1.67204
1.44443
1.24803
1.06537
0.920078
0.980114
1.25331
1.43606
1.47446
1.4675
1.68089
1.462
1.27139
1.09
0.934476
0.991469
1.25108
1.44715
1.48576
1.47466
2.57003
2.48427
2.42437
2.36558
2.30842
2.25206
2.19005
2.11908
2.01487
1.8865
2.46013
2.38039
2.34238
2.2982
2.25403
2.20479
2.1465
2.07309
1.9651
1.81073
2.43855
2.38031
2.34797
2.30598
2.26381
2.21548
2.15703
2.08207
1.97335
1.82601
2.40102
2.35546
2.32782
2.29013
2.25194
2.20458
2.14658
2.07075
1.96392
1.81536
2.36716
2.32954
2.30661
2.27155
2.23546
2.18927
2.13302
2.05805
1.95458
1.80619
2.33244
2.3004
2.28015
2.24796
2.21508
2.17095
2.11721
2.04391
1.94495
1.79977
2.29983
2.27309
2.25537
2.2258
2.19519
2.15248
2.10119
2.02983
1.93568
1.79701
2.26818
2.2457
2.22973
2.20265
2.1742
2.13339
2.0849
2.01598
1.92685
1.79652
2.23807
2.21926
2.20494
2.18038
2.15394
2.11507
2.0693
2.00301
1.91884
1.79729
2.20909
2.19328
2.18032
2.158
2.1334
2.09676
2.05383
1.99061
1.91147
1.79865
2.18125
2.16805
2.15641
2.13622
2.11337
2.07901
2.03879
1.97883
1.90456
1.80012
2.15469
2.14367
2.13321
2.11487
2.09364
2.06163
2.02406
1.96753
1.89816
1.80163
2.13038
2.121
2.11152
2.09468
2.07485
2.04512
2.01012
1.95718
1.89267
1.80324
2.10956
2.10097
2.09198
2.07613
2.05737
2.02967
1.99707
1.94757
1.88782
1.80486
2.0925
2.0838
2.07477
2.05944
2.04134
2.01517
1.98475
1.93873
1.88395
1.80674
2.07818
2.06882
2.05946
2.04459
2.02724
2.0026
1.97423
1.9315
1.88107
1.80891
2.06553
2.05556
2.04602
2.0319
2.01564
1.99252
1.96567
1.92585
1.87886
1.81122
2.05332
2.04347
2.03383
2.02025
2.0051
1.98376
1.95847
1.92171
1.87741
1.81374
2.04092
2.03312
2.0248
2.01201
1.99763
1.97754
1.9531
1.91864
1.87606
1.81592
2.02756
2.02309
2.01752
2.00584
1.99188
1.97237
1.94821
1.9155
1.87439
1.81777
1.41647
1.48337
1.53372
1.53923
1.5357
1.52837
1.51914
1.51299
1.80929
2.20331
1.41647
1.48337
1.53372
1.53923
1.5357
1.52837
1.51919
1.51268
1.80789
2.19867
1.41647
1.48337
1.53372
1.53923
1.5357
1.52838
1.51922
1.51203
1.80594
2.19321
1.41647
1.48337
1.53372
1.53923
1.5357
1.52839
1.51929
1.51111
1.80293
2.1867
1.41647
1.48337
1.53372
1.53923
1.53569
1.5284
1.51935
1.50998
1.79892
2.17943
1.41647
1.48337
1.53372
1.53923
1.53569
1.52841
1.5194
1.50881
1.79373
2.17061
1.41647
1.48337
1.53373
1.53923
1.53569
1.52842
1.51946
1.50767
1.78732
2.16078
1.41647
1.48337
1.53373
1.53923
1.53568
1.52843
1.5195
1.50685
1.77967
2.14981
1.41647
1.48337
1.53373
1.53923
1.53568
1.52844
1.51954
1.50625
1.77077
2.13826
1.41647
1.48337
1.53374
1.53923
1.53567
1.52844
1.51959
1.50608
1.76068
2.12628
1.41647
1.48336
1.53374
1.53922
1.53567
1.52845
1.51961
1.50614
1.74968
2.11445
1.41647
1.48336
1.53375
1.53922
1.53567
1.52845
1.51963
1.50625
1.73796
2.10288
1.41647
1.48336
1.53375
1.53922
1.53566
1.52845
1.51965
1.50635
1.72561
2.09155
1.41647
1.48336
1.53376
1.53921
1.53567
1.52845
1.51965
1.50645
1.71264
2.08023
1.41647
1.48336
1.53377
1.53921
1.53567
1.52844
1.51966
1.50655
1.69907
2.06835
1.41647
1.48336
1.53377
1.5392
1.53567
1.52843
1.51966
1.50664
1.68502
2.05543
1.41647
1.48336
1.53378
1.53919
1.53568
1.52842
1.51966
1.50673
1.67069
2.04153
1.41647
1.48336
1.53379
1.53918
1.53569
1.52841
1.51965
1.50682
1.65623
2.02675
1.41647
1.48335
1.5338
1.53917
1.5357
1.5284
1.51965
1.5069
1.64171
2.01072
1.41647
1.48335
1.53381
1.53915
1.53571
1.52838
1.51966
1.50697
1.62748
1.99443
1.41647
1.48335
1.53381
1.53915
1.53571
1.52838
1.51966
1.50697
1.62748
1.99443
1.41647
1.48335
1.5338
1.53917
1.5357
1.5284
1.51965
1.5069
1.64171
2.01072
1.41647
1.48336
1.53379
1.53918
1.53569
1.52841
1.51965
1.50682
1.65623
2.02675
1.41647
1.48336
1.53378
1.53919
1.53568
1.52842
1.51966
1.50673
1.67069
2.04153
1.41647
1.48336
1.53377
1.5392
1.53567
1.52843
1.51966
1.50664
1.68502
2.05543
1.41647
1.48336
1.53377
1.53921
1.53567
1.52844
1.51966
1.50655
1.69907
2.06835
1.41647
1.48336
1.53376
1.53921
1.53567
1.52845
1.51965
1.50645
1.71264
2.08023
1.41647
1.48336
1.53375
1.53922
1.53566
1.52845
1.51965
1.50635
1.72561
2.09155
1.41647
1.48336
1.53375
1.53922
1.53567
1.52845
1.51963
1.50625
1.73796
2.10288
1.41647
1.48336
1.53374
1.53922
1.53567
1.52845
1.51961
1.50614
1.74968
2.11445
1.41647
1.48337
1.53374
1.53923
1.53567
1.52844
1.51959
1.50608
1.76068
2.12628
1.41647
1.48337
1.53373
1.53923
1.53568
1.52844
1.51954
1.50625
1.77077
2.13826
1.41647
1.48337
1.53373
1.53923
1.53568
1.52843
1.5195
1.50685
1.77967
2.14981
1.41647
1.48337
1.53373
1.53923
1.53569
1.52842
1.51946
1.50767
1.78732
2.16078
1.41647
1.48337
1.53372
1.53923
1.53569
1.52841
1.5194
1.50881
1.79373
2.17061
1.41647
1.48337
1.53372
1.53923
1.53569
1.5284
1.51935
1.50998
1.79892
2.17943
1.41647
1.48337
1.53372
1.53923
1.5357
1.52839
1.51929
1.51111
1.80293
2.1867
1.41647
1.48337
1.53372
1.53923
1.5357
1.52838
1.51923
1.51203
1.80594
2.19321
1.41647
1.48337
1.53372
1.53923
1.5357
1.52838
1.51918
1.51268
1.80789
2.19867
1.41647
1.48337
1.53372
1.53923
1.5357
1.52838
1.51915
1.51299
1.80929
2.20331
2.02756
2.02309
2.01752
2.00584
1.99188
1.97237
1.94821
1.9155
1.87439
1.81776
2.04092
2.03312
2.0248
2.01201
1.99763
1.97754
1.9531
1.91864
1.87606
1.81592
2.05332
2.04347
2.03383
2.02025
2.0051
1.98376
1.95847
1.92171
1.87741
1.81374
2.06553
2.05556
2.04602
2.0319
2.01564
1.99252
1.96567
1.92585
1.87886
1.81122
2.07818
2.06882
2.05946
2.04459
2.02724
2.0026
1.97423
1.9315
1.88107
1.80891
2.0925
2.0838
2.07477
2.05944
2.04134
2.01517
1.98475
1.93873
1.88395
1.80674
2.10956
2.10097
2.09198
2.07613
2.05737
2.02967
1.99707
1.94757
1.88782
1.80486
2.13038
2.121
2.11152
2.09468
2.07485
2.04512
2.01012
1.95718
1.89267
1.80324
2.15469
2.14367
2.13321
2.11487
2.09364
2.06163
2.02406
1.96753
1.89816
1.80163
2.18125
2.16805
2.15641
2.13622
2.11337
2.07901
2.03879
1.97883
1.90456
1.80012
2.20909
2.19328
2.18032
2.158
2.1334
2.09676
2.05383
1.99061
1.91147
1.79865
2.23807
2.21926
2.20494
2.18038
2.15394
2.11507
2.0693
2.00301
1.91884
1.79729
2.26818
2.2457
2.22973
2.20265
2.1742
2.13339
2.0849
2.01598
1.92685
1.79653
2.29983
2.27309
2.25537
2.2258
2.19519
2.15248
2.10119
2.02983
1.93568
1.79701
2.33244
2.3004
2.28015
2.24796
2.21508
2.17095
2.11721
2.04391
1.94496
1.79976
2.36716
2.32954
2.30661
2.27155
2.23546
2.18927
2.13302
2.05805
1.95458
1.80617
2.40102
2.35546
2.32782
2.29013
2.25194
2.20458
2.14658
2.07075
1.96392
1.81535
2.43855
2.38031
2.34797
2.30598
2.26381
2.21548
2.15703
2.08207
1.97335
1.82601
2.46013
2.38039
2.34238
2.2982
2.25403
2.20479
2.1465
2.07309
1.9651
1.81074
2.57003
2.48427
2.42437
2.36558
2.30842
2.25206
2.19005
2.11908
2.01486
1.88651
1.68089
1.462
1.27139
1.09
0.934477
0.991469
1.25108
1.44715
1.48576
1.47466
1.67205
1.44443
1.24802
1.06537
0.92008
0.980117
1.25332
1.43606
1.47446
1.4675
1.66201
1.42545
1.22368
1.03899
0.906992
0.972577
1.25997
1.42413
1.46021
1.4567
1.65069
1.40454
1.19788
1.01239
0.893389
0.967421
1.27041
1.41269
1.44347
1.44188
1.63799
1.38193
1.17057
0.984268
0.880918
0.965968
1.28509
1.40369
1.42608
1.42429
1.62404
1.35716
1.14212
0.955672
0.869904
0.97095
1.30018
1.39812
1.41101
1.40925
1.60856
1.33052
1.1116
0.926478
0.85994
0.979658
1.31399
1.39665
1.40189
1.40119
1.59132
1.30104
1.07963
0.897977
0.852941
0.992445
1.32606
1.39713
1.39864
1.39836
1.57179
1.26865
1.04613
0.87018
0.845802
1.00559
1.33495
1.39786
1.39818
1.3978
1.54954
1.23287
1.012
0.845683
0.840783
1.01996
1.34155
1.39897
1.39902
1.3986
1.52415
1.19319
0.978134
0.82132
0.834638
1.03423
1.34695
1.40066
1.40095
1.40099
1.49453
1.1499
0.946158
0.804231
0.828435
1.0489
1.35201
1.40269
1.40317
1.40275
1.46009
1.10217
0.913605
0.793587
0.822647
1.06392
1.35673
1.4043
1.40466
1.40379
1.41896
1.05191
0.883132
0.784556
0.819183
1.08019
1.36055
1.4049
1.40495
1.40381
1.36883
0.995952
0.85189
0.775052
0.816981
1.09641
1.36401
1.40541
1.40488
1.4033
1.30672
0.937137
0.820174
0.765185
0.819075
1.11212
1.36816
1.40766
1.40548
1.40307
1.22572
0.871118
0.789513
0.754982
0.822401
1.12434
1.3725
1.41163
1.40758
1.40387
1.12526
0.807341
0.75602
0.742696
0.826705
1.13228
1.37553
1.41445
1.4098
1.40522
0.992159
0.749574
0.720544
0.727433
0.829797
1.1354
1.37676
1.41472
1.40991
1.40551
0.847396
0.696186
0.675101
0.70651
0.82718
1.13127
1.37599
1.41202
1.40595
1.40334
2.14705
2.0369
1.89499
1.75414
1.61158
1.46425
1.3126
1.21372
1.20748
1.26675
2.10411
2.03125
1.89567
1.75363
1.61049
1.46301
1.31474
1.22033
1.22249
1.26728
2.07244
2.02606
1.89575
1.75168
1.60748
1.46007
1.31721
1.23105
1.23137
1.27076
2.01135
2.00982
1.89526
1.74807
1.60235
1.45524
1.31992
1.24307
1.24459
1.27559
1.93264
1.98231
1.89417
1.74425
1.59608
1.44892
1.3216
1.254
1.2524
1.27892
1.85826
1.93052
1.88103
1.74018
1.58894
1.44125
1.32127
1.26296
1.26351
1.28671
1.80834
1.86106
1.85644
1.73354
1.58021
1.43224
1.31887
1.27078
1.27666
1.299
1.78248
1.78868
1.81265
1.72246
1.56875
1.42136
1.31395
1.27796
1.29091
1.31389
1.7702
1.72712
1.74929
1.69753
1.55281
1.40852
1.30835
1.28636
1.30702
1.32936
1.76453
1.68313
1.67185
1.65687
1.53177
1.39433
1.30479
1.29667
1.3247
1.34443
1.76099
1.65522
1.59717
1.59586
1.5074
1.37725
1.30265
1.30916
1.34397
1.35869
1.7569
1.63976
1.53878
1.51632
1.46629
1.35607
1.30313
1.3257
1.36385
1.37211
1.75154
1.62836
1.50183
1.43737
1.40951
1.33303
1.30448
1.34832
1.38433
1.38535
1.74506
1.61607
1.47808
1.37007
1.33202
1.30449
1.30374
1.37574
1.40576
1.40021
1.73768
1.60147
1.45789
1.32079
1.24404
1.26455
1.30153
1.40518
1.4278
1.41747
1.7306
1.5837
1.43702
1.28327
1.16301
1.20709
1.29538
1.43132
1.45132
1.43758
1.72321
1.56361
1.41152
1.24883
1.10013
1.14063
1.28695
1.44837
1.47534
1.45992
1.71488
1.54124
1.3806
1.2135
1.05042
1.08074
1.27659
1.46244
1.48915
1.47426
1.70475
1.5153
1.34618
1.17106
1.00713
1.04088
1.26355
1.46754
1.49727
1.47986
1.69209
1.48595
1.30561
1.12523
0.962942
1.01208
1.2534
1.45989
1.49465
1.4788
1.69209
1.48595
1.30561
1.12523
0.962942
1.01208
1.2534
1.45989
1.49465
1.4788
1.70475
1.5153
1.34617
1.17106
1.00713
1.04088
1.26355
1.46754
1.49727
1.47986
1.71488
1.54124
1.3806
1.2135
1.05042
1.08074
1.27659
1.46244
1.48915
1.47426
1.72321
1.56361
1.41152
1.24883
1.10013
1.14063
1.28695
1.44837
1.47534
1.45992
1.7306
1.5837
1.43702
1.28327
1.16301
1.20709
1.29538
1.43132
1.45132
1.43758
1.73768
1.60147
1.45789
1.32079
1.24404
1.26455
1.30153
1.40518
1.4278
1.41747
1.74506
1.61607
1.47808
1.37007
1.33202
1.30449
1.30374
1.37574
1.40576
1.40021
1.75154
1.62836
1.50183
1.43737
1.40951
1.33303
1.30448
1.34832
1.38433
1.38535
1.7569
1.63976
1.53878
1.51632
1.46629
1.35607
1.30313
1.3257
1.36385
1.37211
1.76099
1.65522
1.59717
1.59586
1.5074
1.37725
1.30265
1.30916
1.34397
1.35869
1.76453
1.68313
1.67185
1.65687
1.53177
1.39433
1.30479
1.29667
1.3247
1.34443
1.7702
1.72712
1.74929
1.69753
1.55281
1.40852
1.30835
1.28636
1.30702
1.32936
1.78248
1.78868
1.81265
1.72246
1.56875
1.42136
1.31395
1.27796
1.29091
1.31389
1.80834
1.86106
1.85644
1.73354
1.58021
1.43224
1.31887
1.27078
1.27666
1.299
1.85826
1.93052
1.88103
1.74018
1.58894
1.44125
1.32127
1.26296
1.26351
1.28671
1.93264
1.98231
1.89417
1.74425
1.59608
1.44892
1.3216
1.254
1.2524
1.27892
2.01135
2.00982
1.89526
1.74807
1.60235
1.45524
1.31992
1.24307
1.24459
1.27559
2.07244
2.02606
1.89575
1.75168
1.60748
1.46007
1.31721
1.23105
1.23137
1.27076
2.10411
2.03125
1.89567
1.75363
1.61049
1.46301
1.31474
1.22033
1.22249
1.26728
2.14705
2.0369
1.89499
1.75414
1.61158
1.46425
1.3126
1.21372
1.20748
1.26675
2.0135
2.0071
2.0037
1.99482
1.98225
1.96385
1.94037
1.90969
1.87072
1.81883
2.01195
1.99948
1.99223
1.98151
1.9687
1.9513
1.92928
1.90134
1.86578
1.81962
2.01889
2.00036
1.98827
1.97398
1.95919
1.94126
1.91957
1.89331
1.86082
1.81957
2.02195
2.00002
1.98471
1.96869
1.95175
1.93298
1.91129
1.88589
1.85566
1.81853
2.02181
1.99854
1.98215
1.96453
1.9464
1.92713
1.9056
1.8811
1.85231
1.8181
2.01456
1.99235
1.97705
1.95985
1.94202
1.9232
1.90241
1.87872
1.85071
1.81855
1.99985
1.98182
1.96776
1.95289
1.93606
1.91875
1.89966
1.87731
1.85068
1.82047
1.97543
1.9672
1.95548
1.94548
1.93063
1.91434
1.89691
1.87646
1.85161
1.82362
1.9448
1.94896
1.94151
1.93641
1.92459
1.9092
1.89297
1.87505
1.85227
1.82515
1.90399
1.92591
1.92753
1.92541
1.91555
1.90249
1.88847
1.87359
1.85303
1.82705
1.8516
1.9019
1.91556
1.9146
1.906
1.89537
1.88428
1.87138
1.85191
1.82651
1.78209
1.86509
1.90277
1.90599
1.89694
1.88783
1.87998
1.86868
1.84984
1.82442
1.69958
1.79396
1.87681
1.89377
1.88946
1.88243
1.87714
1.86544
1.84643
1.82077
1.62969
1.69084
1.80833
1.86796
1.8808
1.88169
1.87441
1.86167
1.84135
1.81911
1.58077
1.60574
1.69017
1.80329
1.86224
1.87905
1.87251
1.85817
1.8386
1.82251
1.54904
1.558
1.59058
1.68635
1.80632
1.86223
1.86961
1.85796
1.84116
1.84344
1.52977
1.53452
1.54493
1.58331
1.68923
1.80418
1.8605
1.85581
1.85583
1.90773
1.51797
1.5225
1.52813
1.53873
1.58036
1.68541
1.80443
1.84722
1.90942
2.0089
1.51162
1.51621
1.52106
1.52547
1.53579
1.57847
1.68655
1.8306
2.0073
2.1066
1.50816
1.51263
1.51777
1.52144
1.52448
1.53511
1.59163
1.79531
2.07976
2.17765
1.41647
1.48335
1.53382
1.53913
1.53573
1.52834
1.51968
1.50706
1.61015
1.97518
1.41647
1.48335
1.53383
1.53911
1.53576
1.52828
1.51973
1.50715
1.58923
1.9504
1.41647
1.48335
1.53385
1.53908
1.5358
1.5282
1.51985
1.50718
1.5685
1.92242
1.41647
1.48335
1.53386
1.53905
1.53586
1.52808
1.52001
1.5072
1.5489
1.89219
1.41647
1.48335
1.53387
1.53902
1.53592
1.52793
1.52024
1.50732
1.53187
1.85949
1.41647
1.48335
1.53388
1.53899
1.53598
1.52776
1.52057
1.50696
1.51917
1.82455
1.41647
1.48335
1.53389
1.53896
1.53605
1.52757
1.52093
1.50639
1.51043
1.78926
1.41647
1.48335
1.5339
1.53893
1.53612
1.52737
1.52121
1.50645
1.50511
1.75389
1.41647
1.48335
1.5339
1.53891
1.53618
1.52721
1.52136
1.50676
1.50211
1.71879
1.41647
1.48335
1.5339
1.5389
1.53622
1.52715
1.52139
1.5073
1.50023
1.68467
1.41647
1.48335
1.53389
1.5389
1.53623
1.52716
1.52128
1.50802
1.49891
1.65077
1.41647
1.48335
1.53388
1.53892
1.5362
1.52726
1.52103
1.50889
1.49778
1.61754
1.41647
1.48335
1.53386
1.53895
1.53615
1.52743
1.52065
1.50982
1.49718
1.58735
1.41647
1.48336
1.53384
1.53899
1.53608
1.52767
1.52016
1.51069
1.49708
1.56199
1.41647
1.48336
1.53382
1.53904
1.53599
1.52795
1.51962
1.51151
1.49702
1.54173
1.41647
1.48336
1.5338
1.53909
1.53588
1.52822
1.51909
1.51215
1.49693
1.52588
1.41647
1.48336
1.53378
1.53915
1.53576
1.52847
1.51869
1.5127
1.49634
1.51405
1.41647
1.48336
1.53376
1.53921
1.53565
1.52866
1.51842
1.5131
1.49504
1.50605
1.41647
1.48336
1.53375
1.53924
1.53559
1.52874
1.51827
1.51334
1.49361
1.50272
1.41647
1.48336
1.53374
1.53926
1.53554
1.52882
1.51812
1.51367
1.49231
1.50106
1.41647
1.48336
1.53374
1.53926
1.53554
1.52882
1.51812
1.51367
1.49231
1.50106
1.41647
1.48336
1.53375
1.53924
1.53559
1.52874
1.51827
1.51334
1.49361
1.50272
1.41647
1.48336
1.53376
1.53921
1.53565
1.52866
1.51842
1.5131
1.49504
1.50605
1.41647
1.48336
1.53378
1.53915
1.53576
1.52847
1.51869
1.5127
1.49634
1.51405
1.41647
1.48336
1.5338
1.53909
1.53588
1.52822
1.51909
1.51215
1.49693
1.52588
1.41647
1.48336
1.53382
1.53904
1.53599
1.52795
1.51962
1.51151
1.49702
1.54173
1.41647
1.48336
1.53384
1.53899
1.53608
1.52767
1.52016
1.51069
1.49708
1.56199
1.41647
1.48335
1.53386
1.53895
1.53615
1.52743
1.52065
1.50982
1.49718
1.58735
1.41647
1.48335
1.53388
1.53892
1.5362
1.52726
1.52103
1.50889
1.49778
1.61754
1.41647
1.48335
1.53389
1.5389
1.53623
1.52716
1.52128
1.50802
1.49891
1.65077
1.41647
1.48335
1.5339
1.5389
1.53622
1.52715
1.52139
1.5073
1.50023
1.68467
1.41647
1.48335
1.5339
1.53891
1.53618
1.52721
1.52136
1.50676
1.50211
1.71879
1.41647
1.48335
1.5339
1.53893
1.53612
1.52737
1.52121
1.50645
1.50511
1.75389
1.41647
1.48335
1.53389
1.53896
1.53605
1.52757
1.52093
1.50639
1.51043
1.78926
1.41647
1.48335
1.53388
1.53899
1.53598
1.52776
1.52057
1.50696
1.51917
1.82455
1.41647
1.48335
1.53387
1.53902
1.53592
1.52793
1.52024
1.50732
1.53187
1.85949
1.41647
1.48335
1.53386
1.53905
1.53586
1.52808
1.52001
1.5072
1.5489
1.89219
1.41647
1.48335
1.53385
1.53908
1.5358
1.5282
1.51985
1.50718
1.5685
1.92242
1.41647
1.48335
1.53383
1.53911
1.53576
1.52828
1.51973
1.50715
1.58923
1.9504
1.41647
1.48335
1.53382
1.53913
1.53573
1.52834
1.51968
1.50706
1.61015
1.97518
1.50816
1.51263
1.51777
1.52144
1.52448
1.53511
1.59163
1.79531
2.07976
2.17765
1.51162
1.51621
1.52106
1.52547
1.53579
1.57847
1.68655
1.8306
2.0073
2.1066
1.51797
1.5225
1.52813
1.53873
1.58036
1.68541
1.80443
1.84722
1.90942
2.0089
1.52977
1.53452
1.54493
1.58331
1.68923
1.80418
1.8605
1.85581
1.85583
1.90773
1.54904
1.558
1.59058
1.68635
1.80632
1.86223
1.86961
1.85796
1.84116
1.84344
1.58077
1.60574
1.69017
1.80329
1.86224
1.87905
1.87251
1.85817
1.8386
1.82251
1.62969
1.69084
1.80833
1.86796
1.8808
1.88169
1.87441
1.86167
1.84135
1.81911
1.69958
1.79396
1.87681
1.89377
1.88946
1.88243
1.87714
1.86544
1.84643
1.82077
1.78209
1.86509
1.90277
1.90599
1.89694
1.88783
1.87998
1.86868
1.84984
1.82442
1.8516
1.9019
1.91556
1.9146
1.906
1.89537
1.88428
1.87138
1.85191
1.82651
1.90399
1.92591
1.92753
1.92541
1.91555
1.90249
1.88847
1.87359
1.85303
1.82705
1.9448
1.94896
1.94151
1.93641
1.92459
1.9092
1.89297
1.87505
1.85227
1.82515
1.97543
1.9672
1.95548
1.94548
1.93063
1.91434
1.89691
1.87646
1.85161
1.82362
1.99985
1.98182
1.96776
1.95289
1.93606
1.91875
1.89966
1.87731
1.85068
1.82047
2.01456
1.99235
1.97705
1.95985
1.94202
1.9232
1.90241
1.87872
1.85071
1.81855
2.02181
1.99854
1.98215
1.96453
1.9464
1.92713
1.9056
1.8811
1.85231
1.8181
2.02195
2.00002
1.98471
1.96869
1.95175
1.93298
1.91129
1.88589
1.85566
1.81853
2.01889
2.00036
1.98827
1.97398
1.95919
1.94126
1.91957
1.89331
1.86082
1.81957
2.01195
1.99948
1.99223
1.98151
1.9687
1.9513
1.92928
1.90134
1.86578
1.81962
2.0135
2.0071
2.0037
1.99482
1.98225
1.96385
1.94037
1.90969
1.87072
1.81883
)
;

boundaryField
{
    inlet
    {
        type            calculated;
        value           uniform 1.40001;
    }
    outlet
    {
        type            calculated;
        value           nonuniform List<scalar> 
100
(
1.47917
1.47997
1.47433
1.45951
1.43706
1.41707
1.39994
1.38514
1.37193
1.35855
1.3443
1.3292
1.3137
1.29875
1.28646
1.27872
1.27541
1.27081
1.2676
1.26729
1.40344
1.40567
1.40542
1.40405
1.40318
1.40336
1.40387
1.40389
1.40289
1.40118
1.39878
1.39794
1.39851
1.40148
1.41001
1.4255
1.44316
1.45778
1.46833
1.47528
1.4002
1.39661
1.39057
1.38297
1.37556
1.36957
1.36618
1.36486
1.3645
1.36454
1.36454
1.3645
1.36486
1.36618
1.36957
1.37556
1.38298
1.39057
1.39661
1.4002
1.47528
1.46833
1.45778
1.44316
1.4255
1.41001
1.40148
1.39851
1.39794
1.39877
1.40118
1.40289
1.40389
1.40387
1.40336
1.40317
1.40405
1.40543
1.40567
1.40344
1.26729
1.2676
1.27081
1.27541
1.27872
1.28646
1.29875
1.3137
1.3292
1.3443
1.35855
1.37193
1.38514
1.39994
1.41707
1.43706
1.45951
1.47433
1.47997
1.47917
)
;
    }
    triangle
    {
        type            calculated;
        value           nonuniform List<scalar> 
40
(
2.57003
2.48427
2.42437
2.36558
2.30842
2.25206
2.19005
2.11908
2.01487
1.8865
0.721878
0.726983
0.734658
0.742748
0.745462
0.746352
0.745215
0.742022
0.740772
0.73946
0.739422
0.74077
0.742083
0.745248
0.74632
0.745382
0.742775
0.734846
0.727017
0.721856
2.57003
2.48427
2.42437
2.36558
2.30842
2.25206
2.19005
2.11908
2.01486
1.88651
)
;
    }
    top
    {
        type            symmetryPlane;
    }
    bottom
    {
        type            symmetryPlane;
    }
    defaultFaces
    {
        type            empty;
    }
}


// ************************************************************************* //
