/*--------------------------------*- C++ -*----------------------------------*\
  =========                 |
  \\      /  F ield         | OpenFOAM: The Open Source CFD Toolbox
   \\    /   O peration     | Website:  https://openfoam.org
    \\  /    A nd           | Version:  8
     \\/     M anipulation  |
\*---------------------------------------------------------------------------*/
FoamFile
{
    version     2.0;
    format      ascii;
    class       volScalarField;
    location    "0.7";
    object      T;
}
// * * * * * * * * * * * * * * * * * * * * * * * * * * * * * * * * * * * * * //

dimensions      [0 0 0 1 0 0 0];

internalField   nonuniform List<scalar> 
2600
(
1.01511
0.981938
0.927224
0.881477
0.904501
0.989443
1.04726
1.04298
1.03409
1.01925
1.01121
0.983756
0.944093
0.911034
0.930164
1.00626
1.05495
1.05018
1.0398
1.02271
0.998057
0.97622
0.949465
0.938477
0.957443
1.0298
1.0647
1.0594
1.04807
1.02779
0.989744
0.967693
0.952208
0.961353
0.986711
1.05996
1.07845
1.0727
1.05975
1.03422
0.987446
0.965519
0.958315
0.983103
1.01708
1.09771
1.10114
1.09338
1.07486
1.04092
0.98894
0.969965
0.966872
0.99878
1.04031
1.13105
1.12955
1.11605
1.08907
1.04628
0.991823
0.975254
0.97179
1.00616
1.0497
1.14716
1.15447
1.13492
1.09934
1.04966
0.994135
0.980074
0.972467
1.00577
1.04741
1.14753
1.16735
1.14497
1.10426
1.05142
0.99587
0.981393
0.971171
1.00126
1.04016
1.14259
1.17028
1.14801
1.10567
1.05214
0.99589
0.982013
0.970693
0.998549
1.03561
1.13766
1.16956
1.14804
1.10562
1.05235
0.995886
0.981914
0.970776
0.998572
1.03559
1.13766
1.16956
1.14805
1.10563
1.05235
0.995915
0.981406
0.97104
1.00127
1.04017
1.14259
1.17028
1.14801
1.10568
1.05214
0.994223
0.98022
0.972562
1.00583
1.04748
1.14755
1.16735
1.14497
1.10426
1.05142
0.991876
0.975399
0.97203
1.00622
1.04974
1.14718
1.15447
1.13492
1.09933
1.04966
0.988934
0.969953
0.966908
0.99874
1.04034
1.13106
1.12955
1.11605
1.08907
1.04628
0.987405
0.965301
0.957854
0.982937
1.01711
1.09778
1.10116
1.09336
1.07485
1.04092
0.989749
0.967653
0.952217
0.961304
0.986453
1.05978
1.07838
1.07269
1.05975
1.03422
0.99815
0.976258
0.949611
0.938627
0.957403
1.02984
1.06469
1.05943
1.04808
1.02779
1.01123
0.983872
0.944227
0.911211
0.930612
1.00665
1.05505
1.05017
1.03979
1.02271
1.01508
0.981917
0.9272
0.881342
0.904326
0.989411
1.04725
1.04295
1.03408
1.01925
1.01179
0.950287
0.89759
0.851511
0.879772
0.975075
1.04091
1.03797
1.03077
1.01722
0.99664
0.911089
0.86999
0.829287
0.859235
0.96407
1.0358
1.03432
1.02852
1.01573
0.994623
0.886502
0.849905
0.816985
0.844636
0.955006
1.03193
1.03108
1.02604
1.01412
0.996548
0.880895
0.840983
0.811601
0.834919
0.947522
1.02913
1.02834
1.02365
1.01254
1.00353
0.885669
0.838053
0.809268
0.828842
0.940956
1.02695
1.02614
1.02182
1.01137
1.01281
0.895958
0.84046
0.808832
0.825714
0.934152
1.02526
1.02467
1.02065
1.01062
1.02261
0.910259
0.847341
0.81019
0.82509
0.926932
1.02381
1.02366
1.01973
1.01004
1.03173
0.924589
0.857032
0.813072
0.825709
0.919232
1.02189
1.02235
1.01863
1.0094
1.03987
0.938375
0.868041
0.817117
0.827286
0.911374
1.01896
1.02044
1.01717
1.00858
1.04711
0.950753
0.8785
0.823522
0.828536
0.903432
1.01512
1.01838
1.01552
1.00761
1.0534
0.962022
0.889188
0.83258
0.829358
0.89587
1.01056
1.01667
1.01398
1.00643
1.05892
0.972088
0.89988
0.841416
0.829998
0.88876
1.00528
1.01547
1.01283
1.0058
1.06371
0.9811
0.910403
0.85082
0.832372
0.882936
0.999341
1.01471
1.01241
1.00568
1.06781
0.989192
0.920549
0.860113
0.835025
0.87773
0.992789
1.01434
1.0129
1.00622
1.07133
0.996417
0.930248
0.869653
0.838611
0.874136
0.986244
1.01472
1.01489
1.00838
1.07433
1.00309
0.93927
0.879132
0.842456
0.872087
0.979877
1.01633
1.01857
1.01264
1.07693
1.00916
0.947886
0.888518
0.84682
0.872337
0.974068
1.01895
1.02286
1.01757
1.07917
1.01482
0.956004
0.897376
0.85156
0.873808
0.96968
1.02213
1.02692
1.02164
1.08118
1.02004
0.963654
0.906074
0.85597
0.876011
0.966275
1.02515
1.03027
1.02457
1.08307
1.02495
0.970928
0.914017
0.86058
0.879355
0.964502
1.02745
1.03279
1.02644
1.33989
1.32367
1.31254
1.30061
1.28805
1.27504
1.26044
1.24324
1.21707
1.19669
1.31111
1.29474
1.28743
1.2782
1.26851
1.25735
1.24383
1.22628
1.19946
1.16443
1.29734
1.28387
1.27632
1.26693
1.25783
1.24732
1.23426
1.2168
1.19054
1.15282
1.28196
1.27115
1.26404
1.25496
1.24618
1.2355
1.22237
1.20476
1.17929
1.14073
1.26852
1.25993
1.25412
1.24554
1.23682
1.22589
1.21275
1.19515
1.17047
1.13249
1.25574
1.24852
1.24363
1.23594
1.22803
1.21752
1.2048
1.18742
1.16371
1.12705
1.2444
1.23835
1.23414
1.22723
1.22004
1.21003
1.19797
1.18107
1.15849
1.12378
1.23425
1.22914
1.22536
1.21908
1.2125
1.20306
1.1918
1.17557
1.15425
1.12188
1.22538
1.2211
1.21776
1.2121
1.20604
1.19711
1.18653
1.17098
1.15085
1.12087
1.21778
1.21421
1.21125
1.20615
1.20052
1.19208
1.18212
1.16722
1.14822
1.12043
1.21161
1.20864
1.20598
1.20135
1.19607
1.18806
1.17859
1.16428
1.14624
1.12035
1.2068
1.20427
1.2018
1.1975
1.19246
1.18482
1.17573
1.16195
1.14477
1.12049
1.20299
1.20075
1.19843
1.19435
1.18948
1.18215
1.17339
1.16009
1.14368
1.12069
1.19964
1.19759
1.19537
1.19149
1.18678
1.17974
1.17124
1.15836
1.14264
1.12078
1.19628
1.19432
1.19224
1.18858
1.18401
1.17719
1.16891
1.15643
1.14148
1.12069
1.19271
1.19077
1.18881
1.18539
1.181
1.17439
1.16629
1.15424
1.14004
1.12033
1.18907
1.1871
1.18519
1.18195
1.17769
1.17118
1.16316
1.15158
1.13817
1.11968
1.18538
1.18337
1.18126
1.17785
1.17349
1.16708
1.15928
1.14851
1.13603
1.11895
1.18132
1.17951
1.17721
1.17342
1.16882
1.16255
1.15512
1.14534
1.13383
1.1182
1.17625
1.17468
1.17244
1.16851
1.16396
1.15808
1.1512
1.14244
1.13187
1.11768
1.00467
1.0234
1.03727
1.03875
1.03779
1.0358
1.03331
1.03158
1.11868
1.23916
1.00467
1.0234
1.03727
1.03875
1.03779
1.0358
1.03332
1.03149
1.11784
1.23626
1.00467
1.0234
1.03727
1.03875
1.03779
1.0358
1.03332
1.03132
1.1167
1.23112
1.00467
1.0234
1.03727
1.03875
1.03779
1.03581
1.03333
1.03107
1.11532
1.22492
1.00467
1.0234
1.03727
1.03875
1.03779
1.03581
1.03335
1.03077
1.11372
1.21874
1.00467
1.0234
1.03727
1.03875
1.03779
1.03581
1.03336
1.03046
1.11185
1.21281
1.00467
1.0234
1.03727
1.03875
1.03778
1.03582
1.03337
1.03016
1.1097
1.20732
1.00467
1.0234
1.03727
1.03875
1.03778
1.03582
1.03338
1.02995
1.10728
1.20215
1.00467
1.0234
1.03728
1.03875
1.03778
1.03582
1.03339
1.02979
1.10458
1.19723
1.00467
1.0234
1.03728
1.03874
1.03778
1.03582
1.0334
1.02974
1.10157
1.19235
1.00467
1.0234
1.03728
1.03874
1.03778
1.03582
1.03341
1.02976
1.0983
1.18734
1.00467
1.0234
1.03728
1.03874
1.03778
1.03582
1.03342
1.02979
1.09479
1.18207
1.00467
1.0234
1.03728
1.03874
1.03778
1.03583
1.03342
1.02982
1.09109
1.17658
1.00467
1.0234
1.03728
1.03874
1.03778
1.03582
1.03342
1.02984
1.08726
1.17113
1.00467
1.0234
1.03728
1.03874
1.03778
1.03582
1.03342
1.02987
1.08335
1.16599
1.00467
1.0234
1.03729
1.03874
1.03778
1.03582
1.03343
1.02989
1.07939
1.16139
1.00467
1.0234
1.03729
1.03873
1.03778
1.03582
1.03342
1.02992
1.07543
1.15748
1.00467
1.0234
1.03729
1.03873
1.03778
1.03582
1.03342
1.02994
1.07148
1.15425
1.00467
1.0234
1.03729
1.03873
1.03779
1.03581
1.03342
1.02996
1.06753
1.15146
1.00467
1.0234
1.03729
1.03872
1.03779
1.03581
1.03343
1.02998
1.06363
1.14905
1.00467
1.0234
1.03729
1.03872
1.03779
1.03581
1.03343
1.02998
1.06363
1.14905
1.00467
1.0234
1.03729
1.03873
1.03779
1.03581
1.03342
1.02996
1.06753
1.15146
1.00467
1.0234
1.03729
1.03873
1.03778
1.03582
1.03342
1.02994
1.07148
1.15425
1.00467
1.0234
1.03729
1.03873
1.03778
1.03582
1.03342
1.02992
1.07543
1.15748
1.00467
1.0234
1.03729
1.03874
1.03778
1.03582
1.03343
1.02989
1.07939
1.16139
1.00467
1.0234
1.03728
1.03874
1.03778
1.03582
1.03342
1.02987
1.08335
1.16599
1.00467
1.0234
1.03728
1.03874
1.03778
1.03582
1.03342
1.02984
1.08726
1.17113
1.00467
1.0234
1.03728
1.03874
1.03778
1.03583
1.03342
1.02982
1.09109
1.17658
1.00467
1.0234
1.03728
1.03874
1.03778
1.03582
1.03342
1.02979
1.09479
1.18207
1.00467
1.0234
1.03728
1.03874
1.03778
1.03582
1.03341
1.02976
1.0983
1.18734
1.00467
1.0234
1.03728
1.03874
1.03778
1.03582
1.0334
1.02974
1.10157
1.19235
1.00467
1.0234
1.03728
1.03875
1.03778
1.03582
1.03339
1.02979
1.10458
1.19723
1.00467
1.0234
1.03727
1.03875
1.03778
1.03582
1.03338
1.02995
1.10728
1.20215
1.00467
1.0234
1.03727
1.03875
1.03778
1.03582
1.03337
1.03016
1.1097
1.20732
1.00467
1.0234
1.03727
1.03875
1.03779
1.03581
1.03336
1.03046
1.11185
1.21281
1.00467
1.0234
1.03727
1.03875
1.03779
1.03581
1.03335
1.03077
1.11372
1.21874
1.00467
1.0234
1.03727
1.03875
1.03779
1.03581
1.03333
1.03107
1.11532
1.22492
1.00467
1.0234
1.03727
1.03875
1.03779
1.0358
1.03332
1.03132
1.1167
1.23112
1.00467
1.0234
1.03727
1.03875
1.03779
1.0358
1.03331
1.03149
1.11784
1.23626
1.00467
1.0234
1.03727
1.03875
1.03779
1.0358
1.03331
1.03158
1.11868
1.23916
1.17625
1.17468
1.17244
1.16851
1.16396
1.15808
1.1512
1.14244
1.13187
1.11768
1.18132
1.17951
1.17721
1.17342
1.16882
1.16255
1.15512
1.14534
1.13383
1.1182
1.18538
1.18337
1.18126
1.17785
1.17349
1.16708
1.15928
1.14851
1.13603
1.11895
1.18907
1.1871
1.18519
1.18195
1.17769
1.17118
1.16316
1.15158
1.13817
1.11968
1.19271
1.19077
1.18881
1.18539
1.181
1.17439
1.16629
1.15424
1.14004
1.12033
1.19628
1.19432
1.19224
1.18858
1.18401
1.17719
1.16891
1.15643
1.14148
1.12069
1.19964
1.19759
1.19537
1.19149
1.18678
1.17974
1.17124
1.15836
1.14264
1.12079
1.20299
1.20075
1.19843
1.19435
1.18948
1.18215
1.17339
1.16009
1.14368
1.12069
1.2068
1.20427
1.2018
1.1975
1.19246
1.18482
1.17573
1.16195
1.14477
1.12049
1.21161
1.20864
1.20598
1.20135
1.19607
1.18806
1.17859
1.16428
1.14624
1.12035
1.21778
1.21421
1.21125
1.20615
1.20052
1.19208
1.18212
1.16722
1.14822
1.12043
1.22538
1.2211
1.21776
1.2121
1.20604
1.19711
1.18653
1.17098
1.15085
1.12087
1.23425
1.22914
1.22536
1.21908
1.2125
1.20306
1.1918
1.17557
1.15425
1.12188
1.2444
1.23835
1.23414
1.22723
1.22004
1.21003
1.19797
1.18107
1.15849
1.12378
1.25574
1.24852
1.24363
1.23594
1.22803
1.21752
1.2048
1.18742
1.16372
1.12705
1.26852
1.25993
1.25412
1.24554
1.23682
1.22589
1.21275
1.19515
1.17048
1.13248
1.28196
1.27115
1.26404
1.25496
1.24618
1.2355
1.22237
1.20476
1.17929
1.14073
1.29734
1.28387
1.27632
1.26693
1.25783
1.24732
1.23426
1.2168
1.19054
1.15282
1.31111
1.29474
1.28743
1.2782
1.26851
1.25735
1.24383
1.22628
1.19946
1.16443
1.33989
1.32367
1.31254
1.30061
1.28805
1.27504
1.26044
1.24324
1.21707
1.19669
1.08307
1.02495
0.970927
0.914017
0.86058
0.879355
0.964503
1.02745
1.03279
1.02644
1.08118
1.02004
0.963652
0.906073
0.855971
0.876012
0.966277
1.02515
1.03027
1.02457
1.07917
1.01482
0.956002
0.897374
0.85156
0.873809
0.96968
1.02213
1.02692
1.02164
1.07693
1.00916
0.947884
0.888516
0.846818
0.872335
0.974063
1.01895
1.02286
1.01757
1.07433
1.00308
0.939273
0.879132
0.842452
0.87208
0.979862
1.01633
1.01857
1.01264
1.07133
0.996415
0.930253
0.869659
0.838607
0.874118
0.986227
1.01472
1.01489
1.00838
1.06781
0.989192
0.920555
0.860125
0.835029
0.877726
0.992787
1.01434
1.0129
1.00622
1.06371
0.981104
0.910402
0.850832
0.832384
0.882978
0.999363
1.01471
1.01241
1.00568
1.05892
0.972097
0.899869
0.841421
0.830009
0.888837
1.00532
1.01548
1.01283
1.0058
1.0534
0.962031
0.88918
0.83256
0.829352
0.895866
1.01058
1.01668
1.01398
1.00643
1.04711
0.950753
0.878498
0.823474
0.828515
0.903317
1.0151
1.01839
1.01553
1.00761
1.03988
0.93835
0.868067
0.817091
0.827233
0.91122
1.0189
1.02044
1.01717
1.00858
1.03174
0.924554
0.857082
0.813073
0.8257
0.919202
1.02185
1.02233
1.01863
1.00941
1.02261
0.910257
0.847344
0.810243
0.825201
0.927128
1.02383
1.02365
1.01973
1.01004
1.01281
0.895994
0.840412
0.808938
0.825686
0.934299
1.02531
1.02467
1.02064
1.01062
1.00351
0.885714
0.837979
0.809287
0.828918
0.941008
1.02697
1.02615
1.02182
1.01136
0.996534
0.880922
0.840932
0.811475
0.834836
0.947412
1.02908
1.02835
1.02365
1.01254
0.994611
0.886426
0.849919
0.816839
0.844421
0.95479
1.03185
1.03106
1.02605
1.01412
0.996639
0.910983
0.869976
0.829345
0.859301
0.964107
1.0358
1.03429
1.02851
1.01573
1.01181
0.950385
0.897486
0.851818
0.880185
0.975365
1.04101
1.03799
1.03077
1.01722
1.18942
1.16471
1.13147
1.09687
1.05988
1.01958
0.975867
0.94577
0.943521
0.961682
1.17983
1.16336
1.13172
1.09683
1.05966
1.01927
0.976536
0.947876
0.948147
0.961769
1.17243
1.16214
1.13185
1.09651
1.05904
1.01859
0.977369
0.951231
0.950905
0.962755
1.15789
1.15851
1.13173
1.09573
1.05796
1.0175
0.978368
0.9549
0.955091
0.964121
1.13913
1.15195
1.13136
1.09487
1.05659
1.01606
0.979219
0.958309
0.957521
0.965075
1.12111
1.1394
1.12806
1.09388
1.05489
1.01422
0.979475
0.961131
0.960992
0.9674
1.10874
1.12224
1.12219
1.09211
1.05263
1.01195
0.979095
0.963657
0.96507
0.971146
1.10216
1.10423
1.11128
1.08909
1.0496
1.00912
0.978141
0.966018
0.969495
0.975697
1.09915
1.08856
1.095
1.08253
1.04542
1.00575
0.977013
0.968763
0.974515
0.980402
1.09801
1.07724
1.07469
1.07186
1.03979
1.00204
0.976363
0.972213
0.980025
0.984945
1.09762
1.07033
1.05492
1.05553
1.03293
0.99755
0.975707
0.976726
0.985992
0.989192
1.09742
1.06688
1.03966
1.03351
1.02133
0.991817
0.975971
0.982228
0.992293
0.993188
1.09723
1.06483
1.03025
1.01119
1.00541
0.985227
0.976585
0.989578
0.998599
0.997287
1.09691
1.06284
1.02462
0.992559
0.982783
0.976502
0.976506
0.998599
1.00497
1.00201
1.09619
1.06034
1.02025
0.979248
0.955903
0.963913
0.976269
1.00829
1.01159
1.00746
1.09518
1.05684
1.01583
0.969338
0.930382
0.945928
0.975073
1.01689
1.01882
1.01373
1.09371
1.05236
1.00999
0.960259
0.910649
0.92486
0.973155
1.02264
1.02636
1.02062
1.09166
1.0468
1.00224
0.950724
0.895415
0.905759
0.970269
1.02753
1.03115
1.02524
1.08901
1.03987
0.992922
0.938618
0.882486
0.893481
0.96659
1.03
1.03417
1.02722
1.08576
1.03169
0.98121
0.924914
0.869223
0.885238
0.964336
1.02937
1.03428
1.02727
1.08576
1.03169
0.98121
0.924913
0.869223
0.885238
0.964336
1.02937
1.03428
1.02727
1.08901
1.03987
0.992922
0.938618
0.882486
0.893481
0.96659
1.03
1.03417
1.02722
1.09166
1.0468
1.00224
0.950724
0.895415
0.905759
0.970269
1.02753
1.03115
1.02524
1.09371
1.05236
1.00999
0.960259
0.910649
0.92486
0.973155
1.02264
1.02636
1.02062
1.09518
1.05684
1.01583
0.969338
0.930382
0.945928
0.975073
1.01689
1.01882
1.01373
1.09619
1.06034
1.02025
0.979248
0.955903
0.963913
0.976269
1.00829
1.01159
1.00746
1.09691
1.06284
1.02462
0.992559
0.982783
0.976502
0.976506
0.998599
1.00497
1.00201
1.09723
1.06483
1.03025
1.01119
1.00541
0.985227
0.976585
0.989578
0.998599
0.997287
1.09742
1.06688
1.03966
1.03351
1.02133
0.991817
0.975971
0.982228
0.992293
0.993188
1.09762
1.07033
1.05492
1.05553
1.03293
0.99755
0.975707
0.976726
0.985992
0.989192
1.09801
1.07724
1.07469
1.07186
1.03979
1.00204
0.976363
0.972213
0.980025
0.984945
1.09915
1.08856
1.095
1.08253
1.04542
1.00575
0.977013
0.968763
0.974515
0.980402
1.10216
1.10423
1.11128
1.08909
1.0496
1.00912
0.978141
0.966018
0.969495
0.975697
1.10874
1.12224
1.12219
1.09211
1.05263
1.01195
0.979095
0.963657
0.96507
0.971146
1.12111
1.1394
1.12806
1.09388
1.05489
1.01422
0.979475
0.961131
0.960992
0.9674
1.13913
1.15195
1.13136
1.09487
1.05659
1.01606
0.979219
0.958309
0.957521
0.965075
1.15789
1.15851
1.13173
1.09573
1.05796
1.0175
0.978368
0.9549
0.955091
0.964121
1.17243
1.16214
1.13185
1.09651
1.05904
1.01859
0.977369
0.951231
0.950905
0.962755
1.17983
1.16336
1.13172
1.09683
1.05966
1.01927
0.976536
0.947876
0.948147
0.961769
1.18942
1.16471
1.13147
1.09687
1.05988
1.01958
0.975867
0.94577
0.943521
0.961682
1.16853
1.16641
1.16473
1.16175
1.15803
1.15304
1.14699
1.13935
1.12984
1.11728
1.1634
1.16036
1.15844
1.15566
1.15242
1.14819
1.14297
1.13643
1.12808
1.11721
1.16347
1.15914
1.1563
1.15295
1.14951
1.14537
1.14041
1.1344
1.1269
1.11725
1.16372
1.15872
1.15526
1.15166
1.14784
1.14359
1.13866
1.13284
1.12582
1.11708
1.16395
1.15861
1.15493
1.15096
1.14686
1.14246
1.13751
1.13182
1.12504
1.11685
1.16259
1.15749
1.15399
1.15005
1.14593
1.14155
1.13666
1.13105
1.12429
1.11649
1.15911
1.15493
1.15166
1.14816
1.14418
1.14005
1.13546
1.13004
1.12348
1.11603
1.15278
1.15082
1.14802
1.1456
1.142
1.13804
1.13378
1.12874
1.12258
1.1156
1.14457
1.14542
1.14362
1.14232
1.1394
1.13562
1.13161
1.12717
1.12151
1.11475
1.13363
1.13891
1.13912
1.13857
1.13613
1.13289
1.12942
1.12573
1.12063
1.11422
1.11998
1.1322
1.13535
1.13509
1.13297
1.13034
1.1276
1.12441
1.11962
1.11343
1.10228
1.12266
1.13171
1.13243
1.13025
1.12803
1.1261
1.12333
1.11874
1.11253
1.0812
1.10494
1.12517
1.1292
1.12818
1.12651
1.12522
1.12239
1.11779
1.11157
1.06297
1.07884
1.10837
1.12291
1.12605
1.12627
1.12452
1.12149
1.11663
1.11125
1.04995
1.05658
1.07862
1.1071
1.12165
1.1257
1.12413
1.12073
1.11607
1.11221
1.0414
1.0438
1.05252
1.07764
1.10804
1.12172
1.12357
1.12079
1.11675
1.11747
1.03615
1.03743
1.04023
1.05057
1.07848
1.10753
1.12149
1.12039
1.1205
1.13319
1.03292
1.03415
1.03567
1.03853
1.04979
1.0775
1.10783
1.1184
1.13353
1.15726
1.03118
1.03242
1.03374
1.03493
1.03772
1.04929
1.07797
1.11432
1.15657
1.17983
1.03023
1.03144
1.03284
1.03383
1.03466
1.03755
1.05287
1.10578
1.17305
1.19573
1.00467
1.0234
1.0373
1.03872
1.0378
1.0358
1.03343
1.03
1.05876
1.14626
1.00467
1.0234
1.0373
1.03871
1.03781
1.03578
1.03345
1.03002
1.05274
1.14184
1.00467
1.0234
1.03731
1.0387
1.03782
1.03575
1.03348
1.03002
1.04682
1.13585
1.00467
1.0234
1.03731
1.0387
1.03783
1.03572
1.03353
1.03003
1.04136
1.12909
1.00467
1.0234
1.03731
1.03869
1.03785
1.03568
1.03359
1.03006
1.03672
1.12173
1.00467
1.0234
1.03732
1.03868
1.03787
1.03564
1.03368
1.02995
1.03328
1.11368
1.00467
1.0234
1.03732
1.03867
1.03788
1.03558
1.03378
1.02979
1.03091
1.10517
1.00467
1.0234
1.03732
1.03866
1.0379
1.03553
1.03385
1.0298
1.02946
1.0962
1.00467
1.0234
1.03732
1.03866
1.03792
1.03549
1.0339
1.02989
1.02864
1.08696
1.00467
1.0234
1.03732
1.03866
1.03793
1.03547
1.0339
1.03004
1.02812
1.07777
1.00467
1.0234
1.03732
1.03866
1.03793
1.03548
1.03387
1.03024
1.02776
1.06862
1.00467
1.0234
1.03731
1.03866
1.03793
1.0355
1.0338
1.03048
1.02744
1.05971
1.00467
1.0234
1.03731
1.03867
1.03791
1.03555
1.0337
1.03073
1.02728
1.05166
1.00467
1.0234
1.0373
1.03868
1.03789
1.03561
1.03357
1.03097
1.02725
1.04488
1.00467
1.0234
1.0373
1.03869
1.03787
1.03569
1.03342
1.03119
1.02723
1.03942
1.00467
1.0234
1.03729
1.03871
1.03784
1.03576
1.03328
1.03137
1.0272
1.03511
1.00467
1.0234
1.03729
1.03872
1.03781
1.03583
1.03317
1.03152
1.02703
1.03187
1.00467
1.0234
1.03728
1.03874
1.03778
1.03588
1.0331
1.03163
1.02667
1.02967
1.00467
1.0234
1.03728
1.03875
1.03776
1.0359
1.03306
1.0317
1.02628
1.02876
1.00467
1.0234
1.03728
1.03875
1.03774
1.03592
1.03302
1.03179
1.02592
1.0283
1.00467
1.0234
1.03728
1.03875
1.03774
1.03592
1.03302
1.03179
1.02592
1.0283
1.00467
1.0234
1.03728
1.03875
1.03776
1.0359
1.03306
1.0317
1.02628
1.02876
1.00467
1.0234
1.03728
1.03874
1.03778
1.03588
1.0331
1.03163
1.02667
1.02967
1.00467
1.0234
1.03729
1.03872
1.03781
1.03583
1.03317
1.03152
1.02703
1.03187
1.00467
1.0234
1.03729
1.03871
1.03784
1.03576
1.03328
1.03137
1.0272
1.03511
1.00467
1.0234
1.0373
1.03869
1.03787
1.03569
1.03342
1.03119
1.02723
1.03942
1.00467
1.0234
1.0373
1.03868
1.03789
1.03561
1.03357
1.03097
1.02725
1.04488
1.00467
1.0234
1.03731
1.03867
1.03791
1.03555
1.0337
1.03073
1.02728
1.05166
1.00467
1.0234
1.03731
1.03866
1.03793
1.0355
1.0338
1.03048
1.02744
1.05971
1.00467
1.0234
1.03732
1.03866
1.03793
1.03548
1.03387
1.03024
1.02776
1.06862
1.00467
1.0234
1.03732
1.03866
1.03793
1.03547
1.0339
1.03004
1.02812
1.07777
1.00467
1.0234
1.03732
1.03866
1.03792
1.03549
1.0339
1.02989
1.02864
1.08696
1.00467
1.0234
1.03732
1.03866
1.0379
1.03553
1.03385
1.0298
1.02946
1.0962
1.00467
1.0234
1.03732
1.03867
1.03788
1.03558
1.03378
1.02979
1.03091
1.10517
1.00467
1.0234
1.03732
1.03868
1.03787
1.03564
1.03368
1.02995
1.03328
1.11368
1.00467
1.0234
1.03731
1.03869
1.03785
1.03568
1.03359
1.03006
1.03672
1.12173
1.00467
1.0234
1.03731
1.0387
1.03783
1.03572
1.03353
1.03003
1.04136
1.12909
1.00467
1.0234
1.03731
1.0387
1.03782
1.03575
1.03348
1.03002
1.04682
1.13585
1.00467
1.0234
1.0373
1.03871
1.03781
1.03578
1.03345
1.03002
1.05274
1.14184
1.00467
1.0234
1.0373
1.03872
1.0378
1.0358
1.03343
1.03
1.05876
1.14626
1.03023
1.03144
1.03284
1.03383
1.03466
1.03755
1.05287
1.10578
1.17305
1.19573
1.03118
1.03242
1.03374
1.03493
1.03772
1.04929
1.07797
1.11432
1.15657
1.17983
1.03292
1.03415
1.03567
1.03853
1.04979
1.0775
1.10783
1.1184
1.13353
1.15726
1.03615
1.03743
1.04023
1.05057
1.07848
1.10753
1.12149
1.12039
1.1205
1.13319
1.0414
1.0438
1.05252
1.07764
1.10804
1.12172
1.12357
1.12079
1.11675
1.11747
1.04995
1.05658
1.07862
1.1071
1.12165
1.1257
1.12413
1.12073
1.11607
1.11221
1.06297
1.07884
1.10837
1.12291
1.12605
1.12627
1.12452
1.12149
1.11663
1.11125
1.0812
1.10494
1.12517
1.1292
1.12818
1.12651
1.12522
1.12239
1.11779
1.11157
1.10228
1.12266
1.13171
1.13243
1.13025
1.12803
1.1261
1.12333
1.11874
1.11253
1.11998
1.1322
1.13535
1.13509
1.13297
1.13034
1.1276
1.12441
1.11962
1.11343
1.13363
1.13891
1.13912
1.13857
1.13613
1.13289
1.12942
1.12573
1.12063
1.11422
1.14457
1.14542
1.14362
1.14232
1.1394
1.13562
1.13161
1.12717
1.12151
1.11475
1.15278
1.15082
1.14802
1.1456
1.142
1.13804
1.13378
1.12874
1.12258
1.1156
1.15911
1.15493
1.15166
1.14816
1.14418
1.14005
1.13546
1.13004
1.12348
1.11603
1.16259
1.15749
1.15399
1.15005
1.14593
1.14155
1.13666
1.13105
1.12429
1.11649
1.16395
1.15861
1.15493
1.15096
1.14686
1.14246
1.13751
1.13182
1.12504
1.11685
1.16372
1.15872
1.15526
1.15166
1.14784
1.14359
1.13866
1.13284
1.12582
1.11708
1.16347
1.15914
1.1563
1.15295
1.14951
1.14537
1.14041
1.1344
1.1269
1.11725
1.1634
1.16036
1.15844
1.15566
1.15242
1.14819
1.14297
1.13643
1.12808
1.11721
1.16853
1.16641
1.16473
1.16175
1.15803
1.15304
1.14699
1.13935
1.12984
1.11728
)
;

boundaryField
{
    inlet
    {
        type            fixedValue;
        value           uniform 1;
    }
    outlet
    {
        type            inletOutlet;
        inletValue      uniform 1;
        value           nonuniform List<scalar> 
100
(
1.02702
1.02713
1.02519
1.0209
1.0141
1.00774
1.00221
0.997438
0.99332
0.989299
0.985041
0.980513
0.975844
0.971332
0.967591
0.965223
0.964264
0.962719
0.961523
0.961274
1.01715
1.01561
1.01397
1.01241
1.01129
1.01058
1.01
1.00934
1.00848
1.00747
1.0063
1.0057
1.00557
1.00601
1.00784
1.01178
1.01667
1.02087
1.02399
1.02601
1.01914
1.02258
1.02764
1.03403
1.04067
1.04599
1.04933
1.05107
1.05177
1.05198
1.05198
1.05177
1.05107
1.04933
1.04599
1.04067
1.03403
1.02764
1.02258
1.01914
1.02601
1.02399
1.02087
1.01667
1.01178
1.00784
1.00601
1.00557
1.0057
1.0063
1.00747
1.00848
1.00934
1.01
1.01057
1.01129
1.01241
1.01397
1.01561
1.01715
0.961274
0.961523
0.962719
0.964264
0.965223
0.967591
0.971332
0.975844
0.980513
0.985041
0.989299
0.99332
0.997438
1.00221
1.00774
1.0141
1.0209
1.02519
1.02713
1.02702
)
;
    }
    triangle
    {
        type            zeroGradient;
    }
    top
    {
        type            symmetryPlane;
    }
    bottom
    {
        type            symmetryPlane;
    }
    defaultFaces
    {
        type            empty;
    }
}


// ************************************************************************* //
