/*--------------------------------*- C++ -*----------------------------------*\
  =========                 |
  \\      /  F ield         | OpenFOAM: The Open Source CFD Toolbox
   \\    /   O peration     | Website:  https://openfoam.org
    \\  /    A nd           | Version:  7
     \\/     M anipulation  |
\*---------------------------------------------------------------------------*/
FoamFile
{
    version     2.0;
    format      ascii;
    class       volScalarField;
    location    "0.3";
    object      rho;
}
// * * * * * * * * * * * * * * * * * * * * * * * * * * * * * * * * * * * * * //

dimensions      [1 -3 0 0 0 0 0];

internalField   nonuniform List<scalar> 
3225
(
1.99412
1.99006
1.98539
1.98096
1.97713
1.97433
1.97092
1.96572
1.96012
1.95501
1.95079
1.94706
1.94157
1.93513
1.92932
1.92434
1.9195
1.91307
1.90618
1.89993
1.89419
1.88752
1.87988
1.87252
1.86549
1.85784
1.84986
1.99306
1.99101
1.98716
1.98238
1.97765
1.9736
1.97054
1.96682
1.96148
1.95571
1.95048
1.94629
1.9421
1.9364
1.92997
1.92403
1.919
1.91353
1.90672
1.89978
1.89359
1.88746
1.88025
1.87237
1.86494
1.85746
1.84929
1.99297
1.99088
1.98832
1.98388
1.97872
1.97377
1.96997
1.96698
1.96258
1.95686
1.95095
1.94581
1.94188
1.93706
1.93082
1.92439
1.9186
1.91341
1.90711
1.90003
1.8932
1.887
1.88024
1.87264
1.86485
1.85724
1.84903
1.99391
1.99063
1.98839
1.98482
1.97991
1.97475
1.97015
1.96676
1.96303
1.95764
1.95167
1.94602
1.94152
1.93725
1.93144
1.92485
1.91854
1.9131
1.90733
1.90031
1.89308
1.88637
1.87988
1.87263
1.86491
1.85724
1.84912
1.9952
1.99095
1.98792
1.9853
1.98108
1.97603
1.97093
1.96655
1.96283
1.95819
1.95251
1.94668
1.94146
1.93696
1.93173
1.92534
1.91878
1.91283
1.90729
1.90067
1.8932
1.88595
1.87924
1.87227
1.86466
1.85692
1.84912
1.99636
1.99176
1.98801
1.98565
1.98216
1.97715
1.9718
1.9667
1.96256
1.95853
1.95334
1.9475
1.94172
1.93663
1.9317
1.92575
1.91919
1.91278
1.90696
1.90078
1.89356
1.88598
1.87873
1.87166
1.86414
1.85633
1.84858
1.99754
1.99294
1.98878
1.986
1.98291
1.97805
1.97264
1.96728
1.9627
1.95878
1.95401
1.94824
1.94221
1.93665
1.93166
1.92605
1.91952
1.91285
1.9066
1.90059
1.89382
1.88638
1.87873
1.87114
1.86341
1.8555
1.84768
1.99879
1.99424
1.98993
1.98647
1.98329
1.97874
1.97346
1.96813
1.96326
1.95905
1.95442
1.94884
1.94287
1.93707
1.93177
1.92625
1.91978
1.91295
1.9064
1.90027
1.89377
1.8866
1.87908
1.87123
1.86295
1.85466
1.84657
2.0001
1.99551
1.99105
1.98708
1.9836
1.97935
1.97427
1.969
1.96397
1.95942
1.95475
1.94934
1.94347
1.93763
1.93206
1.92642
1.92009
1.91324
1.90643
1.89994
1.89342
1.88641
1.87911
1.87163
1.8634
1.8543
1.84557
2.00123
1.9966
1.99199
1.98776
1.98407
1.97996
1.97502
1.96978
1.96467
1.95991
1.95516
1.94983
1.944
1.93807
1.93233
1.92663
1.92047
1.91376
1.90678
1.89984
1.89299
1.88595
1.87873
1.87149
1.86389
1.85505
1.84524
2.00236
1.99766
1.99296
1.98857
1.98472
1.98058
1.97566
1.97042
1.96528
1.96048
1.95571
1.95035
1.94442
1.93836
1.93251
1.9268
1.92077
1.91422
1.90734
1.9002
1.89286
1.8855
1.87814
1.87088
1.86351
1.8556
1.84633
2.00344
1.99875
1.99399
1.98951
1.98549
1.98123
1.97626
1.97102
1.96589
1.96109
1.9563
1.9509
1.94488
1.93869
1.93274
1.92697
1.9209
1.91434
1.90757
1.90075
1.89346
1.88547
1.87755
1.86989
1.86259
1.85514
1.84703
2.00456
1.99982
1.99499
1.99048
1.98638
1.98199
1.97695
1.9717
1.96657
1.96172
1.95682
1.95139
1.94543
1.93927
1.93317
1.92716
1.9209
1.91424
1.90747
1.90088
1.89417
1.88636
1.87751
1.86911
1.86136
1.85412
1.84649
2.00582
2.00099
1.99606
1.99156
1.98752
1.98304
1.97787
1.97253
1.96734
1.96238
1.95734
1.95182
1.94592
1.93991
1.93388
1.92761
1.92098
1.91414
1.90726
1.90063
1.8941
1.88705
1.87857
1.8691
1.86052
1.85268
1.84522
2.00718
2.00243
1.99739
1.99279
1.9887
1.98421
1.97892
1.97346
1.96815
1.9631
1.95793
1.95228
1.94632
1.94035
1.93448
1.92842
1.9216
1.9143
1.90713
1.90021
1.89357
1.88676
1.87936
1.87054
1.86063
1.85163
1.8434
2.00853
2.00415
1.99907
1.99424
1.98991
1.98538
1.98009
1.97457
1.96919
1.96404
1.95873
1.95286
1.9467
1.94061
1.93476
1.92891
1.92257
1.91523
1.90735
1.89991
1.89283
1.886
1.87907
1.87154
1.8621
1.85149
1.84212
2.00982
2.00596
2.00098
1.99592
1.99121
1.98658
1.98134
1.97583
1.9704
1.96515
1.95967
1.95361
1.94718
1.94089
1.93496
1.92912
1.92296
1.91628
1.90857
1.90018
1.89242
1.8851
1.87819
1.87116
1.86312
1.85282
1.84176
2.01099
2.00759
2.00284
1.9977
1.99269
1.9879
1.98272
1.97721
1.97168
1.96625
1.96062
1.95451
1.94804
1.94145
1.93523
1.92923
1.92293
1.91637
1.90965
1.90175
1.89287
1.88465
1.87698
1.86995
1.86272
1.85406
1.84308
2.01201
2.00892
2.00444
1.99935
1.99427
1.98937
1.98427
1.97871
1.973
1.96732
1.96157
1.95553
1.94921
1.94265
1.93591
1.92938
1.9228
1.9161
1.90963
1.90312
1.89476
1.88516
1.87633
1.86834
1.86147
1.85402
1.84453
2.013
2.00993
2.00565
2.00074
1.99572
1.99089
1.98596
1.98039
1.97443
1.96844
1.96255
1.9566
1.95048
1.94416
1.93726
1.92991
1.92276
1.91583
1.90925
1.90313
1.89628
1.88691
1.87657
1.86751
1.85973
1.85297
1.84476
2.01417
2.01072
2.0063
2.00161
1.99686
1.99232
1.98763
1.98216
1.976
1.96971
1.9636
1.95763
1.9516
1.94547
1.93902
1.93137
1.92337
1.9158
1.90884
1.90252
1.8962
1.88846
1.87832
1.86777
1.85874
1.85107
1.8438
2.01455
2.01072
2.0064
2.0019
1.99751
1.99342
1.98915
1.98388
1.97773
1.97124
1.96483
1.95869
1.95257
1.94634
1.94017
1.93334
1.925
1.91662
1.90877
1.90173
1.89532
1.88848
1.88003
1.86937
1.85876
1.84966
1.84187
2.01383
2.00982
2.00569
2.00164
1.99789
1.99429
1.99029
1.9853
1.97941
1.97305
1.96651
1.96005
1.95365
1.94713
1.94071
1.93455
1.92717
1.91837
1.90964
1.90151
1.89418
1.88759
1.88041
1.87116
1.8599
1.84917
1.84009
2.01242
2.00801
2.00415
2.00083
1.99795
1.99506
1.99106
1.98606
1.98054
1.97475
1.96864
1.96204
1.95506
1.94798
1.94121
1.93489
1.92868
1.9207
1.91148
1.90232
1.89381
1.88624
1.87959
1.87185
1.86148
1.84976
1.83922
2.01064
2.00599
2.0027
2.00035
1.99846
1.99552
1.99113
1.98599
1.98075
1.97568
1.97065
1.96461
1.957
1.94908
1.94166
1.93496
1.92898
1.92253
1.91386
1.90404
1.89442
1.8856
1.87804
1.87121
1.86247
1.85111
1.83933
2.00921
2.00429
2.00118
1.99988
1.99901
1.99564
1.99078
1.98554
1.98039
1.97576
1.9716
1.96685
1.95962
1.95092
1.94252
1.93513
1.92885
1.92295
1.91577
1.90627
1.8958
1.88591
1.87709
1.86983
1.86241
1.85231
1.8402
2.0088
2.00387
2.00043
1.99971
1.99887
1.99505
1.99011
1.98487
1.97979
1.97532
1.97164
1.96768
1.96184
1.95365
1.94452
1.93606
1.92896
1.92268
1.91621
1.90813
1.89788
1.88706
1.87719
1.86862
1.86141
1.85269
1.84117
2.01028
2.00494
2.00138
1.99937
1.99711
1.9933
1.98853
1.98397
1.97919
1.97494
1.97113
1.96706
1.96213
1.95587
1.94739
1.93825
1.92985
1.92251
1.91575
1.90886
1.89988
1.88906
1.87819
1.86832
1.8599
1.85201
1.84171
2.01287
2.00795
2.00344
1.99973
1.99519
1.99044
1.98651
1.98334
1.98006
1.97562
1.97072
1.9656
1.96075
1.95598
1.9501
1.9414
1.93199
1.92307
1.91522
1.90843
1.90122
1.89125
1.87989
1.86896
1.85902
1.85069
1.84173
2.015
2.0114
2.0069
2.00119
1.99429
1.98807
1.9839
1.98218
1.98078
1.97676
1.97071
1.96449
1.95883
1.95452
1.95065
1.94449
1.93505
1.92491
1.91552
1.9077
1.90124
1.89308
1.88203
1.87006
1.85903
1.84939
1.84099
2.01643
2.01345
2.00994
2.0035
1.99508
1.98749
1.98219
1.98026
1.9803
1.97702
1.97108
1.96403
1.95758
1.95249
1.9496
1.94562
1.93789
1.92758
1.9171
1.90778
1.90059
1.89374
1.88382
1.87172
1.85965
1.84882
1.83994
2.01792
2.01378
2.01037
2.00598
1.99821
1.98943
1.98262
1.97919
1.97852
1.97604
1.97048
1.96371
1.95684
1.95111
1.94772
1.94486
1.93902
1.93001
1.91925
1.90906
1.90043
1.89344
1.88497
1.8734
1.86068
1.84905
1.83894
2.01974
2.01447
2.00993
2.00611
2.00107
1.99371
1.98591
1.98012
1.97665
1.97339
1.9689
1.96362
1.95733
1.95122
1.94631
1.94242
1.93805
1.93119
1.92153
1.91088
1.90111
1.89286
1.885
1.87476
1.86215
1.84962
1.83844
2.02214
2.0157
2.0104
2.00605
2.0026
1.99781
1.99089
1.98349
1.97683
1.97079
1.96625
1.96257
1.95803
1.95216
1.94596
1.94004
1.93514
1.93037
1.92307
1.91296
1.90244
1.89275
1.88435
1.87539
1.86367
1.85068
1.83859
2.02525
2.01849
2.0122
2.00709
2.00324
2.00016
1.99538
1.9879
1.97896
1.97036
1.96403
1.96092
1.95835
1.95312
1.94601
1.93859
1.93209
1.92764
1.92286
1.91469
1.90406
1.89331
1.88357
1.87508
1.86495
1.85215
1.83914
2.02714
2.02172
2.01539
2.00934
2.00452
2.00107
1.99743
1.99112
1.98189
1.97202
1.9639
1.95959
1.95819
1.9534
1.94578
1.93777
1.93013
1.92444
1.92116
1.91536
1.90552
1.89416
1.88331
1.87426
1.86545
1.85359
1.84013
2.02705
2.02365
2.01835
2.01227
2.00639
2.00169
1.99751
1.99219
1.9846
1.97538
1.9663
1.96004
1.95742
1.9533
1.94544
1.93698
1.92869
1.92215
1.91874
1.91445
1.90593
1.89499
1.88353
1.87352
1.86519
1.8546
1.84128
2.02497
2.0235
2.01973
2.01451
2.0085
2.00259
1.99749
1.99253
1.98635
1.97857
1.97022
1.96272
1.95732
1.95217
1.94489
1.93662
1.9286
1.92157
1.91665
1.91222
1.905
1.89524
1.88405
1.87327
1.8645
1.85488
1.84213
2.02394
2.02187
2.01951
2.01522
2.00989
2.00386
1.99825
1.99322
1.98777
1.98129
1.97407
1.96647
1.95874
1.95135
1.94396
1.93634
1.92888
1.92207
1.91556
1.90942
1.90266
1.89428
1.88434
1.87358
1.86373
1.85452
1.84241
2.0248
2.02098
2.01822
2.01494
2.01031
2.00517
1.99972
1.99453
1.98948
1.98373
1.97708
1.96965
1.96114
1.95212
1.94366
1.93628
1.92943
1.92265
1.91528
1.90737
1.89964
1.89212
1.88361
1.87401
1.86353
1.8537
1.8421
2.02674
2.0219
2.01766
2.01402
2.01017
2.00574
2.00104
1.99626
1.99136
1.98568
1.979
1.97141
1.96302
1.95393
1.94489
1.93702
1.93031
1.92328
1.91497
1.90599
1.89718
1.88941
1.882
1.87368
1.86369
1.8529
1.84137
2.02865
2.02378
2.0188
2.01403
2.0098
2.00578
2.00159
1.99739
1.99285
1.98709
1.98003
1.97235
1.96425
1.95583
1.94728
1.93915
1.93182
1.92397
1.91456
1.90478
1.8955
1.88732
1.88016
1.87243
1.86301
1.85227
1.84046
2.03049
2.02562
2.02072
2.01552
2.01036
2.00571
2.0016
1.99773
1.99344
1.98785
1.98088
1.97327
1.96541
1.95754
1.94982
1.9421
1.93389
1.92465
1.91426
1.90388
1.89459
1.88652
1.87885
1.87067
1.8612
1.85078
1.83957
2.03304
2.02769
2.02263
2.01746
2.01196
2.00643
2.00147
1.99717
1.99296
1.98779
1.98145
1.97423
1.96662
1.95919
1.95208
1.94484
1.93616
1.92555
1.91421
1.90333
1.89412
1.88657
1.8786
1.86897
1.85874
1.84845
1.83802
2.03645
2.03046
2.02483
2.0194
2.01379
2.00795
2.00215
1.99679
1.99203
1.98722
1.98164
1.97532
1.96844
1.96129
1.95417
1.94662
1.93772
1.92696
1.91513
1.90376
1.89436
1.88692
1.87862
1.86773
1.85618
1.84546
1.83576
2.04025
2.03395
2.0277
2.02164
2.01567
2.00963
2.00351
1.99746
1.99182
1.98677
1.98165
1.97598
1.96981
1.9631
1.95582
1.94772
1.93851
1.92794
1.91653
1.90529
1.89567
1.88755
1.87853
1.86684
1.85403
1.84249
1.83317
2.04438
2.03778
2.03119
2.02454
2.01797
2.01152
2.00513
1.99893
1.99289
1.98711
1.9817
1.97626
1.97042
1.96404
1.95675
1.94843
1.93916
1.92899
1.91824
1.90751
1.89767
1.88838
1.87807
1.86593
1.85259
1.84021
1.8307
2.04904
2.04197
2.03501
2.02802
2.02095
2.01399
2.00726
2.00075
1.99448
1.98829
1.98225
1.97645
1.97051
1.96401
1.95679
1.94876
1.93981
1.93011
1.92008
1.90996
1.90004
1.88946
1.87758
1.86493
1.85193
1.83928
1.82887
2.05388
2.04663
2.03925
2.03189
2.02448
2.0171
2.00993
2.00308
1.99647
1.98998
1.98347
1.97685
1.97016
1.96326
1.95617
1.94869
1.94081
1.93203
1.92242
1.91225
1.90169
1.89057
1.8777
1.86438
1.85179
1.83952
1.82808
2.05857
2.05145
2.04394
2.03621
2.02844
2.02072
2.01313
2.0058
1.99877
1.99188
1.98491
1.97764
1.97015
1.96267
1.95557
1.94866
1.9417
1.93364
1.92436
1.91408
1.90274
1.891
1.87821
1.86474
1.85219
1.84042
1.8281
2.063
2.05618
2.04874
2.04086
2.03276
2.02471
2.01677
2.009
2.00144
1.99403
1.9865
1.97872
1.9708
1.96293
1.95559
1.94882
1.94218
1.93448
1.92535
1.91505
1.9034
1.89137
1.87886
1.8658
1.85324
1.84163
1.82854
2.06711
2.06059
2.05333
2.0455
2.03729
2.02899
2.0208
2.01265
2.00459
1.99657
1.98854
1.98028
1.97203
1.96387
1.95628
1.94925
1.94237
1.93457
1.92533
1.91516
1.90379
1.89194
1.87974
1.86742
1.85484
1.84272
1.82889
2.07065
2.0645
2.05749
2.04989
2.04184
2.03352
2.02514
2.01672
2.00821
1.99963
1.99109
1.98252
1.97402
1.96559
1.95767
1.95008
1.94247
1.93421
1.92466
1.9146
1.90363
1.89243
1.88114
1.86953
1.85691
1.8434
1.82894
2.07355
2.06765
2.06115
2.05399
2.04626
2.03812
2.02967
2.02108
2.01226
2.00325
1.99427
1.98527
1.97652
1.9678
1.95937
1.95122
1.94264
1.93366
1.9237
1.91375
1.90362
1.89349
1.88312
1.87153
1.85867
1.84387
1.82857
2.07579
2.07031
2.06425
2.05769
2.05045
2.04258
2.03426
2.0256
2.01666
2.00736
1.99799
1.98852
1.9793
1.97026
1.9613
1.95246
1.94294
1.9333
1.92309
1.91333
1.90411
1.89451
1.8846
1.87272
1.85942
1.84404
1.82799
2.07711
2.0725
2.06704
2.0609
2.05417
2.04675
2.0387
2.03015
2.02119
2.01175
2.00208
1.99217
1.98241
1.97279
1.96329
1.95383
1.94367
1.93352
1.92323
1.91337
1.9046
1.89499
1.88503
1.87292
1.85922
1.84382
1.82764
2.07762
2.07392
2.06937
2.06376
2.05735
2.0504
2.04284
2.03459
2.0257
2.01618
2.00633
1.99608
1.98587
1.97568
1.96548
1.95548
1.94497
1.93444
1.92408
1.91385
1.90493
1.89503
1.88453
1.87231
1.85852
1.84326
1.8273
2.07774
2.07464
2.07088
2.06606
2.06018
2.05359
2.04651
2.03865
2.02997
2.02047
2.01054
2.0001
1.98957
1.97895
1.96821
1.95766
1.94694
1.93611
1.92564
1.91489
1.90526
1.89486
1.88344
1.87097
1.85729
1.8424
1.82755
2.07771
2.07489
2.07161
2.0675
2.06242
2.05642
2.04969
2.0422
2.03381
2.0245
2.01462
2.00417
1.99349
1.98258
1.97146
1.96049
1.94942
1.9383
1.92764
1.91645
1.90568
1.89446
1.88207
1.86922
1.85595
1.8424
1.82878
2.07771
2.07491
2.0718
2.06814
2.06383
2.0587
2.05247
2.04522
2.03715
2.02815
2.01851
2.00819
1.99753
1.98658
1.97524
1.96393
1.95243
1.94082
1.92967
1.9181
1.9062
1.89409
1.88101
1.86811
1.85558
1.84306
1.83011
2.07787
2.07489
2.07173
2.06831
2.06455
2.06018
2.05468
2.04783
2.03999
2.03139
2.02214
2.01214
2.00165
1.99077
1.97932
1.96772
1.9558
1.94364
1.93175
1.91956
1.90686
1.8941
1.88079
1.86802
1.85574
1.8436
1.83066
2.07823
2.07498
2.07166
2.06829
2.06485
2.06094
2.05605
2.04987
2.04252
2.03428
2.0255
2.01592
2.00572
1.99498
1.98348
1.97166
1.95933
1.94664
1.93403
1.92116
1.90789
1.89475
1.88142
1.86864
1.85616
1.84361
1.8304
2.07879
2.07528
2.07177
2.06833
2.06492
2.06115
2.05662
2.05114
2.04464
2.03701
2.0286
2.01943
2.00954
1.999
1.98753
1.97557
1.96293
1.94981
1.93658
1.92317
1.90955
1.89626
1.88288
1.86988
1.85683
1.84354
1.82962
2.07953
2.07586
2.07218
2.06856
2.06493
2.06104
2.0567
2.0518
2.04614
2.03938
2.03145
2.02256
2.01299
2.0027
1.99136
1.97938
1.96657
1.95321
1.93958
1.92581
1.91187
1.89841
1.88491
1.87151
1.85774
1.84347
1.82833
2.08036
2.07674
2.07292
2.06903
2.06508
2.06096
2.05667
2.05215
2.04709
2.04105
2.03381
2.02535
2.01604
2.00606
1.99493
1.98306
1.97023
1.95682
1.94301
1.92908
1.91487
1.90108
1.88714
1.8732
1.85867
1.8432
1.8266
2.08152
2.07775
2.07389
2.06974
2.06546
2.06111
2.05679
2.05238
2.04759
2.042
2.03539
2.02769
2.01878
2.00907
1.99816
1.98652
1.97385
1.96058
1.94676
1.93278
1.9183
1.90406
1.88951
1.87471
1.85925
1.84271
1.82516
2.08288
2.07893
2.07489
2.07067
2.06616
2.06161
2.05714
2.0526
2.04775
2.04236
2.03627
2.02936
2.02114
2.01174
2.00104
1.9897
1.9773
1.96432
1.9506
1.93662
1.92194
1.90718
1.89196
1.87616
1.85964
1.84239
1.82466
2.08449
2.08043
2.07603
2.07175
2.06722
2.06248
2.05774
2.05286
2.04778
2.04242
2.03669
2.03038
2.02284
2.014
2.00357
1.99255
1.98053
1.96789
1.95433
1.94036
1.92551
1.91024
1.89432
1.87763
1.86026
1.84266
1.825
2.08647
2.08206
2.07771
2.07306
2.06852
2.06364
2.05853
2.05325
2.04789
2.04245
2.03688
2.03089
2.02383
2.01561
2.00582
1.99517
1.98351
1.97118
1.95782
1.94383
1.92887
1.91318
1.89668
1.87937
1.86145
1.84369
1.82614
2.08867
2.08405
2.07943
2.0749
2.06988
2.06491
2.05948
2.05383
2.04821
2.04263
2.03699
2.03102
2.02418
2.0165
2.00756
1.99758
1.98626
1.97414
1.96099
1.94701
1.93204
1.91608
1.89923
1.88164
1.86354
1.8456
1.82787
2.0911
2.08637
2.08159
2.07668
2.07155
2.06616
2.06058
2.05471
2.04884
2.04301
2.03709
2.03093
2.02415
2.0169
2.00873
1.99952
1.98879
1.97676
1.9638
1.94993
1.93509
1.91909
1.90218
1.88454
1.86642
1.84812
1.82991
2.09395
2.08901
2.08401
2.07879
2.07332
2.0676
2.06183
2.0559
2.04977
2.04362
2.03731
2.03087
2.02407
2.0171
2.00952
2.00089
1.99079
1.97912
1.9664
1.9527
1.9381
1.92223
1.90545
1.88782
1.86972
1.85096
1.83207
2.09702
2.0919
2.08659
2.08105
2.07529
2.06952
2.0633
2.05731
2.05095
2.04443
2.03774
2.03104
2.02418
2.01735
2.01005
2.00172
1.9921
1.98102
1.96886
1.95538
1.94105
1.92535
1.90878
1.89113
1.87299
1.85378
1.83403
2.10021
2.09468
2.08912
2.08336
2.07742
2.07142
2.06519
2.0588
2.05229
2.04549
2.03848
2.0316
2.02465
2.01776
2.0104
2.00208
1.99282
1.98236
1.97101
1.95795
1.94382
1.92822
1.91187
1.89418
1.87591
1.85638
1.83579
2.10334
2.09758
2.09169
2.0858
2.07979
2.07364
2.06719
2.06043
2.05372
2.04684
2.03967
2.03267
2.02553
2.01834
2.01065
2.00218
1.99322
1.98335
1.97267
1.96015
1.94626
1.93071
1.91456
1.8969
1.87848
1.85863
1.83742
2.10639
2.10048
2.09445
2.08839
2.08232
2.07604
2.0694
2.06252
2.05536
2.04852
2.04133
2.03419
2.02671
2.01907
2.01094
2.00233
1.99359
1.98415
1.97387
1.96171
1.94822
1.93287
1.91693
1.89937
1.88077
1.86062
1.83904
2.10943
2.10344
2.09734
2.09117
2.08488
2.07843
2.07167
2.06464
2.05756
2.0505
2.04336
2.03595
2.02806
2.01997
2.01146
2.00278
1.99415
1.98481
1.97456
1.96261
1.94958
1.93481
1.91914
1.90168
1.88294
1.86248
1.84076
2.11253
2.10649
2.10032
2.09404
2.08754
2.08084
2.07402
2.06705
2.06004
2.05265
2.04546
2.03775
2.0295
2.02112
2.01241
2.00368
1.99491
1.98531
1.97484
1.96306
1.95053
1.93648
1.92122
1.90383
1.88502
1.86437
1.84269
2.11571
2.10961
2.10338
2.09698
2.0903
2.08342
2.0766
2.06968
2.06261
2.05506
2.04739
2.03951
2.03114
2.02264
2.01384
2.00496
1.99577
1.98572
1.97499
1.9634
1.95133
1.93788
1.92296
1.90578
1.88699
1.86639
1.84477
2.11895
2.11279
2.10649
2.09998
2.09317
2.08625
2.07941
2.07248
2.06524
2.05742
2.04934
2.04132
2.03309
2.02453
2.01561
2.0064
1.99668
1.98618
1.97532
1.96395
1.95215
1.93901
1.9242
1.90736
1.88888
1.8685
1.84683
2.12222
2.11601
2.10966
2.10304
2.09617
2.08926
2.08235
2.07516
2.06773
2.0598
2.05186
2.04338
2.03533
2.02663
2.01746
2.00786
1.99768
1.98694
1.97607
1.96485
1.953
1.93982
1.92502
1.90846
1.89059
1.87049
1.8487
2.1255
2.11928
2.11287
2.10616
2.09928
2.09236
2.08532
2.07785
2.07016
2.06222
2.05425
2.0458
2.03758
2.02869
2.01924
2.00932
1.99893
1.98817
1.97731
1.96601
1.95383
1.94037
1.92559
1.90934
1.89196
1.87222
1.85014
2.12881
2.12259
2.11611
2.10934
2.10247
2.0955
2.08826
2.08058
2.07275
2.06486
2.0569
2.04838
2.03961
2.03058
2.02098
2.01095
2.00057
1.98986
1.97891
1.96728
1.95462
1.94087
1.92616
1.91025
1.89302
1.87351
1.85112
2.13218
2.12594
2.11937
2.11257
2.10569
2.09862
2.09117
2.08335
2.07552
2.06766
2.05961
2.05089
2.04163
2.03239
2.02289
2.01287
2.00259
1.99186
1.98063
1.96855
1.95547
1.94156
1.92696
1.91126
1.89389
1.87418
1.85179
2.1356
2.12929
2.12264
2.11583
2.10892
2.10171
2.09409
2.08623
2.07844
2.07042
2.06213
2.05337
2.04409
2.03443
2.02509
2.01513
2.00484
1.99393
1.98234
1.96986
1.95657
1.94264
1.92808
1.91231
1.89456
1.87438
1.85216
2.13903
2.13263
2.12594
2.11913
2.11216
2.10479
2.09709
2.08925
2.08143
2.07324
2.06464
2.05582
2.04656
2.03704
2.02751
2.01758
2.00712
1.99595
1.98405
1.97135
1.95803
1.94414
1.9294
1.91323
1.89505
1.87442
1.8523
2.14243
2.13596
2.12927
2.12247
2.11541
2.10792
2.1002
2.09239
2.08448
2.07609
2.06731
2.05841
2.0493
2.03985
2.02997
2.02002
2.00933
1.99793
1.9859
1.97316
1.95988
1.94591
1.93076
1.91396
1.89542
1.8746
1.85248
2.1458
2.13931
2.13267
2.12585
2.11869
2.11113
2.10344
2.09563
2.08756
2.07898
2.07018
2.06127
2.05231
2.04283
2.03251
2.02233
2.0115
2.00002
1.988
1.97531
1.96198
1.94771
1.93205
1.91461
1.89583
1.87514
1.85285
2.14915
2.14271
2.13611
2.12925
2.122
2.11444
2.10678
2.09892
2.09068
2.082
2.07323
2.06439
2.05516
2.04575
2.0353
2.02465
2.01377
2.00235
1.99037
1.97765
1.96411
1.94939
1.93327
1.91542
1.89646
1.87606
1.85343
2.15254
2.14616
2.13957
2.13264
2.12535
2.11782
2.11019
2.10222
2.09385
2.08516
2.07645
2.06756
2.05815
2.04842
2.038
2.02715
2.01622
2.0049
1.99288
1.97999
1.96613
1.95096
1.93452
1.91661
1.89747
1.87715
1.85408
2.15598
2.14962
2.14299
2.13601
2.12872
2.12125
2.1136
2.10553
2.09709
2.08846
2.07975
2.0707
2.06106
2.05112
2.04083
2.03011
2.01887
2.00751
1.99533
1.98219
1.96802
1.95259
1.93603
1.91824
1.8989
1.87817
1.85467
2.15944
2.15306
2.14637
2.13936
2.13212
2.12467
2.11697
2.10883
2.1004
2.09182
2.08305
2.07378
2.06393
2.05394
2.04368
2.03317
2.02161
2.00999
1.99761
1.98428
1.96996
1.9545
1.93794
1.9202
1.90062
1.8791
1.8551
2.16287
2.15644
2.14972
2.14272
2.13551
2.12807
2.12031
2.11213
2.10375
2.09519
2.08629
2.07682
2.06689
2.05691
2.04668
2.03601
2.02434
2.01234
1.9998
1.98644
1.97214
1.95679
1.94026
1.92233
1.90241
1.88013
1.85554
2.16627
2.15979
2.15306
2.14608
2.13889
2.13142
2.12361
2.11545
2.10711
2.0985
2.08945
2.07988
2.06998
2.06004
2.04973
2.03887
2.02707
2.01474
2.00214
1.98886
1.97466
1.95941
1.94281
1.92453
1.9042
1.88151
1.85644
2.16964
2.16315
2.15642
2.14945
2.14225
2.13474
2.12692
2.11879
2.11045
2.10176
2.09259
2.08302
2.0732
2.06324
2.05272
2.04166
2.02986
2.01747
2.0048
1.99162
1.97746
1.96215
1.94537
1.92677
1.90608
1.88336
1.85815
2.17303
2.16653
2.15979
2.15281
2.14559
2.13806
2.13024
2.12213
2.11377
2.10499
2.09579
2.08627
2.0765
2.06642
2.05568
2.04448
2.03279
2.02056
2.00781
1.99456
1.98033
1.96486
1.94784
1.92908
1.90825
1.88562
1.86057
2.17645
2.16993
2.16317
2.15617
2.14893
2.14139
2.13358
2.12547
2.11706
2.10824
2.09906
2.08959
2.0798
2.06958
2.05868
2.04745
2.03589
2.02382
2.01097
1.9975
1.98311
1.96747
1.9503
1.93153
1.91079
1.88816
1.86315
2.1799
2.17334
2.16655
2.15953
2.15228
2.14472
2.13691
2.12879
2.12035
2.11153
2.10239
2.09294
2.08307
2.07273
2.06181
2.05061
2.03912
2.02707
2.01412
2.00036
1.9858
1.97008
1.9529
1.9342
1.9136
1.89078
1.86541
2.18335
2.17675
2.16994
2.16291
2.15563
2.14806
2.14024
2.13209
2.12365
2.11486
2.10574
2.09626
2.08631
2.07593
2.06507
2.05392
2.04238
2.03024
2.01719
2.0032
1.98852
1.97283
1.95572
1.93706
1.91645
1.89338
1.86733
2.1868
2.18018
2.17335
2.16629
2.15898
2.15139
2.14355
2.13539
2.12696
2.11818
2.10904
2.09951
2.08954
2.07919
2.06841
2.05725
2.04558
2.03329
2.02019
2.00616
1.9914
1.97575
1.95868
1.94
1.91921
1.89589
1.86926
2.19024
2.18361
2.17677
2.16967
2.16233
2.15472
2.14685
2.13868
2.13025
2.12146
2.11228
2.10271
2.09278
2.08248
2.07172
2.06049
2.04868
2.03629
2.02324
2.00928
1.99446
1.97878
1.96168
1.94292
1.92191
1.89841
1.87156
2.19371
2.18706
2.18018
2.17305
2.16569
2.15805
2.15015
2.14197
2.13351
2.12467
2.11544
2.1059
2.09602
2.08573
2.0749
2.06359
2.05171
2.03931
2.02634
2.01251
1.99763
1.98181
1.96463
1.94579
1.92466
1.9011
1.87437
2.1972
2.19051
2.18359
2.17644
2.16905
2.16137
2.15344
2.14525
2.13674
2.12782
2.11858
2.10908
2.09922
2.08888
2.07797
2.06662
2.05476
2.04238
2.02946
2.01572
2.00081
1.98482
1.96756
1.9487
1.92762
1.90414
1.87763
2.20071
2.19397
2.18701
2.17984
2.17242
2.16469
2.15675
2.14852
2.13994
2.13097
2.12175
2.11229
2.10237
2.09192
2.08099
2.06968
2.05787
2.04549
2.03257
2.01886
2.00394
1.98785
1.97059
1.9518
1.93088
1.90757
1.88119
2.20423
2.19744
2.19046
2.18326
2.17578
2.16803
2.16007
2.1518
2.14315
2.13416
2.12498
2.11549
2.10546
2.09494
2.08407
2.07285
2.06107
2.04865
2.03569
2.02197
2.00708
1.991
1.9738
1.95516
1.93442
1.91129
1.88492
2.20779
2.20097
2.19397
2.18671
2.17918
2.17141
2.16344
2.1551
2.1464
2.13746
2.1283
2.11872
2.10857
2.09806
2.08729
2.07612
2.06429
2.05183
2.03886
2.02513
2.0103
1.99433
1.97722
1.95872
1.93813
1.9151
1.88868
2.21141
2.20457
2.19752
2.1902
2.18264
2.17488
2.16686
2.15846
2.14976
2.14087
2.13169
2.12198
2.11178
2.10137
2.0907
2.07946
2.06753
2.05509
2.04218
2.02845
2.01368
1.99783
1.98077
1.96231
1.94175
1.91872
1.89232
2.21515
2.20828
2.20118
2.1938
2.18623
2.17845
2.17037
2.16193
2.15328
2.14443
2.13516
2.12534
2.11518
2.1049
2.09422
2.0828
2.07076
2.05837
2.04554
2.0318
2.01708
2.00141
1.98439
1.96582
1.94516
1.92202
1.89567
2.219
2.21208
2.20491
2.19751
2.18994
2.18213
2.17397
2.16552
2.15692
2.14802
2.13863
2.12876
2.1187
2.1085
2.0977
2.08611
2.07406
2.06179
2.04894
2.03507
2.02037
2.00488
1.98787
1.96905
1.9482
1.92499
1.89875
2.22296
2.21598
2.20877
2.20136
2.19376
2.18586
2.17765
2.16922
2.16062
2.15163
2.14214
2.13229
2.12231
2.112
2.10093
2.08921
2.07727
2.06506
2.05205
2.03797
2.02332
2.00801
1.99099
1.97193
1.95097
1.92778
1.9017
2.22692
2.21987
2.21262
2.2052
2.19755
2.18956
2.1813
2.17286
2.16415
2.15498
2.14539
2.13559
2.12562
2.11509
2.10377
2.09207
2.08031
2.06808
2.05477
2.04047
2.02585
2.0106
1.99346
1.9742
1.95332
1.93037
1.90459
2.23082
2.2237
2.21641
2.20893
2.20115
2.19306
2.18473
2.17621
2.16735
2.15804
2.14841
2.13863
2.1285
2.11765
2.1061
2.09439
2.08261
2.07014
2.05656
2.04226
2.02778
2.01248
1.99516
1.97588
1.95527
1.93272
1.90736
2.2344
2.2272
2.21983
2.21221
2.20431
2.19612
2.18769
2.17897
2.16982
2.16027
2.15055
2.14066
2.13024
2.11916
2.1077
2.09615
2.08419
2.07125
2.05748
2.04344
2.02917
2.01359
1.99603
1.97686
1.95662
1.93456
1.90971
2.23754
2.23022
2.22269
2.21489
2.20679
2.19842
2.18977
2.18077
2.1714
2.16176
2.15197
2.14188
2.1312
2.11992
2.10847
2.09695
2.08472
2.07134
2.05747
2.04377
2.02974
2.01392
1.99628
1.97751
1.95767
1.93594
1.91146
2.2324
2.22466
2.21664
2.20834
2.19976
2.19088
2.18159
2.17196
2.16217
2.15225
2.14189
2.13101
2.11975
2.10836
2.09666
2.08412
2.0707
2.05707
2.0436
2.02947
2.01347
1.99613
1.97811
1.95856
1.93684
1.91247
2.2177
2.20917
2.20034
2.19118
2.18168
2.17192
2.162
2.15186
2.1413
2.13031
2.11916
2.10786
2.09597
2.08316
2.06995
2.05684
2.04357
2.02903
2.01285
1.99607
1.97885
1.95947
1.93756
1.91328
2.20953
2.2005
2.19114
2.18152
2.17173
2.16175
2.15144
2.14068
2.12962
2.11847
2.10703
2.09487
2.082
2.06909
2.05642
2.04319
2.02836
2.01233
1.99628
1.97977
1.96068
1.93878
1.9147
2.19188
2.18224
2.17229
2.162
2.15134
2.14035
2.12923
2.11807
2.10659
2.09447
2.08197
2.06946
2.05689
2.04335
2.02842
2.01272
1.99714
1.98066
1.96176
1.9406
1.91736
2.18033
2.17033
2.15994
2.14918
2.13819
2.1271
2.11584
2.10422
2.09228
2.08025
2.06803
2.05519
2.04128
2.02666
2.01189
1.9968
1.97994
1.96111
1.94114
1.91964
2.16638
2.15553
2.14448
2.1333
2.12182
2.11003
2.09823
2.08654
2.07446
2.06125
2.04701
2.03271
2.01877
2.0039
1.98614
1.96672
1.94769
1.92813
1.94042
1.93461
1.9295
1.92481
1.91898
1.9125
1.90628
1.90048
1.89422
1.8872
1.88015
1.87329
1.86603
1.85837
1.85084
)
;

boundaryField
{
    inlet
    {
        type            calculated;
        value           nonuniform 0();
    }
    outlet
    {
        type            calculated;
        value           nonuniform 0();
    }
    triangle
    {
        type            calculated;
        value           nonuniform List<scalar> 
18
(
2.16638
2.15553
2.14448
2.1333
2.12182
2.11003
2.09823
2.08654
2.07446
2.06125
2.04701
2.03271
2.01877
2.0039
1.98614
1.96672
1.94769
1.92813
)
;
    }
    top
    {
        type            symmetryPlane;
    }
    bottom
    {
        type            symmetryPlane;
    }
    defaultFaces
    {
        type            empty;
    }
    procBoundary12to4
    {
        type            processor;
        value           nonuniform List<scalar> 
28
(
1.99326
1.98796
1.98344
1.97986
1.9777
1.97446
1.96957
1.96432
1.95928
1.9551
1.95146
1.94641
1.93954
1.93452
1.92988
1.92444
1.91833
1.91229
1.90654
1.90064
1.89417
1.88745
1.88077
1.87385
1.86661
1.85929
1.85178
1.94641
)
;
    }
    procBoundary12to5
    {
        type            processor;
        value           nonuniform List<scalar> 
21
(
1.84207
1.84118
1.84039
1.84002
1.84054
1.84061
1.83991
1.83875
1.83733
1.83618
1.83596
1.83722
1.83793
1.83726
1.83583
1.8338
1.83238
1.83185
1.83276
1.83408
1.84321
)
;
    }
    procBoundary12to11
    {
        type            processor;
        value           nonuniform List<scalar> 
114
(
1.99622
1.99557
1.9964
1.99813
1.9998
2.00115
2.00225
2.00327
2.00428
2.0052
2.00606
2.00699
2.00812
2.0094
2.01059
2.01186
2.01306
2.01399
2.01462
2.01511
2.01586
2.01658
2.01665
2.01612
2.01519
2.01458
2.01458
2.01577
2.01711
2.0185
2.02035
2.02287
2.0259
2.02904
2.03072
2.03046
2.02787
2.0267
2.02758
2.02967
2.03175
2.03345
2.03569
2.03888
2.04261
2.04665
2.05127
2.05615
2.06089
2.06527
2.06924
2.07283
2.076
2.07865
2.08028
2.08082
2.08078
2.08058
2.08043
2.08051
2.08083
2.08143
2.0822
2.08297
2.08402
2.0852
2.08667
2.08854
2.0908
2.09332
2.09598
2.09893
2.10221
2.10561
2.10897
2.11221
2.11532
2.11842
2.1216
2.1249
2.12826
2.13162
2.13495
2.13829
2.14166
2.14509
2.14855
2.152
2.15539
2.15877
2.16215
2.16558
2.16903
2.17248
2.17591
2.17932
2.18276
2.18623
2.18971
2.1932
2.19667
2.20015
2.20366
2.20721
2.21081
2.21444
2.21811
2.22187
2.22573
2.22973
2.23376
2.23774
2.24143
2.24468
)
;
    }
    procBoundary12to13
    {
        type            processor;
        value           nonuniform List<scalar> 
100
(
1.83453
1.83389
1.83247
1.83055
1.82918
1.82859
1.82872
1.82931
1.83006
1.8305
1.83044
1.8298
1.82885
1.8279
1.82736
1.82748
1.82798
1.82871
1.82927
1.82934
1.82897
1.82815
1.82729
1.82636
1.82522
1.82382
1.82218
1.82034
1.81838
1.81642
1.81479
1.81342
1.8124
1.81195
1.81188
1.81184
1.81182
1.81298
1.81477
1.81612
1.81641
1.81593
1.81459
1.81229
1.80969
1.80814
1.80782
1.80821
1.80912
1.81023
1.81136
1.81252
1.81353
1.81425
1.81488
1.81585
1.81738
1.81939
1.82153
1.8234
1.82479
1.82564
1.82603
1.82626
1.8268
1.82762
1.82834
1.82876
1.82884
1.8286
1.82833
1.8283
1.82869
1.82962
1.83099
1.83267
1.8345
1.83623
1.83777
1.83935
1.84137
1.84406
1.84732
1.85086
1.85443
1.858
1.8616
1.86518
1.86863
1.87193
1.87513
1.87822
1.88097
1.88316
1.88464
1.88602
1.888
1.8915
1.89542
1.90579
)
;
    }
    procBoundary12to20
    {
        type            processor;
        value           nonuniform List<scalar> 
15
(
2.23989
2.23989
2.23391
2.22595
2.22595
2.21824
2.21824
2.2103
2.20124
2.20124
2.18999
2.18999
2.18694
2.17686
2.17686
)
;
    }
}


// ************************************************************************* //
