/*--------------------------------*- C++ -*----------------------------------*\
  =========                 |
  \\      /  F ield         | OpenFOAM: The Open Source CFD Toolbox
   \\    /   O peration     | Website:  https://openfoam.org
    \\  /    A nd           | Version:  7
     \\/     M anipulation  |
\*---------------------------------------------------------------------------*/
FoamFile
{
    version     2.0;
    format      ascii;
    class       volScalarField;
    location    "0.3";
    object      rho;
}
// * * * * * * * * * * * * * * * * * * * * * * * * * * * * * * * * * * * * * //

dimensions      [1 -3 0 0 0 0 0];

internalField   nonuniform List<scalar> 
3225
(
0.547577
0.539019
0.533769
0.52675
0.523891
0.514965
0.51328
0.526725
0.524852
0.529213
0.541979
0.544751
0.543779
0.539447
0.540455
0.548118
0.562587
0.567878
0.569842
0.570705
0.56248
0.556354
0.545037
0.535729
0.525974
0.514728
0.502436
0.489248
0.498802
0.502013
0.501174
0.515135
0.524129
0.525694
0.523484
0.525264
0.535286
0.550254
0.552662
0.556414
0.559992
0.554094
0.557463
0.546249
0.535781
0.524193
0.509787
0.494072
0.477025
0.476141
0.480162
0.473742
0.484414
0.504105
0.507658
0.50646
0.508385
0.519209
0.534056
0.539335
0.546725
0.551389
0.54445
0.55589
0.544452
0.533417
0.521742
0.507967
0.492052
0.475223
0.464012
0.46017
0.447699
0.452092
0.480693
0.488568
0.488167
0.488605
0.498991
0.51568
0.528399
0.538735
0.541382
0.533054
0.551463
0.541691
0.531853
0.520729
0.507305
0.490894
0.472669
0.455118
0.441008
0.424843
0.421523
0.451281
0.46819
0.468768
0.467224
0.477305
0.497611
0.516689
0.528775
0.52994
0.522537
0.549205
0.541369
0.533671
0.523902
0.508529
0.49114
0.469955
0.448461
0.427397
0.410674
0.398217
0.420365
0.446097
0.44705
0.444976
0.454054
0.478102
0.506406
0.518604
0.518695
0.511814
0.551382
0.546488
0.540073
0.52825
0.509469
0.489724
0.466955
0.443298
0.420429
0.403996
0.388484
0.395914
0.424304
0.424199
0.421122
0.428883
0.459179
0.496673
0.507127
0.506388
0.504008
0.56013
0.556484
0.546452
0.529325
0.507887
0.486878
0.463057
0.437719
0.414555
0.396095
0.385462
0.379009
0.399841
0.403609
0.398129
0.404815
0.441705
0.4837
0.491967
0.493265
0.499862
0.572217
0.564108
0.54758
0.527118
0.505657
0.483585
0.458135
0.430453
0.406035
0.384038
0.37578
0.362887
0.370369
0.382906
0.378966
0.388146
0.424081
0.465035
0.477182
0.485775
0.49718
0.578749
0.565957
0.545746
0.524694
0.504025
0.480059
0.453243
0.424843
0.399941
0.374126
0.360606
0.349764
0.347254
0.361788
0.364286
0.373798
0.404249
0.442466
0.468561
0.483794
0.496709
0.580615
0.564313
0.543353
0.523919
0.502617
0.476855
0.4494
0.4209
0.399026
0.374155
0.354059
0.346272
0.339396
0.349777
0.353683
0.358596
0.380613
0.42522
0.465348
0.486083
0.494689
0.579571
0.562794
0.544076
0.525075
0.502401
0.474011
0.444
0.413684
0.393684
0.375019
0.354463
0.347103
0.340642
0.34517
0.346905
0.343866
0.359515
0.414262
0.465472
0.484217
0.492202
0.577708
0.562513
0.54583
0.526341
0.501391
0.471359
0.438923
0.405651
0.380897
0.366912
0.351114
0.343521
0.338579
0.339391
0.339851
0.331546
0.344646
0.403535
0.461158
0.480327
0.487997
0.575606
0.562742
0.546442
0.524873
0.496857
0.464171
0.430243
0.397214
0.369625
0.353675
0.341047
0.333217
0.326811
0.323973
0.325066
0.321901
0.338765
0.394391
0.45362
0.473738
0.481098
0.573526
0.561398
0.542922
0.51716
0.485995
0.451842
0.416692
0.383547
0.35738
0.34052
0.327034
0.318888
0.313886
0.308049
0.306278
0.31116
0.338563
0.387539
0.443369
0.466394
0.474093
0.570277
0.555191
0.532146
0.504816
0.475079
0.44379
0.409679
0.375407
0.344794
0.323929
0.310173
0.303457
0.30448
0.299962
0.296485
0.305853
0.338119
0.38151
0.431012
0.458683
0.468835
0.563205
0.543072
0.518783
0.495995
0.471493
0.444076
0.412274
0.376867
0.342398
0.316927
0.299583
0.290445
0.29464
0.29545
0.296423
0.308813
0.338291
0.374724
0.416441
0.446742
0.462339
0.551974
0.530066
0.510952
0.493966
0.475414
0.451165
0.420076
0.383625
0.34606
0.317156
0.296366
0.28647
0.288768
0.292679
0.299259
0.314544
0.337813
0.367495
0.404118
0.434705
0.456161
0.540362
0.522048
0.51076
0.501662
0.488894
0.467491
0.434351
0.394467
0.353347
0.320758
0.2977
0.289526
0.291467
0.293862
0.300271
0.315151
0.334363
0.360843
0.394185
0.425686
0.452069
0.531613
0.520423
0.517508
0.517302
0.509057
0.488393
0.453451
0.408562
0.362845
0.326509
0.301506
0.29393
0.298121
0.302162
0.305562
0.315097
0.33162
0.357643
0.388859
0.418867
0.446304
0.527037
0.522427
0.527794
0.535316
0.530077
0.510742
0.474673
0.426525
0.375173
0.333836
0.306832
0.296999
0.303585
0.313538
0.318395
0.326317
0.341987
0.365612
0.392072
0.41679
0.439635
0.524902
0.525937
0.539122
0.552975
0.550746
0.531696
0.494442
0.443618
0.390041
0.345057
0.316526
0.302733
0.308126
0.322419
0.33164
0.342121
0.357081
0.377011
0.397123
0.414237
0.428146
0.526184
0.532863
0.550901
0.56688
0.565146
0.545309
0.508086
0.459316
0.406548
0.361566
0.330633
0.314776
0.317702
0.330324
0.339414
0.351037
0.364259
0.379096
0.391081
0.400373
0.410314
0.529059
0.538049
0.554906
0.570027
0.571034
0.550835
0.514527
0.470494
0.423814
0.382288
0.350508
0.331159
0.334663
0.34412
0.347237
0.354693
0.363939
0.372533
0.378929
0.388607
0.403595
0.532399
0.540727
0.555088
0.568231
0.570857
0.5528
0.518247
0.47941
0.441059
0.404246
0.372959
0.351758
0.354777
0.361899
0.356728
0.35738
0.36089
0.365919
0.375738
0.391226
0.412238
0.53556
0.541705
0.552236
0.56333
0.569799
0.555815
0.524094
0.489865
0.45648
0.426243
0.398431
0.378486
0.381774
0.383003
0.367048
0.35938
0.358579
0.363338
0.376116
0.39476
0.416438
0.538117
0.541553
0.548507
0.557931
0.567419
0.560668
0.534404
0.503011
0.471915
0.445956
0.423414
0.410309
0.416213
0.411169
0.380981
0.360831
0.355714
0.358866
0.369913
0.384882
0.401732
0.540535
0.541267
0.544777
0.552659
0.564965
0.56709
0.547375
0.518925
0.489073
0.464908
0.447826
0.441708
0.45132
0.445513
0.395747
0.357733
0.347391
0.348535
0.357615
0.37084
0.387469
0.542992
0.541409
0.542314
0.54865
0.563501
0.572059
0.55919
0.534592
0.507756
0.484396
0.472521
0.470835
0.481807
0.481999
0.408978
0.348564
0.338183
0.341557
0.352521
0.368738
0.388527
0.545988
0.542312
0.541363
0.546119
0.562586
0.57573
0.569464
0.548827
0.526659
0.506234
0.496943
0.496306
0.506405
0.515422
0.422858
0.338528
0.332749
0.339863
0.354357
0.372876
0.392036
0.549387
0.543591
0.541366
0.545186
0.560794
0.576464
0.576171
0.561458
0.544148
0.528911
0.521664
0.52125
0.528769
0.543838
0.44208
0.333897
0.33073
0.342281
0.357943
0.375074
0.389778
0.55329
0.545691
0.542251
0.545662
0.559113
0.576718
0.581371
0.571966
0.559548
0.549922
0.545403
0.548282
0.553781
0.572613
0.471624
0.336595
0.332928
0.347548
0.362297
0.375574
0.387486
0.557459
0.548501
0.543828
0.546839
0.557226
0.574765
0.584161
0.580902
0.572588
0.568615
0.567524
0.5746
0.582997
0.605135
0.5128
0.349987
0.340264
0.356599
0.369879
0.381954
0.393454
0.561588
0.551491
0.545511
0.548141
0.556201
0.573087
0.587108
0.588869
0.582686
0.582632
0.585659
0.597195
0.613368
0.637371
0.559277
0.376667
0.35183
0.368836
0.380937
0.393081
0.405425
0.565238
0.554404
0.547653
0.549707
0.555739
0.571163
0.588618
0.594099
0.588728
0.589791
0.59778
0.615077
0.637114
0.662174
0.606549
0.415187
0.362979
0.379028
0.389747
0.402399
0.416843
0.567954
0.556815
0.549941
0.551452
0.556023
0.570443
0.590816
0.598908
0.593072
0.591994
0.604407
0.626543
0.652695
0.676791
0.65033
0.460964
0.370321
0.385135
0.395708
0.409296
0.424645
0.569658
0.558666
0.552184
0.553597
0.557681
0.570743
0.59145
0.598648
0.590091
0.586768
0.603776
0.634474
0.6649
0.689409
0.687857
0.51294
0.37669
0.389013
0.401551
0.415787
0.431044
0.570707
0.559923
0.554109
0.555899
0.560538
0.572272
0.590248
0.595141
0.585124
0.578821
0.598151
0.635879
0.673734
0.700068
0.718456
0.569906
0.385875
0.392322
0.408548
0.422729
0.435873
0.571256
0.560681
0.555624
0.55808
0.563643
0.574279
0.587803
0.589313
0.578748
0.569959
0.585991
0.626582
0.674646
0.713517
0.746116
0.627263
0.405829
0.39603
0.414731
0.427188
0.435933
0.57165
0.561317
0.556822
0.559713
0.565898
0.57503
0.584197
0.581952
0.572109
0.563253
0.573349
0.613716
0.668494
0.719098
0.764957
0.682857
0.439234
0.398513
0.415311
0.424996
0.432148
0.57233
0.562331
0.558239
0.561104
0.566832
0.57414
0.579573
0.575437
0.567029
0.559057
0.562633
0.599765
0.657792
0.718685
0.77596
0.733497
0.479624
0.39895
0.411398
0.41977
0.427123
0.573781
0.56441
0.560621
0.562851
0.566915
0.572115
0.575013
0.571297
0.564386
0.557473
0.559038
0.589676
0.641612
0.708248
0.773294
0.76968
0.524494
0.395436
0.406327
0.412944
0.423421
0.575854
0.567729
0.564353
0.565461
0.567439
0.570596
0.572031
0.570207
0.564225
0.556529
0.55861
0.585279
0.627279
0.690482
0.761193
0.788367
0.57319
0.392469
0.400793
0.407273
0.419774
0.578504
0.572129
0.569363
0.568925
0.568743
0.570298
0.571391
0.570934
0.565885
0.55704
0.559866
0.580796
0.618288
0.671338
0.743685
0.792427
0.623139
0.393342
0.393798
0.403194
0.41394
0.581152
0.576805
0.574773
0.573054
0.571244
0.572028
0.573607
0.573538
0.567161
0.557906
0.562449
0.57841
0.611864
0.656861
0.722392
0.78328
0.669539
0.404884
0.386804
0.39844
0.405078
0.58275
0.580703
0.579642
0.577757
0.575602
0.575897
0.577965
0.57562
0.566421
0.558804
0.566215
0.581536
0.6108
0.646766
0.702122
0.763935
0.706043
0.425794
0.380546
0.390812
0.392815
0.583534
0.58353
0.583585
0.582326
0.580877
0.580735
0.581686
0.575449
0.56483
0.559856
0.569905
0.587169
0.61545
0.645149
0.685024
0.739878
0.726304
0.451493
0.373393
0.37989
0.377703
0.584274
0.585327
0.586211
0.5862
0.586058
0.585559
0.583568
0.573954
0.562941
0.559868
0.571737
0.592388
0.620813
0.646898
0.67499
0.715296
0.731735
0.477601
0.363549
0.366143
0.361541
0.585517
0.586476
0.587979
0.589533
0.590431
0.589509
0.584159
0.571856
0.560938
0.559024
0.571492
0.594589
0.623557
0.647774
0.667556
0.695511
0.72487
0.502271
0.35148
0.349482
0.344571
0.587157
0.587563
0.589276
0.591947
0.593813
0.592059
0.583244
0.569492
0.557984
0.557647
0.570472
0.594931
0.624539
0.648175
0.664916
0.683655
0.711046
0.524941
0.337275
0.330149
0.324949
0.58872
0.588431
0.590069
0.593414
0.595169
0.592031
0.580799
0.566004
0.555072
0.557002
0.570896
0.596284
0.625762
0.649458
0.667199
0.679484
0.696788
0.537938
0.322162
0.307517
0.300964
0.589893
0.589427
0.590686
0.593667
0.59423
0.589821
0.577371
0.562526
0.552887
0.557064
0.572607
0.599105
0.628121
0.652291
0.67165
0.681091
0.681656
0.538597
0.304315
0.27911
0.274842
0.590573
0.590393
0.591521
0.593326
0.592883
0.587391
0.574253
0.559512
0.551723
0.558196
0.575284
0.601767
0.630236
0.65502
0.675655
0.686981
0.676707
0.532549
0.278056
0.251785
0.254458
0.590629
0.591492
0.59303
0.593974
0.592228
0.585055
0.572022
0.557928
0.551909
0.560372
0.578079
0.602766
0.6304
0.655981
0.677271
0.693368
0.678896
0.520273
0.248589
0.234912
0.245084
0.59082
0.592788
0.595161
0.595699
0.592744
0.584245
0.571702
0.55905
0.554828
0.563801
0.580401
0.602716
0.629173
0.655479
0.678084
0.699335
0.682315
0.503627
0.228845
0.228645
0.240247
0.591332
0.593775
0.596613
0.597272
0.593724
0.584696
0.573158
0.563558
0.561062
0.569349
0.583781
0.603276
0.627853
0.654376
0.678405
0.704297
0.685635
0.492095
0.219929
0.22478
0.236513
0.591637
0.59411
0.59694
0.597703
0.593752
0.585034
0.574786
0.568703
0.567081
0.575121
0.587716
0.605511
0.628365
0.655265
0.679606
0.708478
0.687421
0.481892
0.214539
0.22161
0.233674
0.592062
0.594289
0.596363
0.596508
0.592754
0.585075
0.577548
0.573466
0.572469
0.579877
0.591959
0.609471
0.631334
0.658831
0.682309
0.712208
0.688275
0.472438
0.210631
0.218698
0.231438
0.592932
0.594357
0.595496
0.595178
0.591435
0.584564
0.57817
0.573188
0.574202
0.58206
0.595196
0.613919
0.635274
0.66304
0.685555
0.715059
0.688311
0.464269
0.208199
0.21671
0.229914
0.593718
0.594701
0.59519
0.594363
0.590393
0.583776
0.577057
0.571849
0.573599
0.582198
0.596799
0.617034
0.637744
0.665788
0.687662
0.716598
0.687548
0.459921
0.207626
0.216018
0.229246
0.593718
0.594701
0.59519
0.594363
0.590393
0.583776
0.577057
0.571849
0.573599
0.582198
0.596799
0.617034
0.637744
0.665788
0.687662
0.716598
0.687548
0.459921
0.207626
0.216018
0.229246
0.24376
0.592932
0.594357
0.595496
0.595178
0.591435
0.584564
0.57817
0.573188
0.574202
0.58206
0.595196
0.613919
0.635274
0.66304
0.685555
0.715059
0.688311
0.464269
0.208199
0.21671
0.229914
0.244199
0.592062
0.594289
0.596363
0.596508
0.592754
0.585075
0.577548
0.573466
0.572469
0.579877
0.591959
0.609471
0.631334
0.658831
0.682309
0.712208
0.688275
0.472438
0.210631
0.218698
0.231438
0.244961
0.591637
0.59411
0.59694
0.597703
0.593752
0.585034
0.574786
0.568703
0.567081
0.575121
0.587716
0.605511
0.628365
0.655265
0.679606
0.708478
0.687421
0.481892
0.214539
0.22161
0.233674
0.246494
0.591332
0.593775
0.596613
0.597272
0.593724
0.584696
0.573158
0.563558
0.561062
0.569349
0.583781
0.603276
0.627853
0.654376
0.678405
0.704297
0.685635
0.492095
0.219929
0.22478
0.236513
0.248489
0.59082
0.592788
0.595161
0.595699
0.592744
0.584245
0.571702
0.55905
0.554828
0.563801
0.580401
0.602716
0.629173
0.655479
0.678084
0.699335
0.682315
0.503627
0.228845
0.228645
0.240247
0.251468
0.590629
0.591492
0.59303
0.593974
0.592228
0.585055
0.572022
0.557928
0.551909
0.560372
0.578079
0.602766
0.6304
0.655981
0.677271
0.693368
0.678896
0.520273
1.25221
1.23628
1.22087
1.20363
1.19
1.17724
1.16084
1.14866
1.13368
1.46063
1.44152
1.42531
1.40645
1.38587
1.37061
1.35316
1.33207
1.31408
1.29863
1.28091
1.26052
1.24596
1.22957
1.2136
1.19602
1.18263
1.16974
1.15376
1.14272
1.12786
1.45643
1.43705
1.42012
1.4
1.37921
1.36415
1.34625
1.32529
1.30819
1.29256
1.27442
1.25415
1.23972
1.22298
1.20667
1.18881
1.17537
1.16185
1.14615
1.13612
1.12147
1.45212
1.43277
1.41537
1.39423
1.37328
1.35795
1.33915
1.31817
1.3018
1.28591
1.26745
1.2476
1.23325
1.21627
1.19985
1.18188
1.16856
1.15422
1.13842
1.12876
1.11409
1.4474
1.42853
1.41071
1.38881
1.36785
1.35218
1.33236
1.31127
1.29523
1.2788
1.26004
1.24084
1.22635
1.20923
1.1928
1.1749
1.16218
1.14714
1.13102
1.12087
1.10573
1.44204
1.42394
1.40579
1.38333
1.36259
1.34669
1.32596
1.30479
1.28877
1.27153
1.25244
1.23395
1.21902
1.20188
1.18521
1.16764
1.15604
1.14041
1.1242
1.1129
1.09693
1.43618
1.41865
1.40019
1.37737
1.35719
1.3412
1.31975
1.29863
1.28251
1.26431
1.24498
1.22707
1.21148
1.19442
1.17705
1.16019
1.14977
1.1334
1.11796
1.10505
1.08846
1.43036
1.41299
1.39387
1.37073
1.3514
1.33537
1.31335
1.29252
1.27636
1.25715
1.23776
1.22024
1.20396
1.18715
1.16874
1.15277
1.14284
1.12563
1.11199
1.09746
1.08084
1.42483
1.4074
1.38731
1.36373
1.34513
1.32894
1.30646
1.28622
1.27011
1.24993
1.23072
1.21336
1.19666
1.18025
1.16075
1.14557
1.13495
1.11725
1.10575
1.08999
1.07406
1.41945
1.40191
1.38079
1.35686
1.33865
1.32194
1.299
1.27957
1.2635
1.24244
1.22364
1.20631
1.18965
1.17358
1.15324
1.13864
1.12632
1.10887
1.09867
1.08214
1.06789
1.41402
1.39631
1.37431
1.35028
1.33221
1.31466
1.29118
1.27257
1.25637
1.23453
1.21636
1.19907
1.18278
1.16683
1.14597
1.13191
1.11773
1.10097
1.09055
1.07373
1.06201
1.40848
1.39039
1.36761
1.34383
1.3259
1.30736
1.28334
1.26535
1.24874
1.22626
1.20883
1.19154
1.1757
1.15953
1.13858
1.1253
1.10985
1.0936
1.08166
1.06502
1.05579
1.40287
1.38405
1.3605
1.33731
1.31965
1.30008
1.27559
1.25807
1.24084
1.21788
1.20114
1.18369
1.16804
1.1514
1.13093
1.11878
1.10267
1.08653
1.07247
1.05634
1.04883
1.39725
1.37741
1.35303
1.33071
1.31337
1.29267
1.26791
1.25085
1.2329
1.20963
1.19336
1.17543
1.15977
1.1425
1.12308
1.11212
1.09561
1.07949
1.06351
1.04806
1.04117
1.39158
1.37059
1.34545
1.32415
1.30693
1.28495
1.26025
1.24374
1.22504
1.20161
1.18544
1.16691
1.15124
1.13327
1.11516
1.10492
1.08795
1.07211
1.05518
1.04045
1.03321
1.3857
1.36361
1.33806
1.31782
1.30023
1.27681
1.25263
1.23675
1.21719
1.19368
1.17733
1.15848
1.14291
1.12415
1.10716
1.09682
1.07918
1.06423
1.04746
1.03358
1.02536
1.37944
1.35646
1.331
1.31175
1.29319
1.26826
1.24512
1.22974
1.20913
1.18568
1.1691
1.15048
1.13501
1.11529
1.09903
1.08783
1.06943
1.05591
1.03997
1.02724
1.01773
1.37275
1.34912
1.32421
1.30576
1.28573
1.25948
1.23777
1.22252
1.20066
1.17753
1.161
1.14317
1.12729
1.1064
1.09082
1.07842
1.05939
1.04726
1.03227
1.02093
1.01004
1.36579
1.34163
1.3176
1.2995
1.27772
1.25064
1.2305
1.21488
1.1917
1.16931
1.15337
1.13635
1.11909
1.09729
1.0828
1.06909
1.04972
1.03842
1.024
1.01398
1.00209
1.35876
1.33415
1.31099
1.29264
1.26913
1.24191
1.22321
1.20673
1.18231
1.16131
1.14623
1.1292
1.10998
1.08809
1.07513
1.06014
1.04092
1.02934
1.01484
1.00615
0.993954
1.35176
1.32679
1.30426
1.28509
1.26008
1.23341
1.21581
1.1981
1.17283
1.15367
1.13903
1.12105
1.09987
1.07914
1.06788
1.05167
1.0328
1.01988
1.00526
0.997809
0.985668
1.34473
1.31949
1.29722
1.27693
1.25076
1.2252
1.20831
1.18917
1.16351
1.14613
1.13112
1.11168
1.08922
1.07083
1.06083
1.04326
1.0247
1.01047
0.996061
0.98935
0.976953
1.33751
1.31207
1.28983
1.26834
1.24137
1.21733
1.20079
1.18009
1.15433
1.13818
1.1222
1.10132
1.07899
1.06328
1.0533
1.03412
1.01624
1.00171
0.987737
0.980874
0.967364
1.32989
1.30431
1.28204
1.2594
1.23205
1.20977
1.19323
1.1708
1.145
1.12968
1.11249
1.09068
1.06983
1.05603
1.04471
1.02383
1.00764
0.99401
0.980508
0.972207
0.956871
1.32163
1.29614
1.27392
1.25014
1.22294
1.20247
1.18542
1.16099
1.13543
1.1209
1.10228
1.08058
1.06164
1.04818
1.03485
1.01278
0.999489
0.987253
0.97367
0.9629
0.946046
1.31268
1.28772
1.2655
1.2405
1.21406
1.19526
1.17695
1.15033
1.12591
1.11213
1.09189
1.0715
1.05358
1.03906
1.02401
1.00211
0.992122
0.980349
0.966051
0.952994
0.935782
1.30324
1.27928
1.25673
1.23047
1.2055
1.18778
1.16747
1.13891
1.11686
1.10332
1.08178
1.0632
1.04453
1.02904
1.01307
0.992623
0.984874
0.972081
0.957283
0.943103
0.926657
1.29382
1.27107
1.24735
1.2202
1.19719
1.17964
1.15683
1.12735
1.10843
1.09428
1.07219
1.05453
1.0343
1.019
1.00286
0.984102
0.976691
0.962182
0.947588
0.933917
0.91901
1.28479
1.26282
1.23706
1.21001
1.18902
1.17063
1.14514
1.11646
1.1006
1.08492
1.06271
1.04474
1.02359
1.00963
0.993546
0.97579
0.96724
0.950989
0.937691
0.925776
0.912802
1.27623
1.25378
1.22588
1.20019
1.18074
1.16059
1.13277
1.10666
1.09316
1.07507
1.05263
1.0338
1.01324
1.00111
0.984723
0.9669
0.956924
0.939385
0.92834
0.91852
0.907035
1.26766
1.24339
1.21418
1.19084
1.17201
1.1494
1.12042
1.09817
1.08563
1.0645
1.04153
1.02232
1.00382
0.993062
0.975525
0.957407
0.946344
0.928468
0.919856
0.911253
0.900117
1.25823
1.23149
1.20248
1.18187
1.16217
1.13695
1.10893
1.09077
1.07742
1.05286
1.02963
1.01131
0.995377
0.984749
0.965331
0.947586
0.935831
0.918796
0.911891
0.902925
0.892077
1.24755
1.2185
1.1912
1.17277
1.15066
1.12357
1.09882
1.08394
1.0678
1.03991
1.01787
1.00152
0.987556
0.97547
0.953811
0.937561
0.925894
0.910453
0.903795
0.89344
0.883543
1.23585
1.20519
1.18048
1.16257
1.13726
1.1105
1.09005
1.07599
1.05606
1.02618
1.00739
0.993157
0.979559
0.964592
0.941177
0.927794
0.917169
0.90297
0.895169
0.883144
0.874709
1.22375
1.19241
1.1701
1.15071
1.12258
1.09885
1.08178
1.06531
1.0419
1.01316
0.998725
0.985909
0.970043
0.951577
0.928721
0.918948
0.909474
0.895412
0.885926
0.872448
0.865955
1.2118
1.18042
1.15947
1.13742
1.10815
1.0887
1.07201
1.05162
1.02642
1.00216
0.991991
0.977673
0.958052
0.937288
0.918042
0.911381
0.901728
0.887148
0.875637
0.862008
0.85791
1.20028
1.16897
1.14824
1.12332
1.0952
1.07929
1.05924
1.03597
1.01246
0.993533
0.984476
0.966589
0.943994
0.924574
0.909506
0.90434
0.892857
0.877485
0.864107
0.852789
0.851124
1.18902
1.15756
1.13647
1.10932
1.0841
1.06857
1.04358
1.02136
1.00108
0.984968
0.973778
0.952553
0.930436
0.91488
0.902705
0.895913
0.882068
0.865944
0.85303
0.845578
0.845964
1.17746
1.14582
1.12445
1.09633
1.07417
1.05512
1.02749
1.00963
0.990296
0.973782
0.96049
0.937202
0.919568
0.907393
0.89524
0.885262
0.86933
0.853751
0.844457
0.840305
0.841461
1.16484
1.13387
1.11279
1.08461
1.06311
1.03908
1.01413
0.999791
0.977751
0.960411
0.946233
0.92315
0.911193
0.899196
0.885159
0.873231
0.855952
0.84326
0.838022
0.836674
0.835637
1.15094
1.12255
1.10198
1.07314
1.0495
1.02336
1.00419
0.988811
0.962897
0.946882
0.932256
0.911334
0.902743
0.887903
0.873642
0.861318
0.843887
0.835016
0.832971
0.831898
0.828007
1.13695
1.11263
1.09122
1.06004
1.03428
1.01101
0.995336
0.974584
0.947555
0.934615
0.919064
0.900956
0.891378
0.874281
0.862874
0.850176
0.833747
0.827951
0.827557
0.824857
0.819006
1.1247
1.10391
1.07857
1.04496
1.02075
1.00191
0.984106
0.95734
0.93402
0.923773
0.906486
0.889588
0.876778
0.861811
0.853091
0.838954
0.824684
0.821281
0.820566
0.816137
0.809409
1.11482
1.09391
1.06277
1.03001
1.01017
0.993221
0.969569
0.939942
0.923007
0.913313
0.893374
0.875871
0.862109
0.851546
0.842676
0.827029
0.816265
0.814629
0.812378
0.806685
0.800341
1.10636
1.08051
1.04475
1.01728
1.00168
0.982024
0.952344
0.925618
0.91376
0.901697
0.878882
0.861128
0.849818
0.841663
0.830735
0.814985
0.80809
0.80723
0.803557
0.797231
0.792448
1.09596
1.06356
1.02795
1.00698
0.992278
0.9674
0.935001
0.914618
0.904584
0.888266
0.863306
0.847673
0.839208
0.830812
0.817377
0.803656
0.800032
0.799217
0.794729
0.788567
0.785607
1.08206
1.04489
1.01445
0.998201
0.97965
0.949463
0.920353
0.905848
0.893962
0.872905
0.847965
0.836212
0.829012
0.818575
0.803399
0.793645
0.792268
0.790644
0.785791
0.780518
0.779036
1.0649
1.02755
1.00394
0.988405
0.963412
0.930289
0.908752
0.897756
0.881555
0.855872
0.834478
0.826201
0.818138
0.804757
0.790017
0.784805
0.784743
0.781971
0.776949
0.772915
0.772645
1.04566
1.01327
0.995494
0.975723
0.943909
0.913379
0.899139
0.888165
0.867053
0.838792
0.823232
0.816858
0.806285
0.789799
0.77846
0.776905
0.777395
0.773618
0.768149
0.765448
0.766498
1.02697
1.00199
0.985933
0.959849
0.923617
0.899972
0.890056
0.875879
0.850236
0.824107
0.813786
0.806973
0.793114
0.775253
0.768449
0.769478
0.769781
0.765448
0.759638
0.758241
0.761072
1.011
0.99234
0.973043
0.941115
0.906054
0.889022
0.879291
0.860603
0.832354
0.812553
0.805077
0.795665
0.779238
0.763365
0.759772
0.762201
0.761746
0.75757
0.752434
0.752094
0.75689
0.998023
0.981293
0.956726
0.920868
0.892233
0.879632
0.865785
0.842083
0.815878
0.803053
0.795768
0.783346
0.765823
0.753796
0.75213
0.754466
0.753358
0.749719
0.746081
0.746893
0.753237
0.98665
0.967437
0.937247
0.901611
0.881525
0.869532
0.849217
0.821135
0.802373
0.794561
0.785536
0.770085
0.752953
0.746028
0.746218
0.746872
0.744779
0.741596
0.740155
0.742735
0.749501
0.974841
0.950747
0.915279
0.885542
0.87247
0.856747
0.829318
0.801481
0.790858
0.785811
0.77397
0.755305
0.742597
0.740409
0.741572
0.73919
0.735533
0.733523
0.734324
0.739695
0.744841
0.961003
0.931187
0.893866
0.872781
0.861577
0.840897
0.807978
0.785045
0.779491
0.774542
0.760655
0.742139
0.735436
0.736582
0.736197
0.731412
0.726501
0.725824
0.728658
0.735801
0.738738
0.944216
0.909279
0.876204
0.861168
0.847031
0.8223
0.788809
0.770939
0.767471
0.760426
0.746023
0.732692
0.729932
0.732159
0.73013
0.72429
0.718888
0.718618
0.723442
0.729756
0.730949
0.924358
0.887206
0.862133
0.848794
0.829811
0.80152
0.773888
0.760067
0.752988
0.74249
0.730298
0.725013
0.725879
0.727367
0.723966
0.717578
0.712283
0.712287
0.717706
0.721718
0.721905
0.901897
0.867594
0.850592
0.834907
0.810205
0.780214
0.762584
0.75304
0.737655
0.722569
0.717295
0.717923
0.722576
0.722009
0.717227
0.71047
0.706809
0.707498
0.711981
0.713032
0.713045
0.879708
0.852197
0.839165
0.819478
0.789053
0.764899
0.756383
0.74465
0.722505
0.705973
0.704987
0.710269
0.716974
0.715611
0.709666
0.704144
0.702719
0.704713
0.706065
0.704715
0.70544
0.861085
0.840393
0.828163
0.803318
0.771559
0.756732
0.750568
0.735276
0.711653
0.695729
0.695844
0.704579
0.709772
0.707954
0.70256
0.699561
0.69995
0.701506
0.700317
0.697433
0.698892
0.848324
0.833354
0.816476
0.786564
0.762133
0.753531
0.744061
0.727308
0.707519
0.693364
0.692339
0.697176
0.700351
0.699101
0.696305
0.695705
0.698274
0.697746
0.694512
0.690976
0.693536
0.840091
0.825991
0.804723
0.775005
0.758628
0.751205
0.737724
0.721594
0.706238
0.692752
0.690584
0.692161
0.692105
0.69119
0.69059
0.692517
0.69518
0.693182
0.688372
0.685673
0.69047
0.833433
0.819331
0.795936
0.76984
0.759133
0.748996
0.733297
0.72349
0.715777
0.705787
0.695341
0.68914
0.684376
0.683484
0.685339
0.690031
0.690475
0.6874
0.682741
0.68233
0.689397
0.828481
0.815535
0.78919
0.769536
0.762848
0.749537
0.734753
0.733002
0.733351
0.730054
0.714128
0.689727
0.679718
0.677947
0.681582
0.685639
0.684143
0.680444
0.678244
0.680307
0.68998
0.824299
0.812284
0.78705
0.772657
0.769044
0.754551
0.741432
0.742168
0.747212
0.748333
0.740865
0.714695
0.684716
0.676757
0.677512
0.678062
0.676019
0.673703
0.674385
0.679503
0.689958
0.821255
0.808224
0.785477
0.775593
0.771374
0.759677
0.748342
0.746936
0.749878
0.749407
0.746978
0.73804
0.713275
0.684367
0.672595
0.668263
0.667435
0.667891
0.671365
0.678563
0.689317
0.816874
0.803647
0.783702
0.775405
0.769126
0.759383
0.751973
0.747656
0.749474
0.750829
0.751659
0.750314
0.740136
0.711761
0.675457
0.661255
0.660157
0.663342
0.669519
0.676628
0.688481
0.810885
0.798215
0.780668
0.773282
0.76467
0.756196
0.752458
0.749317
0.748819
0.750463
0.751365
0.74932
0.743234
0.730113
0.695274
0.661835
0.656006
0.659817
0.666918
0.674065
0.687349
0.804879
0.790566
0.773869
0.766193
0.755998
0.752346
0.752407
0.751223
0.747544
0.744396
0.743478
0.743649
0.742734
0.735984
0.715452
0.676488
0.655255
0.656483
0.662917
0.670861
0.68552
0.799274
0.779399
0.76378
0.756439
0.745971
0.745317
0.749264
0.749517
0.745877
0.737954
0.731682
0.732438
0.736314
0.732304
0.720681
0.697764
0.664799
0.654263
0.658093
0.666817
0.682844
0.794473
0.769202
0.754981
0.74969
0.741272
0.738531
0.741669
0.74387
0.741122
0.73478
0.727719
0.721894
0.720382
0.719581
0.71704
0.70646
0.682427
0.65492
0.65342
0.662476
0.679517
0.791247
0.762412
0.750848
0.746277
0.740563
0.735001
0.735
0.73602
0.735923
0.733692
0.726815
0.715923
0.70611
0.704661
0.706478
0.705612
0.693085
0.66301
0.650926
0.659362
0.675813
0.785455
0.761612
0.748955
0.744223
0.741064
0.735534
0.730415
0.730374
0.731718
0.730704
0.724347
0.711375
0.698117
0.69158
0.693652
0.696603
0.691383
0.672947
0.652518
0.658459
0.673592
0.777985
0.759079
0.747361
0.741547
0.739158
0.736688
0.732134
0.729198
0.728633
0.72533
0.718431
0.707984
0.695519
0.686591
0.684621
0.68419
0.683451
0.67608
0.659671
0.659149
0.673522
0.766914
0.754552
0.743108
0.736708
0.736038
0.735438
0.733883
0.730717
0.725325
0.717893
0.712261
0.705973
0.696602
0.685262
0.674912
0.671525
0.672933
0.674947
0.667187
0.660814
0.670411
0.748636
0.742827
0.735944
0.728657
0.730124
0.732892
0.731904
0.729347
0.721778
0.712142
0.706631
0.701969
0.694039
0.681371
0.66736
0.661797
0.664738
0.669672
0.669439
0.661716
0.663252
0.733159
0.727956
0.72602
0.720902
0.718101
0.72104
0.724988
0.725078
0.718872
0.70928
0.701384
0.695018
0.687211
0.675645
0.664535
0.658122
0.657933
0.662213
0.665654
0.659872
0.655557
0.726511
0.71821
0.717713
0.715777
0.710977
0.708183
0.711016
0.715368
0.71357
0.705928
0.695498
0.684775
0.676952
0.670766
0.663376
0.65515
0.652144
0.654455
0.658249
0.655857
0.6502
0.7244
0.710198
0.710464
0.710604
0.707964
0.70293
0.699095
0.700408
0.700281
0.69653
0.686036
0.674908
0.66986
0.665721
0.659505
0.651985
0.648962
0.648348
0.650271
0.64857
0.6429
0.71909
0.703116
0.704115
0.707641
0.708242
0.703846
0.695102
0.687592
0.684234
0.68017
0.672748
0.666389
0.662818
0.658928
0.654072
0.649143
0.646476
0.645004
0.645898
0.643753
0.633119
0.707639
0.693963
0.694264
0.702138
0.704628
0.702286
0.692114
0.675708
0.668349
0.664411
0.656789
0.65146
0.649993
0.648745
0.647422
0.646009
0.643958
0.643001
0.642866
0.636992
0.625294
0.672339
0.671222
0.66908
0.679056
0.689125
0.691527
0.684012
0.666941
0.65875
0.654221
0.643764
0.633439
0.631662
0.633633
0.637633
0.640161
0.640692
0.641108
0.63895
0.629921
0.620519
0.63004
0.638336
0.641926
0.647781
0.660239
0.666239
0.665893
0.659875
0.651513
0.642069
0.62962
0.616865
0.611871
0.614484
0.621892
0.62846
0.63208
0.635453
0.633603
0.623966
0.617836
0.595665
0.605098
0.621788
0.625407
0.632195
0.642041
0.644027
0.643512
0.636856
0.624478
0.615022
0.606462
0.598924
0.599059
0.603851
0.611848
0.61793
0.623793
0.624654
0.620593
0.61183
0.562916
0.564759
0.585548
0.603277
0.604986
0.616754
0.623633
0.621425
0.613428
0.60673
0.60407
0.600527
0.591739
0.58623
0.587454
0.593646
0.601964
0.610084
0.613448
0.612446
0.600535
0.543622
0.538753
0.542608
0.562036
0.568949
0.578173
0.596457
0.592921
0.58632
0.587205
0.588917
0.58842
0.580844
0.571684
0.571406
0.576503
0.587171
0.596886
0.599442
0.598677
0.585413
0.539656
0.53401
0.531314
0.533365
0.538811
0.536496
0.553347
0.558808
0.554654
0.560477
0.566979
0.568135
0.563451
0.555458
0.55549
0.561168
0.574068
0.582819
0.58427
0.583825
0.573011
)
;

boundaryField
{
    inlet
    {
        type            calculated;
        value           nonuniform 0();
    }
    outlet
    {
        type            calculated;
        value           nonuniform 0();
    }
    triangle
    {
        type            calculated;
        value           nonuniform 0();
    }
    top
    {
        type            symmetryPlane;
    }
    bottom
    {
        type            symmetryPlane;
    }
    defaultFaces
    {
        type            empty;
    }
    procBoundary14to6
    {
        type            processor;
        value           nonuniform List<scalar> 
22
(
1.25873
1.24325
1.22846
1.2114
1.19703
1.18393
1.16727
1.15427
1.13952
1.46493
1.44641
1.43115
1.41347
1.39282
1.37665
1.35923
1.33814
1.31953
1.30432
1.28713
1.26691
1.26691
)
;
    }
    procBoundary14to13
    {
        type            processor;
        value           nonuniform List<scalar> 
140
(
0.564055
0.573255
0.57369
0.570654
0.563908
0.558437
0.559193
0.564612
0.574977
0.585047
0.590143
0.591024
0.589243
0.585096
0.580536
0.576692
0.572425
0.566029
0.557473
0.548935
0.541036
0.535984
0.533387
0.533775
0.535357
0.537803
0.540551
0.54355
0.547194
0.55153
0.556443
0.561561
0.566644
0.571698
0.576034
0.579322
0.581738
0.583393
0.58432
0.584767
0.585345
0.586542
0.587929
0.589331
0.589714
0.588576
0.586893
0.586208
0.586808