/*--------------------------------*- C++ -*----------------------------------*\
  =========                 |
  \\      /  F ield         | OpenFOAM: The Open Source CFD Toolbox
   \\    /   O peration     | Website:  https://openfoam.org
    \\  /    A nd           | Version:  8
     \\/     M anipulation  |
\*---------------------------------------------------------------------------*/
FoamFile
{
    version     2.0;
    format      ascii;
    class       volScalarField;
    location    "1.3";
    object      p;
}
// * * * * * * * * * * * * * * * * * * * * * * * * * * * * * * * * * * * * * //

dimensions      [1 -1 -2 0 0 0 0];

internalField   nonuniform List<scalar> 
2600
(
0.630787
0.582022
0.567991
0.624962
0.749728
0.908272
1.03499
1.21782
1.33854
1.28881
0.640419
0.58033
0.563036
0.612614
0.750185
0.918977
1.04489
1.22701
1.34289
1.28906
0.642218
0.578717
0.558242
0.604469
0.7524
0.927399
1.04913
1.22293
1.33881
1.27899
0.643496
0.578514
0.556647
0.596416
0.75565
0.936698
1.06285
1.22523
1.34124
1.2842
0.646369
0.577853
0.554319
0.594667
0.758586
0.945575
1.06696
1.23899
1.35278
1.30359
0.65104
0.580579
0.555734
0.593224
0.75937
0.949607
1.06869
1.23901
1.34707
1.30881
0.654758
0.586101
0.554939
0.595014
0.760371
0.952839
1.07255
1.24148
1.35043
1.31159
0.659946
0.590417
0.555477
0.594605
0.759929
0.952357
1.07123
1.24351
1.35426
1.30809
0.662402
0.593843
0.55685
0.593475
0.763388
0.953878
1.07182
1.24536
1.35744
1.2964
0.664825
0.595852
0.558592
0.595848
0.763423
0.951148
1.06769
1.24338
1.35529
1.30354
0.6648
0.596059
0.559702
0.597047
0.763357
0.951079
1.06807
1.24372
1.35388
1.31534
0.662344
0.59418
0.558247
0.594512
0.763023
0.95349
1.07269
1.24577
1.35469
1.32297
0.659961
0.590233
0.555186
0.594442
0.759861
0.952129
1.07173
1.24386
1.3522
1.30874
0.654935
0.585716
0.553535
0.592509
0.760235
0.952732
1.07253
1.24227
1.34848
1.30217
0.651315
0.580751
0.55558
0.593817
0.759404
0.949954
1.06785
1.23691
1.35094
1.29988
0.646404
0.578169
0.555521
0.596669
0.758883
0.945325
1.06584
1.23907
1.35404
1.29743
0.643369
0.578591
0.557307
0.597546
0.755691
0.935744
1.06347
1.22792
1.33681
1.30124
0.642248
0.578645
0.557933
0.603987
0.7519
0.928265
1.04929
1.22041
1.33725
1.29186
0.640575
0.580152
0.562349
0.611404
0.750036
0.918659
1.04432
1.22533
1.34706
1.28077
0.630961
0.582114
0.567929
0.624976
0.749726
0.907184
1.03495
1.21892
1.34161
1.27629
0.733955
0.57903
0.579016
0.641575
0.748149
0.892589
1.02153
1.20951
1.329
1.27668
0.840585
0.58195
0.59351
0.659979
0.745884
0.87664
0.999151
1.2009
1.31771
1.27542
0.944147
0.591529
0.614952
0.680154
0.747205
0.862005
0.984168
1.19322
1.31301
1.27037
1.02769
0.6203
0.633927
0.696422
0.74846
0.847798
0.968889
1.18344
1.31498
1.26296
1.09926
0.672674
0.648588
0.705803
0.746947
0.83317
0.953873
1.17175
1.31198
1.25565
1.15924
0.729107
0.671547
0.710495
0.742398
0.817447
0.937082
1.1579
1.30194
1.24998
1.21193
0.792664
0.702814
0.714148
0.736494
0.801593
0.916176
1.14289
1.29053
1.2457
1.25795
0.860061
0.739375
0.717892
0.730411
0.784384
0.893357
1.1281
1.28406
1.24224
1.301
0.929845
0.78108
0.725573
0.723807
0.766057
0.870653
1.1129
1.28234
1.23719
1.34274
0.999533
0.828253
0.736936
0.719117
0.747656
0.847445
1.09612
1.28026
1.23154
1.38523
1.06737
0.877438
0.75353
0.717673
0.73183
0.822252
1.07713
1.27126
1.22622
1.42983
1.13284
0.924191
0.779506
0.719735
0.720399
0.794739
1.05315
1.25921
1.22192
1.47645
1.19437
0.968892
0.810081
0.722482
0.71373
0.768126
1.02521
1.24844
1.21816
1.52513
1.25112
1.01127
0.840565
0.735901
0.710348
0.745191
0.992128
1.23776
1.21378
1.57419
1.30101
1.0523
0.871283
0.755849
0.708255
0.726393
0.955189
1.22771
1.20903
1.62124
1.34529
1.09016
0.903548
0.774941
0.709289
0.712709
0.91477
1.21183
1.20451
1.66313
1.38381
1.12548
0.935497
0.798206
0.711326
0.704282
0.872927
1.1924
1.20032
1.69816
1.41806
1.15939
0.964844
0.825218
0.719875
0.699319
0.83149
1.16863
1.19555
1.7266
1.44828
1.19183
0.995019
0.850498
0.730834
0.69727
0.794161
1.14118
1.18831
1.74928
1.47592
1.22296
1.02543
0.875172
0.745688
0.698691
0.762779
1.11106
1.18068
3.03037
2.8803
2.77741
2.67701
2.57923
2.48327
2.38154
2.2688
2.11349
1.93582
2.82845
2.68691
2.6206
2.5479
2.47439
2.39405
2.30234
2.19019
2.03378
1.8139
2.75829
2.65407
2.59858
2.52767
2.45817
2.38158
2.29199
2.17941
2.02396
1.80521
2.67106
2.59336
2.54722
2.48227
2.41962
2.34528
2.25732
2.14512
1.99437
1.77283
2.59661
2.53541
2.49787
2.43918
2.3811
2.3091
2.22442
2.11483
1.97013
1.75173
2.52638
2.47605
2.44377
2.392
2.34063
2.27325
2.19322
2.08673
1.9481
1.73646
2.46269
2.42244
2.39531
2.34999
2.30384
2.24005
2.16433
2.06113
1.92873
1.72783
2.40427
2.37316
2.35006
2.31017
2.26817
2.20805
2.13672
2.03731
1.91143
1.72299
2.35458
2.33082
2.31082
2.275
2.23583
2.17861
2.11099
2.01533
1.89601
1.72055
2.31459
2.29421
2.27564
2.2423
2.20516
2.15074
2.0866
1.99511
1.88257
1.72021
2.28271
2.26155
2.24294
2.21139
2.17595
2.12416
2.06322
1.9764
1.87082
1.7214
2.25258
2.23014
2.21181
2.18208
2.14808
2.09884
2.04119
1.95971
1.86159
1.72507
2.22078
2.19924
2.1821
2.15437
2.12183
2.07535
2.02139
1.94605
1.85516
1.73177
2.18965
2.17058
2.15477
2.12849
2.09735
2.05403
2.00464
1.93575
1.85208
1.74367
2.16035
2.14438
2.13001
2.1052
2.07606
2.03656
1.99211
1.92934
1.85392
1.76228
2.13735
2.1214
2.10683
2.08375
2.05785
2.0231
1.98415
1.92769
1.8627
1.78784
2.11618
2.10138
2.0879
2.06755
2.04532
2.01517
1.981
1.93219
1.87983
1.82002
2.09771
2.08558
2.07441
2.05732
2.0389
2.01286
1.98353
1.94498
1.90578
1.8547
2.08368
2.07592
2.06767
2.05352
2.0378
2.01555
1.99372
1.96705
1.93614
1.88615
2.08085
2.07541
2.06823
2.05556
2.04256
2.02589
2.01252
1.99375
1.96412
1.91108
1.00878
1.0287
1.05516
1.11544
1.22953
1.27556
1.28015
1.32725
2.01562
2.45004
1.00878
1.0287
1.05516
1.11544
1.22952
1.27561
1.28004
1.32693
2.01352
2.43888
1.00878
1.0287
1.05516
1.11544
1.2295
1.27566
1.27983
1.32634
2.01027
2.42275
1.00878
1.0287
1.05516
1.11544
1.22947
1.27577
1.27953
1.32543
2.00562
2.40312
1.00878
1.0287
1.05516
1.11543
1.22944
1.2759
1.27914
1.32416
1.99964
2.38254
1.00878
1.0287
1.05516
1.11542
1.22939
1.27606
1.27871
1.3225
1.99225
2.36077
1.00878
1.0287
1.05517
1.11542
1.22934
1.27622
1.27827
1.32041
1.9835
2.33914
1.00878
1.0287
1.05517
1.11541
1.22928
1.2764
1.27783
1.31786
1.97332
2.31716
1.00878
1.0287
1.05517
1.1154
1.22923
1.27657
1.27742
1.31484
1.9616
2.29533
1.00878
1.0287
1.05518
1.11539
1.22916
1.27674
1.27706
1.31139
1.9483
2.27327
1.00878
1.0287
1.05518
1.11538
1.2291
1.27689
1.2767
1.30756
1.93354
2.25162
1.00878
1.0287
1.05518
1.11537
1.22903
1.27705
1.27647
1.30344
1.91744
2.2303
1.00878
1.0287
1.05519
1.11536
1.22897
1.2772
1.27622
1.2991
1.90028
2.20963
1.00878
1.0287
1.05519
1.11534
1.22891
1.27736
1.27601
1.29472
1.88204
2.1891
1.00878
1.0287
1.05519
1.11533
1.22886
1.2775
1.27581
1.29042
1.86283
2.16915
1.00878
1.02869
1.0552
1.11532
1.22881
1.27764
1.27563
1.2863
1.84264
2.14933
1.00878
1.02869
1.0552
1.11532
1.22877
1.27777
1.27549
1.28244
1.8215
2.13032
1.00878
1.02869
1.0552
1.11531
1.22874
1.27789
1.27543
1.27905
1.79946
2.11208
1.00878
1.02869
1.05521
1.1153
1.22871
1.27798
1.27547
1.27626
1.77636
2.09416
1.00878
1.02869
1.05521
1.11529
1.2287
1.27805
1.27559
1.27393
1.75228
2.07729
1.00878
1.02869
1.05521
1.11529
1.2287
1.27805
1.27559
1.27393
1.75228
2.07729
1.00878
1.02869
1.05521
1.1153
1.22871
1.27798
1.27547
1.27626
1.77636
2.09416
1.00878
1.02869
1.0552
1.11531
1.22874
1.27789
1.27543
1.27905
1.79946
2.11208
1.00878
1.02869
1.0552
1.11532
1.22877
1.27777
1.27549
1.28244
1.8215
2.13032
1.00878
1.02869
1.0552
1.11532
1.22881
1.27764
1.27563
1.2863
1.84264
2.14933
1.00878
1.0287
1.05519
1.11533
1.22886
1.2775
1.27581
1.29042
1.86283
2.16915
1.00878
1.0287
1.05519
1.11534
1.22891
1.27736
1.27601
1.29472
1.88204
2.1891
1.00878
1.0287
1.05519
1.11536
1.22897
1.2772
1.27622
1.2991
1.90028
2.20963
1.00878
1.0287
1.05518
1.11537
1.22903
1.27705
1.27647
1.30344
1.91744
2.2303
1.00878
1.0287
1.05518
1.11538
1.2291
1.27689
1.2767
1.30756
1.93354
2.25162
1.00878
1.0287
1.05518
1.11539
1.22916
1.27674
1.27706
1.31139
1.9483
2.27327
1.00878
1.0287
1.05517
1.1154
1.22923
1.27657
1.27742
1.31484
1.9616
2.29533
1.00878
1.0287
1.05517
1.11541
1.22928
1.2764
1.27783
1.31786
1.97332
2.31716
1.00878
1.0287
1.05517
1.11542
1.22934
1.27622
1.27827
1.32041
1.9835
2.33914
1.00878
1.0287
1.05516
1.11542
1.22939
1.27606
1.27871
1.3225
1.99225
2.36077
1.00878
1.0287
1.05516
1.11543
1.22944
1.2759
1.27914
1.32416
1.99964
2.38254
1.00878
1.0287
1.05516
1.11544
1.22947
1.27577
1.27953
1.32543
2.00562
2.40312
1.00878
1.0287
1.05516
1.11544
1.2295
1.27566
1.27983
1.32634
2.01027
2.42275
1.00878
1.0287
1.05516
1.11544
1.22952
1.27561
1.28004
1.32693
2.01352
2.43888
1.00878
1.0287
1.05516
1.11544
1.22953
1.27556
1.28015
1.32725
2.01562
2.45004
2.08084
2.07541
2.06823
2.05556
2.04256
2.02589
2.01252
1.99375
1.96412
1.91109
2.08367
2.07592
2.06767
2.05352
2.0378
2.01555
1.99372
1.96705
1.93614
1.88615
2.09771
2.08558
2.07441
2.05732
2.0389
2.01286
1.98353
1.94498
1.90578
1.8547
2.11618
2.10138
2.0879
2.06755
2.04532
2.01517
1.981
1.93219
1.87983
1.82002
2.13735
2.1214
2.10683
2.08375
2.05785
2.0231
1.98415
1.92769
1.8627
1.78784
2.16035
2.14438
2.13001
2.1052
2.07606
2.03656
1.99211
1.92934
1.85392
1.76228
2.18965
2.17058
2.15477
2.12849
2.09735
2.05403
2.00464
1.93576
1.85208
1.74368
2.22078
2.19924
2.1821
2.15437
2.12183
2.07536
2.02139
1.94605
1.85516
1.73177
2.25258
2.23014
2.21181
2.18208
2.14808
2.09884
2.0412
1.95971
1.86159
1.72507
2.28271
2.26155
2.24294
2.21139
2.17595
2.12416
2.06323
1.9764
1.87082
1.72139
2.31459
2.29421
2.27564
2.2423
2.20516
2.15074
2.0866
1.99511
1.88257
1.7202
2.35458
2.33082
2.31082
2.275
2.23583
2.17861
2.11099
2.01533
1.89601
1.72054
2.40427
2.37317
2.35006
2.31017
2.26817
2.20805
2.13672
2.03731
1.91142
1.72298
2.46269
2.42244
2.39531
2.34999
2.30384
2.24005
2.16433
2.06113
1.92873
1.72783
2.52638
2.47605
2.44377
2.392
2.34063
2.27326
2.19322
2.08672
1.9481
1.73646
2.59661
2.53541
2.49787
2.43918
2.3811
2.3091
2.22442
2.11483
1.97012
1.75171
2.67106
2.59336
2.54722
2.48227
2.41962
2.34528
2.25732
2.14512
1.99437
1.77281
2.75829
2.65407
2.59858
2.52767
2.45817
2.38158
2.29199
2.17941
2.02396
1.80519
2.82845
2.68691
2.6206
2.5479
2.47439
2.39405
2.30234
2.19019
2.03378
1.8139
3.03037
2.8803
2.77741
2.67701
2.57923
2.48327
2.38154
2.26879
2.11349
1.93582
1.74928
1.47591
1.22295
1.02538
0.87515
0.745752
0.698594
0.762731
1.11035
1.17993
1.7266
1.44827
1.19182
0.994964
0.85045
0.730939
0.697136
0.794214
1.14163
1.18708
1.69815
1.41806
1.15938
0.964749
0.825271
0.720016
0.699259
0.831447
1.16965
1.19465
1.66312
1.38382
1.12545
0.935421
0.798367
0.71125
0.704186
0.872833
1.19295
1.20229
1.62123
1.34529
1.0901
0.903548
0.775017
0.709202
0.712714
0.915134
1.2113
1.2071
1.57418
1.30099
1.05225
0.871292
0.755848
0.708293
0.726583
0.956278
1.22651
1.20798
1.52513
1.25109
1.01123
0.840587
0.735861
0.710462
0.745428
0.99307
1.23765
1.21112
1.47645
1.19434
0.968862
0.810172
0.722306
0.713746
0.768174
1.02484
1.2489
1.21627
1.42982
1.13281
0.924208
0.779613
0.719538
0.720368
0.794627
1.05202
1.2598
1.22433
1.38521
1.06734
0.877489
0.753575
0.717513
0.731893
0.82236
1.07669
1.27088
1.23142
1.34271
0.999499
0.828315
0.736841
0.719165
0.74783
0.847948
1.09687
1.2787
1.23279
1.30099
0.929787
0.781088
0.725418
0.724042
0.766256
0.871172
1.11411
1.28153
1.23273
1.25797
0.859983
0.739391
0.717722
0.730472
0.784451
0.893406
1.12823
1.28522
1.23794
1.21196
0.792572
0.702908
0.713983
0.736382
0.801582
0.915677
1.14176
1.29227
1.24657
1.15923
0.729037
0.671658
0.710409
0.74233
0.817593
0.936551
1.15678
1.30217
1.25645
1.09918
0.672631
0.648611
0.705838
0.747003
0.833453
0.954187
1.1721
1.31071
1.26117
1.02759
0.62027
0.63397
0.69644
0.748634
0.848031
0.969795
1.18453
1.31312
1.26054
0.944091
0.591515
0.615083
0.680102
0.747449
0.861973
0.984856
1.19412
1.31492
1.26193
0.840604
0.581939
0.593386
0.659835
0.745916
0.876475
0.998287
1.20025
1.32052
1.26924
0.733933
0.579012
0.578519
0.641171
0.748108
0.893052
1.02102
1.20787
1.3298
1.28023
1.99046
1.84963
1.69003
1.52305
1.34544
1.17196
1.00503
0.800376
0.64963
0.691393
1.98888
1.84944
1.68871
1.5214
1.34356
1.17003
1.003
0.798726
0.649573
0.695885
1.98756
1.84936
1.68658
1.51824
1.33994
1.16643
0.999192
0.795691
0.649511
0.696486
1.98485
1.84774
1.68286
1.51305
1.33417
1.161
0.993619
0.791289
0.650415
0.700629
1.98172
1.84382
1.67778
1.5057
1.3261
1.15343
0.985611
0.785104
0.65007
0.708187
1.97787
1.83786
1.6696
1.49605
1.31586
1.14386
0.975406
0.777316
0.6494
0.718546
1.9732
1.82995
1.6599
1.48441
1.30361
1.13228
0.962698
0.767876
0.649526
0.731755
1.96757
1.82018
1.64866
1.47086
1.28936
1.11858
0.947486
0.757509
0.650482
0.74896
1.9603
1.80886
1.63564
1.4554
1.27311
1.10303
0.930302
0.746596
0.652328
0.770502
1.95135
1.79587
1.62077
1.43794
1.25474
1.08519
0.910687
0.735823
0.655538
0.797385
1.94089
1.78191
1.60348
1.41754
1.23372
1.06548
0.889748
0.725893
0.660887
0.830266
1.92931
1.76509
1.58285
1.39433
1.21033
1.04329
0.866963
0.717266
0.669417
0.870045
1.91569
1.74576
1.55879
1.36784
1.1844
1.01927
0.842898
0.710116
0.682512
0.915586
1.90053
1.72302
1.53081
1.33819
1.15612
0.992784
0.818005
0.707206
0.700841
0.964891
1.88319
1.6968
1.49908
1.30543
1.12507
0.963631
0.793027
0.703926
0.729532
1.01318
1.86511
1.66627
1.46286
1.2681
1.09111
0.931597
0.769647
0.700624
0.77179
1.05547
1.8465
1.63451
1.42177
1.22586
1.05258
0.89624
0.748631
0.697893
0.827431
1.0914
1.82705
1.59967
1.37521
1.17835
1.01106
0.857842
0.730327
0.698272
0.89466
1.121
1.8051
1.55933
1.32431
1.1257
0.964658
0.815973
0.714481
0.706231
0.973579
1.1469
1.77595
1.51374
1.26748
1.06978
0.913802
0.776959
0.704379
0.72962
1.05504
1.16851
1.77594
1.51375
1.26746
1.06982
0.913814
0.776981
0.704338
0.729664
1.05556
1.1682
1.8051
1.55933
1.32431
1.12565
0.96469
0.816023
0.714446
0.706246
0.973251
1.14688
1.82705
1.59966
1.3752
1.17836
1.01103
0.857848
0.730398
0.698301
0.894529
1.12124
1.8465
1.63452
1.42177
1.22587
1.05258
0.896229
0.748597
0.697881
0.827492
1.09129
1.86511
1.66626
1.46286
1.26808
1.09112
0.931596
0.769606
0.700602
0.771804
1.05521
1.88318
1.6968
1.49907
1.30543
1.12505
0.963621
0.793021
0.703928
0.729542
1.01314
1.90053
1.72302
1.53081
1.33819
1.15612
0.992779
0.817989
0.707196
0.700858
0.965019
1.91569
1.74576
1.55879
1.36784
1.18439
1.01926
0.8429
0.71013
0.682529
0.915685
1.92931
1.76509
1.58285
1.39432
1.21033
1.04328
0.866959
0.717283
0.669435
0.870072
1.94089
1.78191
1.60348
1.41754
1.23372
1.06548
0.889744
0.725909
0.660901
0.830282
1.95135
1.79587
1.62077
1.43793
1.25473
1.08519
0.910683
0.735827
0.655542
0.797402
1.9603
1.80886
1.63564
1.4554
1.2731
1.10303
0.930302
0.746592
0.652324
0.770514
1.96757
1.82018
1.64866
1.47086
1.28936
1.11858
0.947487
0.7575
0.65047
0.748961
1.9732
1.82995
1.6599
1.48441
1.30361
1.13228
0.962701
0.767872
0.649515
0.731746
1.97787
1.83786
1.6696
1.49605
1.31586
1.14386
0.975408
0.777316
0.649394
0.718535
1.98172
1.84383
1.67778
1.5057
1.3261
1.15343
0.985614
0.785107
0.650069
0.708179
1.98485
1.84774
1.68287
1.51305
1.33418
1.161
0.993621
0.791294
0.650419
0.700625
1.98756
1.84936
1.68658
1.51824
1.33994
1.16643
0.999193
0.795693
0.649516
0.696484
1.98889
1.84944
1.68871
1.5214
1.34356
1.17003
1.003
0.798725
0.649575
0.695883
1.99046
1.84963
1.69003
1.52305
1.34544
1.17197
1.00503
0.800374
0.649628
0.691393
2.09817
2.08806
2.07877
2.06851
2.06192
2.05377
2.04534
2.02722
1.99264
1.93571
2.1012
2.09017
2.08858
2.09005
2.09336
2.09281
2.08354
2.05821
2.01579
1.95661
2.09792
2.09566
2.10655
2.11679
2.12333
2.12089
2.10391
2.07136
2.02597
1.96805
2.09969
2.11149
2.1304
2.1397
2.14161
2.13023
2.10724
2.07297
2.02907
1.97617
2.11805
2.1393
2.15328
2.15793
2.14909
2.13101
2.10577
2.073
2.03239
1.98441
2.14383
2.16258
2.16917
2.16532
2.1515
2.13135
2.10613
2.07574
2.03841
1.9939
2.16893
2.17835
2.17746
2.1672
2.1514
2.13188
2.10706
2.07903
2.04533
2.00492
2.18858
2.18948
2.18224
2.16878
2.15247
2.13307
2.11036
2.08441
2.05237
2.01514
2.20452
2.19766
2.18553
2.17148
2.15565
2.13752
2.11617
2.09078
2.0613
2.02454
2.21912
2.20435
2.19143
2.17738
2.16167
2.144
2.12286
2.09783
2.06862
2.03308
2.23244
2.21285
2.19979
2.1853
2.16887
2.15068
2.129
2.10419
2.07471
2.04143
2.24552
2.22336
2.20984
2.19393
2.17626
2.15691
2.1347
2.10946
2.08022
2.04825
2.25828
2.23452
2.22012
2.20253
2.18351
2.16262
2.13963
2.11356
2.08488
2.05281
2.27013
2.24486
2.22944
2.2104
2.19025
2.16788
2.14395
2.11709
2.08842
2.05632
2.28038
2.25347
2.23719
2.21711
2.19624
2.17287
2.14807
2.12069
2.09146
2.05946
2.28862
2.26005
2.24314
2.22241
2.20113
2.17737
2.15199
2.12448
2.09445
2.06238
2.29523
2.26526
2.24789
2.22674
2.20509
2.18138
2.15569
2.12835
2.09774
2.06529
2.3001
2.26929
2.2515
2.23009
2.20801
2.18445
2.15857
2.13139
2.10081
2.06806
2.30283
2.27185
2.25371
2.23225
2.20982
2.18634
2.16041
2.13313
2.10267
2.06948
2.30395
2.27332
2.25504
2.23394
2.21135
2.18789
2.16207
2.1342
2.1039
2.07069
1.00878
1.02869
1.05521
1.11529
1.2287
1.27809
1.27584
1.27186
1.7208
2.05695
1.00878
1.02869
1.05521
1.11528
1.22871
1.2781
1.27619
1.27045
1.68371
2.03963
1.00878
1.02869
1.05522
1.11527
1.22875
1.27806
1.27655
1.2696
1.64774
2.03303
1.00878
1.02869
1.05522
1.11526
1.22881
1.27797
1.27693
1.269
1.61238
2.02702
1.00878
1.02869
1.05522
1.11525
1.22889
1.27784
1.27728
1.26859
1.57756
2.02285
1.00878
1.02869
1.05522
1.11524
1.22898
1.27768
1.27761
1.26832
1.5435
2.02206
1.00878
1.02869
1.05522
1.11523
1.22909
1.27751
1.2779
1.26815
1.5111
2.02171
1.00878
1.02869
1.05521
1.11522
1.2292
1.27732
1.27816
1.26805
1.48082
2.02194
1.00878
1.02869
1.05521
1.11521
1.22932
1.27713
1.27838
1.26795
1.45278
2.02233
1.00878
1.02869
1.05521
1.1152
1.22944
1.27695
1.27856
1.26783
1.42699
2.02305
1.00878
1.02869
1.05521
1.11518
1.22955
1.2768
1.2787
1.26768
1.40348
2.02415
1.00878
1.0287
1.05521
1.11517
1.22965
1.27667
1.2788
1.26747
1.3823
2.02562
1.00878
1.0287
1.0552
1.11515
1.22975
1.27658
1.27885
1.26718
1.36347
2.02714
1.00878
1.0287
1.0552
1.11513
1.22984
1.27652
1.27886
1.26681
1.34702
2.02833
1.00878
1.0287
1.0552
1.11511
1.22991
1.27648
1.27883
1.26634
1.33296
2.02896
1.00878
1.0287
1.0552
1.1151
1.22997
1.27647
1.27878
1.26578
1.32125
2.02885
1.00878
1.0287
1.0552
1.11508
1.23002
1.27648
1.27872
1.2651
1.31204
2.02842
1.00878
1.0287
1.0552
1.11507
1.23006
1.27649
1.27862
1.26438
1.30552
2.02785
1.00878
1.0287
1.05519
1.11507
1.23008
1.27651
1.27853
1.26358
1.3016
2.02693
1.00878
1.0287
1.05519
1.11506
1.23009
1.27652
1.27849
1.26318
1.2997
2.02641
1.00878
1.0287
1.05519
1.11506
1.23009
1.27652
1.27849
1.26318
1.2997
2.02641
1.00878
1.0287
1.05519
1.11507
1.23008
1.27651
1.27853
1.26358
1.3016
2.02693
1.00878
1.0287
1.0552
1.11507
1.23006
1.27649
1.27862
1.26438
1.30552
2.02785
1.00878
1.0287
1.0552
1.11508
1.23002
1.27648
1.27872
1.2651
1.31204
2.02842
1.00878
1.0287
1.0552
1.1151
1.22997
1.27647
1.27878
1.26578
1.32125
2.02885
1.00878
1.0287
1.0552
1.11511
1.22991
1.27648
1.27883
1.26634
1.33296
2.02896
1.00878
1.0287
1.0552
1.11513
1.22984
1.27652
1.27886
1.26681
1.34702
2.02833
1.00878
1.0287
1.0552
1.11515
1.22975
1.27658
1.27885
1.26718
1.36347
2.02714
1.00878
1.0287
1.05521
1.11517
1.22965
1.27667
1.2788
1.26747
1.3823
2.02562
1.00878
1.02869
1.05521
1.11518
1.22955
1.2768
1.2787
1.26768
1.40348
2.02415
1.00878
1.02869
1.05521
1.1152
1.22944
1.27695
1.27856
1.26783
1.42699
2.02305
1.00878
1.02869
1.05521
1.11521
1.22932
1.27713
1.27838
1.26795
1.45278
2.02233
1.00878
1.02869
1.05521
1.11522
1.2292
1.27732
1.27816
1.26805
1.48082
2.02194
1.00878
1.02869
1.05522
1.11523
1.22909
1.27751
1.2779
1.26815
1.5111
2.02171
1.00878
1.02869
1.05522
1.11524
1.22898
1.27768
1.27761
1.26832
1.5435
2.02206
1.00878
1.02869
1.05522
1.11525
1.22889
1.27784
1.27728
1.26859
1.57756
2.02285
1.00878
1.02869
1.05522
1.11526
1.22881
1.27797
1.27693
1.269
1.61238
2.02702
1.00878
1.02869
1.05522
1.11527
1.22875
1.27806
1.27655
1.2696
1.64774
2.03303
1.00878
1.02869
1.05521
1.11528
1.22871
1.2781
1.27619
1.27045
1.68371
2.03963
1.00878
1.02869
1.05521
1.11529
1.2287
1.27809
1.27584
1.27186
1.7208
2.05695
2.30395
2.27332
2.25504
2.23394
2.21135
2.18789
2.16207
2.1342
2.1039
2.07069
2.30283
2.27185
2.25371
2.23225
2.20982
2.18634
2.16041
2.13313
2.10267
2.06948
2.3001
2.26929
2.2515
2.23009
2.20801
2.18445
2.15857
2.13139
2.10081
2.06806
2.29523
2.26526
2.24789
2.22674
2.20509
2.18138
2.15569
2.12835
2.09774
2.06529
2.28862
2.26005
2.24314
2.22241
2.20113
2.17737
2.15199
2.12448
2.09445
2.06238
2.28038
2.25347
2.23718
2.21711
2.19624
2.17287
2.14807
2.12069
2.09146
2.05946
2.27013
2.24486
2.22944
2.2104
2.19025
2.16788
2.14395
2.11709
2.08842
2.05632
2.25827
2.23452
2.22012
2.20253
2.18351
2.16262
2.13963
2.11356
2.08488
2.05281
2.24552
2.22336
2.20984
2.19393
2.17626
2.15691
2.1347
2.10946
2.08022
2.04825
2.23244
2.21285
2.19979
2.1853
2.16887
2.15068
2.129
2.10418
2.07471
2.04143
2.21912
2.20435
2.19143
2.17738
2.16167
2.144
2.12286
2.09783
2.06862
2.03307
2.20452
2.19766
2.18553
2.17148
2.15565
2.13752
2.11617
2.09078
2.06129
2.02454
2.18858
2.18948
2.18224
2.16878
2.15247
2.13307
2.11036
2.08441
2.05237
2.01513
2.16893
2.17835
2.17746
2.1672
2.1514
2.13188
2.10706
2.07902
2.04532
2.00492
2.14383
2.16258
2.16917
2.16532
2.1515
2.13134
2.10613
2.07574
2.03841
1.9939
2.11805
2.1393
2.15328
2.15793
2.14909
2.13101
2.10576
2.07299
2.03239
1.98441
2.09969
2.11149
2.1304
2.1397
2.14161
2.13023
2.10723
2.07297
2.02907
1.97617
2.09792
2.09566
2.10655
2.11678
2.12333
2.12089
2.10391
2.07136
2.02597
1.96805
2.1012
2.09017
2.08857
2.09005
2.09336
2.09281
2.08354
2.05821
2.01579
1.95661
2.09817
2.08806
2.07877
2.0685
2.06192
2.05376
2.04534
2.02722
1.99264
1.93571
)
;

boundaryField
{
    inlet
    {
        type            fixedValue;
        value           uniform 1;
    }
    outlet
    {
        type            zeroGradient;
    }
    triangle
    {
        type            zeroGradient;
    }
    top
    {
        type            symmetryPlane;
    }
    bottom
    {
        type            symmetryPlane;
    }
    defaultFaces
    {
        type            empty;
    }
}


// ************************************************************************* //
