/*--------------------------------*- C++ -*----------------------------------*\
  =========                 |
  \\      /  F ield         | OpenFOAM: The Open Source CFD Toolbox
   \\    /   O peration     | Website:  https://openfoam.org
    \\  /    A nd           | Version:  8
     \\/     M anipulation  |
\*---------------------------------------------------------------------------*/
FoamFile
{
    version     2.0;
    format      ascii;
    class       volScalarField;
    location    "1.3";
    object      rho;
}
// * * * * * * * * * * * * * * * * * * * * * * * * * * * * * * * * * * * * * //

dimensions      [1 -3 0 0 0 0 0];

internalField   nonuniform List<scalar> 
2600
(
0.799709
0.754598
0.776772
0.884288
1.06213
1.25716
1.39258
1.57636
1.69407
1.64447
0.798634
0.742864
0.751005
0.840383
1.03346
1.24742
1.3868
1.57381
1.69182
1.63869
0.801044
0.742956
0.735435
0.803396
0.998337
1.2227
1.36361
1.54964
1.67714
1.61974
0.804052
0.744193
0.72627
0.772158
0.957111
1.18276
1.33054
1.51581
1.65835
1.60765
0.807957
0.742566
0.717771
0.753448
0.917333
1.13031
1.27336
1.47604
1.63226
1.59841
0.811436
0.742251
0.714933
0.743207
0.891076
1.0814
1.21806
1.41811
1.57864
1.56656
0.81267
0.74461
0.712484
0.742832
0.884072
1.0611
1.18944
1.37596
1.53203
1.53009
0.815693
0.747339
0.712822
0.744319
0.88744
1.05989
1.18147
1.35911
1.50053
1.49604
0.81712
0.750233
0.7147
0.746837
0.897948
1.06661
1.1856
1.3588
1.48788
1.46899
0.819021
0.752127
0.716884
0.750991
0.902377
1.06939
1.18589
1.35808
1.48262
1.46854
0.819
0.752326
0.717885
0.751871
0.902321
1.06932
1.18615
1.35835
1.48145
1.47828
0.817078
0.750571
0.715992
0.747514
0.897623
1.06626
1.18626
1.35912
1.48567
1.4908
0.815726
0.747198
0.712563
0.744259
0.887344
1.05967
1.18187
1.35939
1.49897
1.49658
0.812839
0.744246
0.711185
0.740803
0.883905
1.06102
1.1895
1.37664
1.53058
1.52205
0.811703
0.742369
0.714735
0.743767
0.89104
1.08175
1.21757
1.4165
1.58205
1.55847
0.808013
0.742849
0.718797
0.755093
0.917502
1.1302
1.27267
1.47606
1.63354
1.5925
0.803948
0.744288
0.726873
0.773044
0.957083
1.18199
1.33124
1.51807
1.65427
1.62272
0.801074
0.742872
0.735126
0.802922
0.997842
1.22355
1.36379
1.5473
1.67539
1.63164
0.798732
0.74265
0.750322
0.83919
1.03327
1.24712
1.38631
1.57229
1.6954
1.63174
0.799854
0.754644
0.776666
0.884251
1.0621
1.25604
1.39253
1.57747
1.69675
1.63314
0.962685
0.787004
0.824399
0.934002
1.08411
1.25494
1.38934
1.57516
1.6887
1.63666
1.13616
0.837051
0.881047
0.982606
1.09884
1.24712
1.37257
1.57001
1.67936
1.63744
1.28298
0.883699
0.934231
1.02472
1.10941
1.23569
1.35938
1.56263
1.67483
1.63353
1.39283
0.938641
0.975089
1.05389
1.1156
1.22261
1.34461
1.55144
1.67583
1.62647
1.47737
1.01575
1.00397
1.07004
1.11702
1.20833
1.32975
1.53811
1.67152
1.61926
1.54022
1.09497
1.03597
1.07876
1.11377
1.1926
1.3136
1.5237
1.66079
1.61359
1.59132
1.17336
1.07353
1.08448
1.10816
1.17688
1.29401
1.50942
1.64936
1.60929
1.63466
1.24735
1.11443
1.08842
1.10244
1.1601
1.27272
1.49613
1.64266
1.60577
1.67487
1.31916
1.15968
1.09662
1.0967
1.14215
1.25125
1.4827
1.64034
1.60065
1.71372
1.38874
1.21015
1.10993
1.09305
1.12384
1.22872
1.46775
1.63732
1.5948
1.7532
1.45541
1.26214
1.12957
1.09259
1.108
1.20365
1.45078
1.62818
1.58917
1.7947
1.51913
1.31107
1.15924
1.09646
1.09681
1.1758
1.42928
1.61711
1.58462
1.83818
1.57866
1.3575
1.19352
1.10125
1.09062
1.14867
1.40417
1.60796
1.58093
1.88365
1.63336
1.40117
1.22729
1.11696
1.08781
1.12503
1.37393
1.59959
1.57727
1.92955
1.68134
1.44307
1.26085
1.13947
1.08601
1.10536
1.33937
1.59223
1.57391
1.97355
1.72382
1.48146
1.2955
1.16087
1.08783
1.09087
1.30056
1.57942
1.57125
2.01274
1.76087
1.51718
1.32937
1.1864
1.09076
1.08184
1.25948
1.56273
1.5691
2.04558
1.79413
1.55149
1.36015
1.21538
1.10007
1.07669
1.21762
1.54097
1.56649
2.07227
1.82393
1.58434
1.39128
1.24198
1.11197
1.07459
1.17894
1.51496
1.56115
2.0932
1.85114
1.61548
1.42198
1.26745
1.12825
1.07648
1.14581
1.48608
1.5548
3.01247
2.90308
2.82477
2.74863
2.67505
2.60294
2.52601
2.43991
2.32008
2.16661
2.8749
2.77047
2.71915
2.66341
2.60717
2.54558
2.47483
2.38766
2.26475
2.08355
2.8351
2.75894
2.71879
2.66606
2.61297
2.55361
2.4836
2.39518
2.27162
2.09562
2.77981
2.72249
2.68952
2.64175
2.59443
2.53712
2.46832
2.37963
2.25854
2.07836
2.73127
2.68543
2.65771
2.6139
2.57007
2.51485
2.44878
2.36196
2.24508
2.06507
2.68373
2.64571
2.62131
2.58189
2.54252
2.49037
2.42764
2.34295
2.23055
2.0546
2.63916
2.60843
2.58759
2.55258
2.51668
2.46676
2.40691
2.32437
2.21655
2.04871
2.59588
2.57175
2.55377
2.52278
2.49002
2.44278
2.38616
2.3063
2.20343
2.04562
2.55613
2.53773
2.52243
2.49488
2.46457
2.41977
2.36612
2.28916
2.19147
2.04443
2.52348
2.50818
2.49445
2.46913
2.44055
2.398
2.34712
2.27344
2.18117
2.04513
2.50149
2.4853
2.47123
2.44696
2.41939
2.37857
2.32991
2.25965
2.17278
2.04755
2.48491
2.4669
2.45235
2.42885
2.40178
2.36227
2.31553
2.24885
2.16759
2.05289
2.467
2.44972
2.43607
2.41383
2.38739
2.34935
2.30472
2.24206
2.16605
2.06159
2.44957
2.43426
2.42155
2.40021
2.37461
2.33871
2.29723
2.2392
2.16828
2.07552
2.43172
2.41835
2.40647
2.38627
2.36246
2.32983
2.29243
2.23936
2.1745
2.09556
2.4113
2.39901
2.38792
2.3699
2.34938
2.32118
2.28881
2.2412
2.18544
2.12102
2.39137
2.38011
2.37023
2.35479
2.33768
2.31388
2.28643
2.24602
2.20214
2.15116
2.37397
2.36467
2.35645
2.34363
2.3298
2.30997
2.28731
2.25664
2.22476
2.18215
2.36023
2.35439
2.3485
2.33818
2.32676
2.31019
2.29384
2.27365
2.24964
2.20914
2.35468
2.35104
2.34649
2.33773
2.32863
2.31643
2.30721
2.29383
2.27152
2.2295
1.40878
1.4286
1.45477
1.51373
1.62247
1.66546
1.6698
1.71254
2.30632
2.61375
1.40878
1.4286
1.45477
1.51373
1.62246
1.66551
1.6697
1.71223
2.30448
2.6075
1.40878
1.4286
1.45477
1.51373
1.62244
1.66556
1.6695
1.71164
2.30123
2.59968
1.40878
1.4286
1.45477
1.51373
1.62241
1.66566
1.66922
1.71075
2.2964
2.58949
1.40878
1.4286
1.45477
1.51372
1.62238
1.66579
1.66886
1.70952
2.29032
2.57764
1.40878
1.4286
1.45477
1.51371
1.62233
1.66594
1.66847
1.70795
2.28316
2.56378
1.40878
1.4286
1.45477
1.51371
1.62228
1.6661
1.66805
1.70601
2.27514
2.54956
1.40878
1.4286
1.45478
1.5137
1.62223
1.66627
1.66765
1.70367
2.26625
2.53579
1.40878
1.4286
1.45478
1.51369
1.62218
1.66644
1.66727
1.70091
2.25626
2.52405
1.40878
1.4286
1.45478
1.51368
1.62212
1.66659
1.66693
1.69777
2.24476
2.51387
1.40878
1.42859
1.45479
1.51367
1.62206
1.66674
1.6666
1.69431
2.23147
2.50396
1.40878
1.42859
1.45479
1.51366
1.622
1.66689
1.66638
1.69061
2.21663
2.49219
1.40878
1.42859
1.45479
1.51364
1.62194
1.66703
1.66616
1.68674
2.20091
2.47761
1.40878
1.42859
1.4548
1.51363
1.62189
1.66718
1.66596
1.68286
2.18471
2.45951
1.40878
1.42859
1.4548
1.51362
1.62184
1.66731
1.66577
1.67904
2.16839
2.43962
1.40878
1.42859
1.4548
1.51361
1.6218
1.66744
1.6656
1.67538
2.15204
2.42014
1.40878
1.42859
1.45481
1.51361
1.62176
1.66756
1.66547
1.67191
2.13529
2.40201
1.40878
1.42859
1.45481
1.5136
1.62173
1.66767
1.66541
1.66881
2.11784
2.38494
1.40878
1.42859
1.45481
1.51359
1.62171
1.66775
1.66545
1.66621
2.09933
2.36833
1.40878
1.42859
1.45482
1.51358
1.6217
1.66782
1.66555
1.66403
2.07982
2.35357
1.40878
1.42859
1.45482
1.51358
1.6217
1.66782
1.66555
1.66403
2.07982
2.35357
1.40878
1.42859
1.45481
1.51359
1.62171
1.66775
1.66545
1.66621
2.09933
2.36833
1.40878
1.42859
1.45481
1.5136
1.62173
1.66767
1.66541
1.66881
2.11784
2.38494
1.40878
1.42859
1.45481
1.51361
1.62176
1.66756
1.66547
1.67191
2.13529
2.40201
1.40878
1.42859
1.4548
1.51361
1.6218
1.66744
1.6656
1.67538
2.15204
2.42014
1.40878
1.42859
1.4548
1.51362
1.62184
1.66731
1.66577
1.67904
2.16839
2.43962
1.40878
1.42859
1.4548
1.51363
1.62189
1.66718
1.66596
1.68286
2.18471
2.45951
1.40878
1.42859
1.45479
1.51364
1.62194
1.66703
1.66616
1.68674
2.20091
2.47761
1.40878
1.42859
1.45479
1.51366
1.622
1.66689
1.66638
1.69061
2.21663
2.49219
1.40878
1.42859
1.45479
1.51367
1.62206
1.66674
1.6666
1.69431
2.23147
2.50396
1.40878
1.4286
1.45478
1.51368
1.62212
1.66659
1.66693
1.69777
2.24476
2.51387
1.40878
1.4286
1.45478
1.51369
1.62218
1.66644
1.66727
1.70091
2.25626
2.52405
1.40878
1.4286
1.45478
1.5137
1.62223
1.66627
1.66765
1.70367
2.26625
2.53579
1.40878
1.4286
1.45477
1.51371
1.62228
1.6661
1.66805
1.70601
2.27514
2.54956
1.40878
1.4286
1.45477
1.51371
1.62233
1.66594
1.66847
1.70795
2.28316
2.56378
1.40878
1.4286
1.45477
1.51372
1.62238
1.66579
1.66886
1.70952
2.29032
2.57764
1.40878
1.4286
1.45477
1.51373
1.62241
1.66566
1.66922
1.71075
2.2964
2.58949
1.40878
1.4286
1.45477
1.51373
1.62244
1.66556
1.6695
1.71164
2.30123
2.59968
1.40878
1.4286
1.45477
1.51373
1.62246
1.66551
1.6697
1.71223
2.30448
2.6075
1.40878
1.4286
1.45477
1.51373
1.62247
1.66546
1.6698
1.71254
2.30632
2.61375
2.35468
2.35104
2.34649
2.33773
2.32863
2.31643
2.30721
2.29383
2.27152
2.2295
2.36023
2.35439
2.3485
2.33818
2.32676
2.31019
2.29384
2.27365
2.24964
2.20914
2.37397
2.36467
2.35645
2.34363
2.3298
2.30997
2.28731
2.25664
2.22476
2.18215
2.39137
2.38011
2.37023
2.35479
2.33768
2.31388
2.28643
2.24602
2.20215
2.15116
2.4113
2.39901
2.38792
2.3699
2.34938
2.32118
2.28881
2.2412
2.18544
2.12102
2.43172
2.41835
2.40647
2.38627
2.36246
2.32983
2.29243
2.23937
2.17451
2.09556
2.44956
2.43426
2.42155
2.40021
2.37462
2.33871
2.29723
2.2392
2.16828
2.07552
2.467
2.44972
2.43607
2.41383
2.38739
2.34935
2.30472
2.24206
2.16605
2.06159
2.48491
2.4669
2.45236
2.42885
2.40178
2.36227
2.31553
2.24885
2.16759
2.05289
2.50149
2.4853
2.47123
2.44696
2.41939
2.37857
2.32991
2.25965
2.17278
2.04754
2.52349
2.50818
2.49445
2.46913
2.44055
2.398
2.34712
2.27344
2.18117
2.04512
2.55613
2.53773
2.52243
2.49488
2.46457
2.41977
2.36612
2.28916
2.19147
2.04443
2.59589
2.57175
2.55377
2.52278
2.49002
2.44278
2.38616
2.3063
2.20343
2.04561
2.63916
2.60843
2.58759
2.55258
2.51668
2.46676
2.40691
2.32437
2.21655
2.04871
2.68373
2.64571
2.62131
2.58189
2.54252
2.49037
2.42764
2.34295
2.23054
2.0546
2.73127
2.68543
2.65771
2.6139
2.57007
2.51485
2.44878
2.36195
2.24508
2.06506
2.77981
2.72249
2.68952
2.64176
2.59443
2.53712
2.46832
2.37963
2.25854
2.07834
2.8351
2.75894
2.71879
2.66606
2.61298
2.55361
2.4836
2.39518
2.27162
2.09561
2.8749
2.77047
2.71915
2.66341
2.60717
2.54558
2.47483
2.38766
2.26475
2.08354
3.01247
2.90308
2.82477
2.74863
2.67505
2.60294
2.52601
2.43991
2.32007
2.16661
2.09321
1.85112
1.61547
1.42193
1.26743
1.12832
1.07636
1.14575
1.48541
1.55411
2.07226
1.82392
1.58433
1.39122
1.24193
1.11208
1.07445
1.179
1.51538
1.55997
2.04557
1.79412
1.55149
1.36006
1.21544
1.10023
1.07664
1.21759
1.54195
1.56566
2.01273
1.76087
1.51715
1.32929
1.18657
1.09067
1.08175
1.25939
1.56323
1.57097
1.97354
1.72382
1.4814
1.2955
1.16095
1.08773
1.09088
1.30093
1.57892
1.57361
1.92954
1.68132
1.44301
1.26085
1.13947
1.08605
1.10556
1.34045
1.59112
1.57295
1.88366
1.63333
1.40113
1.22731
1.11691
1.08792
1.12529
1.37484
1.59948
1.57491
1.83818
1.57863
1.35747
1.19361
1.10105
1.09063
1.14873
1.40379
1.60838
1.57926
1.79469
1.5191
1.31109
1.15935
1.09622
1.09679
1.17569
1.42816
1.61765
1.58683
1.75318
1.45538
1.26219
1.12961
1.0924
1.10807
1.20377
1.45035
1.62782
1.59405
1.71369
1.38871
1.21022
1.10983
1.09312
1.12403
1.22924
1.46846
1.63572
1.59604
1.67487
1.3191
1.1597
1.09646
1.09693
1.14236
1.25179
1.48383
1.63934
1.59642
1.63468
1.24727
1.11445
1.08823
1.10249
1.16017
1.27277
1.49624
1.64368
1.60164
1.59135
1.17326
1.07364
1.08429
1.10804
1.17687
1.29351
1.50838
1.651
1.60995
1.54022
1.0949
1.0361
1.07867
1.11369
1.19275
1.31307
1.52269
1.66098
1.61943
1.47731
1.0157
1.00401
1.07009
1.11709
1.20863
1.33005
1.53846
1.67024
1.62427
1.39274
0.938608
0.975137
1.05392
1.11579
1.22286
1.34551
1.55253
1.67412
1.62407
1.28292
0.88369
0.934364
1.02467
1.10968
1.23564
1.36005
1.5635
1.67696
1.62547
1.13616
0.837049
0.8809
0.982453
1.09887
1.24688
1.37169
1.56924
1.68245
1.63184
0.96265
0.787005
0.82392
0.933588
1.08409
1.25538
1.38885
1.57346
1.68969
1.64036
2.27347
2.15657
2.02354
1.8823
1.72639
1.56626
1.40437
1.19372
1.02645
1.07199
2.27243
2.15676
2.02275
1.88108
1.72477
1.56444
1.40235
1.19196
1.02638
1.0769
2.27205
2.15755
2.02189
1.87897
1.72171
1.56103
1.39853
1.1887
1.02634
1.07748
2.27098
2.15767
2.02019
1.87535
1.71673
1.5558
1.39288
1.18396
1.02739
1.08193
2.27002
2.15637
2.01754
1.86979
1.70947
1.54835
1.38467
1.17723
1.02706
1.09004
2.26882
2.15345
2.01208
1.86189
1.69995
1.53879
1.37408
1.16866
1.02636
1.1011
2.26711
2.14884
2.00497
1.85187
1.68832
1.52713
1.3608
1.1582
1.02652
1.11506
2.26457
2.14247
1.99622
1.83988
1.6747
1.51338
1.34488
1.14661
1.02754
1.13306
2.26044
2.1345
1.98572
1.82611
1.65922
1.49784
1.32686
1.13435
1.02946
1.15532
2.25434
2.12453
1.97337
1.81055
1.64186
1.48013
1.30629
1.1222
1.03278
1.18276
2.24606
2.11288
1.95853
1.79232
1.62208
1.46063
1.28427
1.11095
1.0384
1.21593
2.23574
2.09778
1.94007
1.77122
1.59996
1.43866
1.26021
1.10114
1.04751
1.25552
2.22278
2.0796
1.91776
1.74653
1.57511
1.41475
1.23464
1.09277
1.06168
1.30032
2.20813
2.05823
1.89144
1.71828
1.54755
1.38812
1.208
1.08877
1.08152
1.34876
2.19228
2.03468
1.86203
1.68682
1.51685
1.35848
1.18104
1.08451
1.11244
1.39687
2.1775
2.00943
1.82984
1.65136
1.48302
1.32553
1.15555
1.08035
1.15737
1.43893
2.16442
1.98526
1.79475
1.61194
1.44472
1.2888
1.13238
1.077
1.21485
1.47362
2.15226
1.95911
1.75529
1.56803
1.40361
1.24853
1.112
1.0772
1.28128
1.50094
2.13808
1.92671
1.71079
1.51894
1.35763
1.20418
1.09433
1.08543
1.35652
1.52439
2.11588
1.88662
1.65839
1.46554
1.30675
1.16229
1.083
1.1104
1.43324
1.54399
2.11588
1.88663
1.65837
1.46558
1.30676
1.16231
1.08297
1.11045
1.43375
1.54369
2.13808
1.92672
1.7108
1.5189
1.35766
1.20423
1.09429
1.08545
1.3562
1.52437
2.15226
1.9591
1.75529
1.56805
1.40358
1.24854
1.11207
1.07723
1.28115
1.50118
2.16442
1.98526
1.79475
1.61195
1.44472
1.28879
1.13234
1.07698
1.21491
1.47352
2.1775
2.00942
1.82984
1.65134
1.48303
1.32553
1.15551
1.08033
1.15739
1.43869
2.19228
2.03468
1.86203
1.68683
1.51683
1.35847
1.18103
1.08452
1.11246
1.39683
2.20813
2.05823
1.89144
1.71827
1.54756
1.38812
1.20798
1.08876
1.08154
1.34889
2.22278
2.0796
1.91776
1.74653
1.57511
1.41474
1.23464
1.09278
1.0617
1.30041
2.23574
2.09778
1.94007
1.77121
1.59996
1.43865
1.2602
1.10116
1.04752
1.25555
2.24607
2.11288
1.95853
1.79231
1.62208
1.46063
1.28427
1.11096
1.03842
1.21595
2.25435
2.12453
1.97337
1.81055
1.64186
1.48013
1.30629
1.1222
1.03279
1.18278
2.26044
2.1345
1.98572
1.82611
1.65922
1.49784
1.32686
1.13435
1.02945
1.15533
2.26457
2.14248
1.99622
1.83989
1.6747
1.51337
1.34488
1.1466
1.02753
1.13306
2.26711
2.14884
2.00497
1.85188
1.68832
1.52713
1.36081
1.15819
1.02651
1.11505
2.26882
2.15345
2.01208
1.8619
1.69995
1.53879
1.37408
1.16866
1.02635
1.10109
2.27002
2.15637
2.01754
1.86979
1.70947
1.54835
1.38467
1.17723
1.02706
1.09004
2.27098
2.15767
2.02019
1.87535
1.71673
1.5558
1.39288
1.18396
1.0274
1.08192
2.27205
2.15755
2.02189
1.87897
1.72172
1.56103
1.39853
1.18871
1.02634
1.07748
2.27243
2.15676
2.02275
1.88109
1.72477
1.56444
1.40235
1.19196
1.02638
1.0769
2.27347
2.15657
2.02354
1.8823
1.72639
1.56626
1.40437
1.19371
1.02644
1.07199
2.36256
2.3557
2.35045
2.34453
2.34084
2.33553
2.33024
2.31751
2.29162
2.24732
2.36646
2.3569
2.35607
2.35829
2.36149
2.36156
2.35529
2.33681
2.30489
2.25951
2.37041
2.36679
2.37427
2.38081
2.38363
2.38137
2.36806
2.34308
2.30824
2.26381
2.37997
2.38761
2.40054
2.40468
2.40185
2.39114
2.37158
2.3438
2.30916
2.26781
2.40014
2.41623
2.42572
2.42533
2.4154
2.39728
2.37419
2.34624
2.31312
2.27452
2.42286
2.43752
2.44129
2.43562
2.42198
2.40289
2.37964
2.35269
2.32085
2.28388
2.4386
2.44687
2.44564
2.43663
2.42281
2.4054
2.38319
2.35841
2.32938
2.29525
2.44796
2.44982
2.44477
2.43455
2.42164
2.40552
2.38618
2.36403
2.33704
2.30571
2.45757
2.45246
2.44338
2.43282
2.42086
2.40681
2.38981
2.36917
2.34498
2.31453
2.46788
2.45629
2.44619
2.43531
2.42323
2.40967
2.39327
2.37356
2.35019
2.32145
2.47795
2.46252
2.45227
2.44086
2.42794
2.41368
2.39669
2.3772
2.35387
2.32737
2.48794
2.47051
2.45994
2.44741
2.43341
2.41803
2.40037
2.38032
2.35704
2.33154
2.49744
2.47877
2.46752
2.45367
2.4386
2.42193
2.40351
2.38256
2.35949
2.33365
2.50589
2.48605
2.47397
2.45896
2.44297
2.42509
2.40584
2.38414
2.3609
2.33479
2.51287
2.49175
2.47896
2.46309
2.44648
2.42775
2.40776
2.38557
2.36177
2.33559
2.51824
2.49581
2.48251
2.46609
2.44911
2.43002
2.40951
2.38715
2.36265
2.3363
2.52246
2.49896
2.48526
2.46849
2.45119
2.43211
2.41129
2.38902
2.36399
2.33727
2.52557
2.50142
2.4874
2.47042
2.45275
2.43376
2.41275
2.39056
2.3655
2.33852
2.52731
2.50304
2.48875
2.47173
2.45377
2.43481
2.41373
2.39142
2.36644
2.3391
2.52804
2.50406
2.48968
2.47293
2.45485
2.43589
2.41488
2.3921
2.36724
2.33988
1.40878
1.42859
1.45482
1.51358
1.62169
1.66786
1.66579
1.66209
2.05391
2.34025
1.40878
1.42859
1.45482
1.51357
1.62171
1.66787
1.66611
1.66078
2.02271
2.33374
1.40878
1.42858
1.45482
1.51356
1.62175
1.66783
1.66645
1.65999
1.99204
2.33579
1.40878
1.42858
1.45482
1.51355
1.6218
1.66775
1.6668
1.65943
1.96193
2.33318
1.40878
1.42858
1.45482
1.51354
1.62187
1.66763
1.66713
1.65904
1.93255
2.32774
1.40878
1.42858
1.45482
1.51353
1.62196
1.66748
1.66743
1.65879
1.90391
2.3235
1.40878
1.42859
1.45482
1.51353
1.62205
1.66731
1.66771
1.65863
1.87653
2.31889
1.40878
1.42859
1.45482
1.51352
1.62216
1.66713
1.66795
1.65853
1.85058
2.31628
1.40878
1.42859
1.45482
1.51351
1.62227
1.66696
1.66817
1.65844
1.82614
2.31581
1.40878
1.42859
1.45482
1.51349
1.62238
1.66679
1.66835
1.65833
1.80335
2.31652
1.40878
1.42859
1.45481
1.51348
1.62248
1.66663
1.66848
1.65819
1.78234
2.31772
1.40878
1.42859
1.45481
1.51346
1.62258
1.66651
1.66858
1.658
1.76324
2.3192
1.40878
1.42859
1.45481
1.51345
1.62267
1.66642
1.66863
1.65773
1.74614
2.32053
1.40878
1.42859
1.45481
1.51343
1.62275
1.66636
1.66864
1.65738
1.73112
2.32132
1.40878
1.42859
1.45481
1.51341
1.62282
1.66633
1.66862
1.65695
1.71821
2.32148
1.40878
1.42859
1.4548
1.5134
1.62288
1.66632
1.66857
1.65642
1.70743
2.32098
1.40878
1.42859
1.4548
1.51338
1.62293
1.66632
1.66851
1.65579
1.69893
2.32021
1.40878
1.4286
1.4548
1.51337
1.62296
1.66633
1.66842
1.65512
1.69288
2.3194
1.40878
1.4286
1.4548
1.51337
1.62299
1.66634
1.66835
1.65438
1.68925
2.31843
1.40878
1.4286
1.4548
1.51336
1.623
1.66634
1.6683
1.65401
1.68747
2.31791
1.40878
1.4286
1.4548
1.51336
1.623
1.66634
1.6683
1.65401
1.68747
2.31791
1.40878
1.4286
1.4548
1.51337
1.62299
1.66634
1.66835
1.65438
1.68925
2.31843
1.40878
1.4286
1.4548
1.51337
1.62296
1.66633
1.66842
1.65512
1.69288
2.3194
1.40878
1.42859
1.4548
1.51338
1.62293
1.66632
1.66851
1.65579
1.69893
2.32021
1.40878
1.42859
1.4548
1.5134
1.62288
1.66632
1.66857
1.65642
1.70743
2.32098
1.40878
1.42859
1.45481
1.51341
1.62282
1.66633
1.66862
1.65695
1.71821
2.32148
1.40878
1.42859
1.45481
1.51343
1.62275
1.66636
1.66864
1.65738
1.73112
2.32132
1.40878
1.42859
1.45481
1.51345
1.62267
1.66642
1.66863
1.65773
1.74614
2.32053
1.40878
1.42859
1.45481
1.51346
1.62258
1.66651
1.66858
1.658
1.76324
2.3192
1.40878
1.42859
1.45481
1.51348
1.62248
1.66663
1.66848
1.65819
1.78234
2.31772
1.40878
1.42859
1.45482
1.51349
1.62238
1.66679
1.66835
1.65833
1.80335
2.31652
1.40878
1.42859
1.45482
1.51351
1.62227
1.66696
1.66817
1.65844
1.82614
2.31581
1.40878
1.42859
1.45482
1.51352
1.62216
1.66713
1.66795
1.65853
1.85058
2.31628
1.40878
1.42859
1.45482
1.51353
1.62205
1.66731
1.66771
1.65863
1.87653
2.31889
1.40878
1.42858
1.45482
1.51353
1.62196
1.66748
1.66743
1.65879
1.90391
2.3235
1.40878
1.42858
1.45482
1.51354
1.62187
1.66763
1.66713
1.65904
1.93255
2.32774
1.40878
1.42858
1.45482
1.51355
1.6218
1.66775
1.6668
1.65943
1.96193
2.33318
1.40878
1.42858
1.45482
1.51356
1.62175
1.66783
1.66645
1.65999
1.99204
2.33579
1.40878
1.42859
1.45482
1.51357
1.62171
1.66787
1.66611
1.66078
2.02271
2.33374
1.40878
1.42859
1.45482
1.51358
1.62169
1.66786
1.66579
1.66209
2.05391
2.34025
2.52804
2.50406
2.48968
2.47293
2.45485
2.43589
2.41488
2.3921
2.36724
2.33988
2.52731
2.50304
2.48875
2.47173
2.45377
2.43481
2.41373
2.39142
2.36644
2.3391
2.52557
2.50142
2.4874
2.47042
2.45275
2.43375
2.41275
2.39056
2.3655
2.33852
2.52246
2.49896
2.48526
2.46849
2.45119
2.43211
2.41129
2.38902
2.36399
2.33727
2.51824
2.49581
2.48251
2.46609
2.4491
2.43002
2.40951
2.38715
2.36265
2.3363
2.51287
2.49175
2.47896
2.46309
2.44648
2.42775
2.40776
2.38557
2.36177
2.33559
2.50589
2.48605
2.47397
2.45896
2.44297
2.42509
2.40584
2.38414
2.3609
2.33479
2.49744
2.47877
2.46752
2.45367
2.4386
2.42193
2.40351
2.38256
2.35949
2.33365
2.48794
2.47051
2.45994
2.44741
2.43341
2.41803
2.40037
2.38032
2.35704
2.33154
2.47795
2.46252
2.45227
2.44086
2.42794
2.41368
2.39669
2.3772
2.35387
2.32737
2.46788
2.45629
2.44619
2.43531
2.42323
2.40967
2.39327
2.37355
2.35019
2.32144
2.45757
2.45246
2.44338
2.43282
2.42086
2.40681
2.38981
2.36917
2.34497
2.31453
2.44796
2.44982
2.44477
2.43455
2.42164
2.40552
2.38617
2.36403
2.33704
2.30571
2.4386
2.44687
2.44564
2.43663
2.42281
2.4054
2.38319
2.35841
2.32938
2.29525
2.42286
2.43752
2.44129
2.43562
2.42198
2.40289
2.37964
2.35268
2.32085
2.28388
2.40015
2.41623
2.42572
2.42533
2.4154
2.39728
2.37419
2.34624
2.31312
2.27452
2.37997
2.38761
2.40054
2.40468
2.40185
2.39114
2.37158
2.3438
2.30916
2.26781
2.37041
2.36679
2.37427
2.38081
2.38363
2.38136
2.36806
2.34309
2.30824
2.26381
2.36646
2.3569
2.35607
2.35829
2.36149
2.36156
2.35529
2.33681
2.30489
2.25951
2.36256
2.3557
2.35045
2.34453
2.34084
2.33553
2.33024
2.31751
2.29162
2.24732
)
;

boundaryField
{
    inlet
    {
        type            calculated;
        value           uniform 1.40001;
    }
    outlet
    {
        type            calculated;
        value           nonuniform List<scalar> 
100
(
1.54376
1.52445
1.50124
1.47353
1.43867
1.39685
1.34897
1.30053
1.25561
1.21592
1.18267
1.15518
1.13288
1.11485
1.10086
1.08977
1.08166
1.07724
1.07672
1.07179
1.63635
1.63734
1.63363
1.62663
1.61936
1.61357
1.60922
1.60574
1.60071
1.5949
1.58925
1.58464
1.58095
1.57733
1.57397
1.57128
1.56911
1.56656
1.56129
1.55496
1.64461
1.63805
1.61916
1.60802
1.59908
1.5666
1.53001
1.49632
1.46878
1.46831
1.47901
1.49123
1.4968
1.52246
1.5585
1.5921
1.6227
1.63211
1.63195
1.63298
1.55412
1.56009
1.56587
1.57114
1.57349
1.5728
1.57495
1.57944
1.58712
1.59414
1.59571
1.59637
1.60178
1.61024
1.61965
1.62404
1.62378
1.62546
1.63205
1.64071
1.07179
1.07672
1.07724
1.08166
1.08978
1.10087
1.11486
1.13288
1.15516
1.18265
1.2159
1.25558
1.30043
1.34885
1.39689
1.43891
1.47362
1.501
1.52449
1.54407
)
;
    }
    triangle
    {
        type            calculated;
        value           nonuniform List<scalar> 
40
(
3.01247
2.90308
2.82477
2.74863
2.67505
2.60294
2.52601
2.43991
2.32008
2.16661
0.799709
0.798634
0.801044
0.804052
0.807957
0.811436
0.81267
0.815693
0.81712
0.819021
0.819
0.817078
0.815726
0.812839
0.811703
0.808013
0.803948
0.801074
0.798732
0.799854
3.01247
2.90308
2.82477
2.74863
2.67505
2.60294
2.52601
2.43991
2.32007
2.16661
)
;
    }
    top
    {
        type            symmetryPlane;
    }
    bottom
    {
        type            symmetryPlane;
    }
    defaultFaces
    {
        type            empty;
    }
}


// ************************************************************************* //
