/*--------------------------------*- C++ -*----------------------------------*\
  =========                 |
  \\      /  F ield         | OpenFOAM: The Open Source CFD Toolbox
   \\    /   O peration     | Website:  https://openfoam.org
    \\  /    A nd           | Version:  8
     \\/     M anipulation  |
\*---------------------------------------------------------------------------*/
FoamFile
{
    version     2.0;
    format      ascii;
    class       volScalarField;
    location    "1.3";
    object      T;
}
// * * * * * * * * * * * * * * * * * * * * * * * * * * * * * * * * * * * * * //

dimensions      [0 0 0 1 0 0 0];

internalField   nonuniform List<scalar> 
2600
(
1.10428
1.07983
1.02371
0.98944
0.988224
1.01148
1.04051
1.08158
1.10619
1.09722
1.12265
1.09369
1.0496
1.02056
1.01626
1.03138
1.05484
1.09151
1.11126
1.1013
1.12242
1.09052
1.06269
1.05335
1.05512
1.06188
1.07713
1.10484
1.11758
1.10548
1.12045
1.08832
1.07303
1.08137
1.10532
1.10875
1.11834
1.13163
1.13229
1.11834
1.12001
1.08946
1.08119
1.10497
1.15773
1.17119
1.17308
1.17517
1.16029
1.14178
1.12327
1.09507
1.08826
1.11748
1.19308
1.22938
1.22832
1.22319
1.19464
1.16966
1.12797
1.10198
1.09044
1.12141
1.20411
1.25716
1.26241
1.26317
1.23405
1.20009
1.13269
1.10604
1.09098
1.11841
1.19885
1.25797
1.26937
1.28093
1.26353
1.22412
1.13492
1.10817
1.0908
1.11252
1.19021
1.25204
1.26565
1.28312
1.27727
1.23552
1.13643
1.10912
1.09088
1.11079
1.18442
1.24521
1.26047
1.28176
1.27977
1.24271
1.13641
1.10921
1.09152
1.11172
1.18439
1.2452
1.26063
1.28186
1.27945
1.24569
1.13488
1.1083
1.09156
1.11345
1.19007
1.25194
1.26596
1.28324
1.27658
1.24239
1.13267
1.10591
1.0908
1.11819
1.19887
1.25793
1.26953
1.28102
1.26292
1.22428
1.12804
1.10179
1.08966
1.11975
1.20413
1.25712
1.26233
1.26335
1.23344
1.19775
1.12337
1.09521
1.08826
1.11775
1.19318
1.22943
1.22785
1.22251
1.19549
1.16771
1.11999
1.08964
1.08199
1.10627
1.15797
1.171
1.17249
1.17523
1.16046
1.1406
1.12037
1.08833
1.07341
1.08217
1.10541
1.10834
1.11841
1.13242
1.13134
1.12265
1.12243
1.09051
1.06255
1.05313
1.05494
1.06214
1.07715
1.10424
1.11744
1.10847
1.12279
1.09367
1.04927
1.01999
1.01624
1.03127
1.05464
1.09106
1.11236
1.09888
1.10439
1.07993
1.02374
0.989504
0.988247
1.01117
1.04051
1.08179
1.10697
1.09409
1.06737
1.03004
0.983293
0.961677
0.966149
0.995767
1.02937
1.07502
1.1018
1.09208
1.03579
0.973336
0.943102
0.94033
0.950316
0.984106
1.01912
1.07087
1.09852
1.09048
1.03027
0.937134
0.921544
0.929252
0.942926
0.976632
1.01358
1.06904
1.09756
1.08876
1.03298
0.925191
0.910174
0.925141
0.939272
0.970809
1.0088
1.06792
1.09854
1.08711
1.04169
0.927147
0.904432
0.923449
0.936176
0.965333
1.00427
1.06655
1.09887
1.08563
1.05371
0.932218
0.90753
0.922073
0.933196
0.959611
0.998719
1.0639
1.09751
1.08452
1.06622
0.945775
0.916551
0.921928
0.930453
0.953569
0.991225
1.06004
1.09542
1.0837
1.07737
0.965318
0.928844
0.923403
0.927559
0.946589
0.982701
1.05562
1.09437
1.08306
1.08749
0.986832
0.942943
0.926304
0.923985
0.939008
0.974157
1.05083
1.09446
1.0821
1.09694
1.00764
0.958195
0.929529
0.921065
0.931381
0.965578
1.04553
1.0947
1.08112
1.10617
1.02673
0.973283
0.933938
0.919603
0.924698
0.956388
1.03943
1.0931
1.08026
1.11538
1.04401
0.98688
0.941407
0.918991
0.919537
0.94628
1.03158
1.09016
1.07956
1.1245
1.0592
0.999228
0.950232
0.918485
0.916201
0.936194
1.02217
1.08698
1.07875
1.13353
1.07238
1.01043
0.95886
0.922387
0.914216
0.927324
1.01096
1.08332
1.07737
1.14217
1.08331
1.0209
0.967446
0.928669
0.913032
0.920023
0.998432
1.07949
1.07544
1.15008
1.09258
1.03022
0.976436
0.934575
0.912836
0.914681
0.984716
1.07417
1.07323
1.15683
1.10022
1.03856
0.985205
0.941919
0.913
0.911409
0.97032
1.06824
1.07096
1.16223
1.10655
1.04619
0.993115
0.950571
0.916148
0.909311
0.956034
1.06172
1.06849
1.16648
1.11166
1.05316
1.00126
0.958713
0.920141
0.908421
0.943073
1.05459
1.06565
1.16998
1.11623
1.05984
1.00958
0.966698
0.925301
0.908679
0.932001
1.04671
1.06313
1.40832
1.38902
1.37653
1.36353
1.34986
1.33564
1.31994
1.30182
1.27535
1.25087
1.37738
1.35778
1.34926
1.33929
1.3287
1.31667
1.30243
1.28422
1.25722
1.21882
1.36207
1.34679
1.33811
1.32733
1.31706
1.30569
1.292
1.27389
1.24737
1.20599
1.34523
1.33361
1.32593
1.31549
1.30568
1.29414
1.28033
1.26204
1.23626
1.19419
1.33098
1.32179
1.31581
1.30642
1.29706
1.28547
1.27173
1.25353
1.22854
1.18758
1.31792
1.31023
1.30519
1.29704
1.28884
1.27795
1.26482
1.2469
1.22273
1.18323
1.30639
1.30018
1.29597
1.28889
1.2816
1.27134
1.25891
1.24145
1.21821
1.18072
1.29666
1.2919
1.28833
1.28202
1.27527
1.26547
1.25366
1.23671
1.21447
1.1792
1.28962
1.28586
1.28256
1.27662
1.27007
1.26048
1.24905
1.23253
1.21125
1.17821
1.28411
1.28057
1.2772
1.27139
1.26497
1.25565
1.24461
1.22861
1.20835
1.17758
1.27756
1.27396
1.27067
1.26522
1.25914
1.25026
1.23976
1.22451
1.20544
1.177
1.26911
1.26564
1.26268
1.25776
1.25212
1.24388
1.23414
1.22
1.20237
1.17644
1.26028
1.25685
1.25405
1.24952
1.24428
1.23673
1.2279
1.21517
1.19907
1.17603
1.25146
1.24835
1.24577
1.24151
1.23654
1.22959
1.22169
1.21028
1.19584
1.17617
1.24377
1.2414
1.23917
1.23511
1.23028
1.22378
1.2166
1.20619
1.1936
1.17734
1.24095
1.23799
1.2352
1.23097
1.22628
1.22022
1.21366
1.20416
1.19325
1.18008
1.2389
1.23605
1.23325
1.22923
1.22492
1.21927
1.21299
1.20439
1.19509
1.18449
1.23709
1.23477
1.23244
1.22897
1.2252
1.21994
1.21407
1.20666
1.19928
1.18992
1.23596
1.23442
1.23259
1.22956
1.22614
1.22145
1.21683
1.21121
1.20491
1.19532
1.23719
1.23587
1.23399
1.23102
1.22802
1.22441
1.22119
1.21686
1.21054
1.20006
1.0025
1.00811
1.01544
1.03164
1.06095
1.07225
1.07331
1.08503
1.22354
1.31231
1.0025
1.00811
1.01544
1.03164
1.06094
1.07226
1.07329
1.08497
1.22324
1.30947
1.0025
1.00811
1.01544
1.03164
1.06094
1.07227
1.07324
1.08485
1.223
1.30472
1.0025
1.00811
1.01544
1.03164
1.06093
1.0723
1.07316
1.08468
1.22273
1.29925
1.0025
1.00811
1.01544
1.03164
1.06092
1.07233
1.07307
1.08442
1.22232
1.29404
1.0025
1.00811
1.01544
1.03163
1.06091
1.07236
1.07296
1.08405
1.22163
1.28915
1.0025
1.00811
1.01544
1.03163
1.0609
1.07239
1.07285
1.08357
1.22055
1.28446
1.0025
1.00811
1.01544
1.03163
1.06089
1.07243
1.07275
1.08297
1.21904
1.2793
1.0025
1.00811
1.01544
1.03163
1.06087
1.07247
1.07265
1.08224
1.21716
1.27315
1.0025
1.00811
1.01544
1.03163
1.06086
1.07251
1.07256
1.08139
1.21511
1.26601
1.0025
1.00811
1.01545
1.03162
1.06084
1.07254
1.07247
1.08044
1.21308
1.25892
1.0025
1.00811
1.01545
1.03162
1.06082
1.07258
1.07242
1.07938
1.21104
1.25289
1.0025
1.00811
1.01545
1.03162
1.06081
1.07262
1.07236
1.07826
1.20877
1.24858
1.0025
1.00811
1.01545
1.03162
1.06079
1.07266
1.07231
1.0771
1.20604
1.24609
1.0025
1.00811
1.01545
1.03161
1.06077
1.07269
1.07226
1.07596
1.20273
1.24479
1.0025
1.00811
1.01545
1.03161
1.06076
1.07272
1.07222
1.07487
1.19873
1.24335
1.0025
1.00811
1.01545
1.03161
1.06075
1.07276
1.07219
1.07387
1.19426
1.24165
1.0025
1.00811
1.01545
1.03161
1.06074
1.07278
1.07217
1.07303
1.18954
1.23983
1.0025
1.00811
1.01545
1.0316
1.06074
1.07281
1.07219
1.07236
1.18462
1.23793
1.0025
1.00811
1.01545
1.0316
1.06073
1.07282
1.07222
1.0718
1.17953
1.23567
1.0025
1.00811
1.01545
1.0316
1.06073
1.07282
1.07222
1.0718
1.17953
1.23567
1.0025
1.00811
1.01545
1.0316
1.06074
1.07281
1.07219
1.07236
1.18462
1.23793
1.0025
1.00811
1.01545
1.03161
1.06074
1.07278
1.07217
1.07303
1.18954
1.23983
1.0025
1.00811
1.01545
1.03161
1.06075
1.07276
1.07219
1.07387
1.19426
1.24165
1.0025
1.00811
1.01545
1.03161
1.06076
1.07272
1.07222
1.07487
1.19873
1.24335
1.0025
1.00811
1.01545
1.03161
1.06077
1.07269
1.07226
1.07596
1.20273
1.24479
1.0025
1.00811
1.01545
1.03162
1.06079
1.07266
1.07231
1.0771
1.20604
1.24609
1.0025
1.00811
1.01545
1.03162
1.06081
1.07262
1.07236
1.07826
1.20877
1.24858
1.0025
1.00811
1.01545
1.03162
1.06082
1.07258
1.07242
1.07938
1.21104
1.25289
1.0025
1.00811
1.01545
1.03162
1.06084
1.07254
1.07247
1.08044
1.21308
1.25892
1.0025
1.00811
1.01544
1.03163
1.06086
1.07251
1.07256
1.08139
1.21511
1.26601
1.0025
1.00811
1.01544
1.03163
1.06087
1.07247
1.07265
1.08224
1.21716
1.27315
1.0025
1.00811
1.01544
1.03163
1.06089
1.07243
1.07275
1.08297
1.21904
1.2793
1.0025
1.00811
1.01544
1.03163
1.0609
1.07239
1.07285
1.08357
1.22055
1.28446
1.0025
1.00811
1.01544
1.03163
1.06091
1.07236
1.07296
1.08405
1.22163
1.28915
1.0025
1.00811
1.01544
1.03164
1.06092
1.07233
1.07307
1.08442
1.22232
1.29404
1.0025
1.00811
1.01544
1.03164
1.06093
1.0723
1.07316
1.08468
1.22273
1.29925
1.0025
1.00811
1.01544
1.03164
1.06094
1.07227
1.07324
1.08485
1.223
1.30472
1.0025
1.00811
1.01544
1.03164
1.06094
1.07226
1.07329
1.08497
1.22324
1.30947
1.0025
1.00811
1.01544
1.03164
1.06095
1.07225
1.07331
1.08503
1.22354
1.31231
1.23719
1.23587
1.23399
1.23102
1.22802
1.22441
1.22119
1.21686
1.21054
1.20006
1.23596
1.23442
1.23259
1.22956
1.22614
1.22145
1.21683
1.21121
1.20491
1.19532
1.23709
1.23477
1.23244
1.22897
1.2252
1.21994
1.21407
1.20666
1.19928
1.18992
1.2389
1.23605
1.23325
1.22923
1.22492
1.21927
1.21299
1.20439
1.19509
1.18449
1.24095
1.23799
1.2352
1.23097
1.22628
1.22022
1.21366
1.20416
1.19326
1.18008
1.24377
1.2414
1.23917
1.23511
1.23028
1.22378
1.2166
1.20619
1.1936
1.17734
1.25146
1.24835
1.24577
1.24151
1.23654
1.22959
1.22169
1.21028
1.19584
1.17617
1.26028
1.25685
1.25405
1.24952
1.24428
1.23673
1.2279
1.21517
1.19907
1.17603
1.26911
1.26564
1.26268
1.25776
1.25212
1.24388
1.23414
1.22
1.20237
1.17644
1.27756
1.27396
1.27067
1.26522
1.25914
1.25026
1.23976
1.22451
1.20544
1.177
1.28411
1.28057
1.2772
1.27139
1.26497
1.25565
1.24461
1.22861
1.20835
1.17758
1.28962
1.28586
1.28256
1.27662
1.27007
1.26048
1.24905
1.23253
1.21125
1.17821
1.29666
1.2919
1.28833
1.28202
1.27527
1.26547
1.25366
1.23671
1.21447
1.1792
1.30639
1.30018
1.29597
1.28889
1.2816
1.27134
1.25891
1.24145
1.21821
1.18073
1.31792
1.31023
1.30519
1.29704
1.28884
1.27795
1.26482
1.2469
1.22273
1.18323
1.33098
1.32179
1.31581
1.30642
1.29706
1.28547
1.27173
1.25353
1.22854
1.18757
1.34523
1.33361
1.32593
1.31549
1.30568
1.29414
1.28033
1.26204
1.23626
1.19419
1.36207
1.34679
1.33811
1.32733
1.31706
1.30569
1.292
1.27389
1.24737
1.20599
1.37738
1.35778
1.34926
1.33929
1.3287
1.31667
1.30243
1.28422
1.25722
1.21882
1.40832
1.38902
1.37653
1.36353
1.34986
1.33564
1.31994
1.30182
1.27535
1.25087
1.16998
1.11623
1.05984
1.00957
0.966691
0.925322
0.908651
0.931987
1.04651
1.06293
1.16648
1.11166
1.05316
1.00125
0.958698
0.920181
0.908367
0.943089
1.05471
1.06536
1.16223
1.10655
1.04618
0.993088
0.950588
0.9162
0.909279
0.956013
1.06198
1.06826
1.15682
1.10022
1.03855
0.985182
0.941973
0.912973
0.91136
0.970284
1.06838
1.07145
1.15008
1.09258
1.0302
0.976437
0.9346
0.912809
0.914678
0.984825
1.07404
1.07392
1.14217
1.08331
1.02089
0.967449
0.928668
0.913044
0.920094
0.998765
1.07918
1.07516
1.13353
1.07237
1.01042
0.958868
0.922371
0.91427
0.927412
1.01125
1.08329
1.07662
1.1245
1.0592
0.999219
0.950263
0.918422
0.916208
0.936209
1.02208
1.0871
1.07822
1.11538
1.044
0.986884
0.941446
0.918934
0.919517
0.946239
1.03127
1.0903
1.08018
1.10616
1.02673
0.973298
0.933958
0.919552
0.924715
0.956422
1.03932
1.09302
1.08152
1.09693
1.00763
0.958214
0.929498
0.921062
0.931442
0.965743
1.04573
1.09444
1.08137
1.08749
0.986816
0.942942
0.926239
0.92409
0.939077
0.974324
1.05117
1.09444
1.08106
1.07738
0.965291
0.928842
0.923343
0.927596
0.946613
0.982718
1.05566
1.09469
1.0821
1.06623
0.945742
0.916579
0.921871
0.930419
0.953565
0.991067
1.05972
1.09581
1.08401
1.05371
0.932195
0.907564
0.922041
0.93317
0.959658
0.998556
1.06358
1.09757
1.08621
1.04167
0.927134
0.904434
0.923454
0.936186
0.965423
1.00437
1.06662
1.09865
1.08704
1.03295
0.92518
0.910192
0.925134
0.939328
0.970881
1.00907
1.06816
1.09811
1.08662
1.03025
0.937122
0.92161
0.929225
0.943003
0.976637
1.01379
1.06925
1.09775
1.08689
1.03581
0.973321
0.943063
0.940272
0.950323
0.984109
1.01889
1.07081
1.09883
1.08893
1.06738
1.03001
0.983019
0.961498
0.966116
0.995938
1.02922
1.07472
1.10181
1.09264
1.22573
1.20074
1.16927
1.1328
1.09108
1.04756
1.00191
0.938691
0.886053
0.902951
1.22532
1.20052
1.16881
1.13231
1.09057
1.04705
1.00133
0.938139
0.886035
0.904673
1.22471
1.20003
1.16783
1.13123
1.08957
1.04611
1.00024
0.93713
0.885987
0.904968
1.22362
1.1989
1.16624
1.12954
1.08803
1.04474
0.9987
0.935684
0.886305
0.906607
1.2222
1.19709
1.16424
1.1274
1.08604
1.04292
0.996529
0.933677
0.886123
0.909565
1.22047
1.19483
1.16171
1.12492
1.08369
1.0407
0.993812
0.931188
0.885813
0.913603
1.21851
1.19225
1.15906
1.12221
1.08099
1.03802
0.99043
0.928193
0.885849
0.918747
1.21639
1.1894
1.15625
1.1192
1.07787
1.03479
0.986325
0.924913
0.886266
0.925414
1.21412
1.18642
1.15319
1.1158
1.07421
1.03099
0.981585
0.921439
0.88713
0.933686
1.21184
1.18343
1.14985
1.11188
1.06991
1.02645
0.976018
0.917982
0.888626
0.943843
1.20978
1.1807
1.14621
1.10726
1.06482
1.02126
0.969927
0.914763
0.891025
0.955956
1.20812
1.17798
1.14222
1.1021
1.05907
1.01526
0.963137
0.91194
0.894685
0.970171
1.20659
1.17526
1.13795
1.09645
1.05272
1.00865
0.955798
0.90977
0.900006
0.985779
1.20498
1.172
1.13308
1.09032
1.04589
1.00128
0.948022
0.909366
0.907225
1.00155
1.20262
1.16752
1.12711
1.08346
1.0384
0.993085
0.940054
0.908702
0.918113
1.01546
1.19915
1.16092
1.11923
1.07508
1.03003
0.983937
0.932462
0.907924
0.933591
1.02691
1.19436
1.15266
1.10906
1.06468
1.02
0.973573
0.925559
0.907202
0.953539
1.03688
1.18846
1.14314
1.09685
1.05208
1.00847
0.961918
0.919481
0.907527
0.977561
1.04561
1.18197
1.13305
1.08373
1.03755
0.994767
0.94867
0.914055
0.910906
1.00479
1.05332
1.17508
1.1233
1.07
1.02194
0.979015
0.935863
0.910555
0.919916
1.03057
1.05954
1.17508
1.1233
1.06999
1.02195
0.979019
0.935871
0.910533
0.919928
1.03072
1.05946
1.18197
1.13305
1.08373
1.03754
0.994776
0.948686
0.914044
0.910909
1.00469
1.05331
1.18846
1.14314
1.09685
1.05208
1.00846
0.96192
0.919508
0.907538
0.97752
1.04567
1.19436
1.15266
1.10906
1.06468
1.02
0.97357
0.925548
0.907198
0.95356
1.03685
1.19915
1.16091
1.11923
1.07508
1.03003
0.983937
0.932449
0.907914
0.933594
1.02684
1.20262
1.16752
1.12711
1.08346
1.0384
0.993082
0.940052
0.908699
0.918114
1.01545
1.20498
1.172
1.13308
1.09032
1.04589
1.00128
0.948016
0.909361
0.907231
1.00159
1.20659
1.17526
1.13795
1.09645
1.05272
1.00865
0.955798
0.909779
0.900013
0.985812
1.20812
1.17798
1.14222
1.1021
1.05907
1.01526
0.963135
0.911949
0.894693
0.970181
1.20979
1.1807
1.14621
1.10726
1.06482
1.02126
0.969926
0.914769
0.891031
0.955962
1.21184
1.18343
1.14985
1.11188
1.06991
1.02645
0.976017
0.917983
0.888627
0.943849
1.21412
1.18642
1.15319
1.1158
1.07421
1.03099
0.981585
0.921438
0.887129
0.93369
1.21639
1.1894
1.15625
1.1192
1.07787
1.03479
0.986325
0.92491
0.886261
0.925414
1.21851
1.19225
1.15906
1.12221
1.08099
1.03802
0.990431
0.928192
0.885845
0.918743
1.22047
1.19483
1.16171
1.12492
1.08369
1.0407
0.993812
0.931188
0.885811
0.913599
1.2222
1.19709
1.16424
1.1274
1.08604
1.04292
0.99653
0.933678
0.886122
0.909562
1.22362
1.1989
1.16624
1.12954
1.08803
1.04475
0.9987
0.935685
0.886306
0.906605
1.22471
1.20003
1.16783
1.13123
1.08957
1.04611
1.00025
0.937131
0.885989
0.904967
1.22532
1.20052
1.16881
1.13231
1.09057
1.04705
1.00133
0.938139
0.886036
0.904672
1.22573
1.20074
1.16927
1.1328
1.09108
1.04756
1.00191
0.93869
0.886052
0.902951
1.24333
1.24095
1.23818
1.23518
1.23319
1.2311
1.22884
1.22464
1.21735
1.20589
1.24308
1.24157
1.24106
1.24077
1.24105
1.24068
1.23847
1.23309
1.2244
1.21233
1.23907
1.23963
1.24215
1.24475
1.24712
1.24687
1.24384
1.23765
1.2288
1.2171
1.23513
1.2381
1.24246
1.24573
1.24831
1.24724
1.24396
1.23823
1.23019
1.21996
1.23546
1.23954
1.24276
1.24565
1.24565
1.2445
1.24172
1.23696
1.23009
1.22144
1.23877
1.24209
1.24395
1.24463
1.24366
1.2418
1.23909
1.23521
1.22963
1.22225
1.24518
1.24637
1.24649
1.2452
1.24317
1.24081
1.23779
1.23416
1.22928
1.22292
1.25167
1.25123
1.24967
1.24717
1.24439
1.24144
1.23818
1.23441
1.22947
1.22357
1.25585
1.25455
1.25226
1.24961
1.24664
1.24336
1.2397
1.2355
1.23064
1.2246
1.25888
1.25641
1.2542
1.25173
1.24889
1.24565
1.24182
1.23737
1.23227
1.2261
1.26129
1.25806
1.25587
1.25342
1.25062
1.24746
1.24363
1.23922
1.23397
1.228
1.26359
1.25995
1.25767
1.25501
1.25206
1.24882
1.24505
1.2407
1.23558
1.2299
1.26593
1.26205
1.25964
1.25671
1.25356
1.25011
1.2463
1.24194
1.23706
1.23152
1.26829
1.26418
1.26162
1.25849
1.25518
1.25152
1.24761
1.24319
1.23843
1.23303
1.27048
1.26613
1.26346
1.26019
1.25681
1.25302
1.24901
1.24456
1.23977
1.23449
1.27235
1.26775
1.26501
1.26167
1.25825
1.25445
1.25038
1.24595
1.24108
1.23586
1.27389
1.26908
1.26629
1.2629
1.25945
1.25568
1.2516
1.24725
1.24233
1.23709
1.27502
1.27008
1.26723
1.26381
1.26031
1.25659
1.25251
1.24823
1.24335
1.23809
1.27565
1.2707
1.26779
1.26436
1.26082
1.25714
1.25308
1.2488
1.24396
1.23863
1.2759
1.271
1.26806
1.2647
1.26114
1.25747
1.25344
1.24907
1.24426
1.23894
1.0025
1.00811
1.01545
1.0316
1.06073
1.07283
1.07228
1.0713
1.17294
1.23052
1.0025
1.00811
1.01546
1.0316
1.06074
1.07284
1.07236
1.07096
1.16537
1.22357
1.0025
1.00811
1.01546
1.03159
1.06075
1.07283
1.07245
1.07076
1.15803
1.21854
1.0025
1.00811
1.01546
1.03159
1.06076
1.0728
1.07254
1.07061
1.15057
1.2163
1.0025
1.00811
1.01546
1.03159
1.06078
1.07277
1.07262
1.07051
1.14283
1.21663
1.0025
1.00811
1.01546
1.03159
1.06081
1.07274
1.0727
1.07045
1.13498
1.21837
1.0025
1.00811
1.01546
1.03158
1.06083
1.07269
1.07277
1.07041
1.12738
1.22058
1.0025
1.00811
1.01546
1.03158
1.06086
1.07265
1.07283
1.07039
1.12027
1.2221
1.0025
1.00811
1.01545
1.03158
1.06089
1.07261
1.07287
1.07036
1.11377
1.22258
1.0025
1.00811
1.01545
1.03158
1.06092
1.07257
1.07291
1.07033
1.10782
1.22264
1.0025
1.00811
1.01545
1.03157
1.06095
1.07253
1.07294
1.0703
1.10242
1.22267
1.0025
1.00811
1.01545
1.03157
1.06098
1.07251
1.07296
1.07025
1.09754
1.22278
1.0025
1.00811
1.01545
1.03156
1.061
1.07249
1.07297
1.07018
1.09319
1.223
1.0025
1.00811
1.01545
1.03156
1.06102
1.07248
1.07297
1.07009
1.08937
1.2233
1.0025
1.00811
1.01545
1.03155
1.06104
1.07247
1.07297
1.06997
1.0861
1.2236
1.0025
1.00811
1.01545
1.03155
1.06106
1.07246
1.07295
1.06983
1.08336
1.22379
1.0025
1.00811
1.01545
1.03154
1.06107
1.07247
1.07294
1.06967
1.08119
1.22394
1.0025
1.00811
1.01545
1.03154
1.06107
1.07247
1.07291
1.06949
1.07965
1.22402
1.0025
1.00811
1.01545
1.03154
1.06108
1.07248
1.07289
1.06929
1.07873
1.22398
1.0025
1.00811
1.01545
1.03154
1.06108
1.07249
1.07288
1.06919
1.07829
1.22394
1.0025
1.00811
1.01545
1.03154
1.06108
1.07249
1.07288
1.06919
1.07829
1.22394
1.0025
1.00811
1.01545
1.03154
1.06108
1.07248
1.07289
1.06929
1.07873
1.22398
1.0025
1.00811
1.01545
1.03154
1.06107
1.07247
1.07291
1.06949
1.07965
1.22402
1.0025
1.00811
1.01545
1.03154
1.06107
1.07247
1.07294
1.06967
1.08119
1.22394
1.0025
1.00811
1.01545
1.03155
1.06106
1.07246
1.07295
1.06983
1.08336
1.22379
1.0025
1.00811
1.01545
1.03155
1.06104
1.07247
1.07297
1.06997
1.0861
1.2236
1.0025
1.00811
1.01545
1.03156
1.06102
1.07248
1.07297
1.07009
1.08937
1.2233
1.0025
1.00811
1.01545
1.03156
1.061
1.07249
1.07297
1.07018
1.09319
1.223
1.0025
1.00811
1.01545
1.03157
1.06098
1.07251
1.07296
1.07025
1.09754
1.22278
1.0025
1.00811
1.01545
1.03157
1.06095
1.07253
1.07294
1.0703
1.10242
1.22267
1.0025
1.00811
1.01545
1.03158
1.06092
1.07257
1.07291
1.07033
1.10782
1.22264
1.0025
1.00811
1.01545
1.03158
1.06089
1.07261
1.07287
1.07036
1.11377
1.22258
1.0025
1.00811
1.01546
1.03158
1.06086
1.07265
1.07283
1.07039
1.12027
1.2221
1.0025
1.00811
1.01546
1.03158
1.06083
1.07269
1.07277
1.07041
1.12737
1.22058
1.0025
1.00811
1.01546
1.03159
1.06081
1.07274
1.0727
1.07045
1.13498
1.21837
1.0025
1.00811
1.01546
1.03159
1.06078
1.07277
1.07262
1.07051
1.14283
1.21663
1.0025
1.00811
1.01546
1.03159
1.06076
1.0728
1.07254
1.07061
1.15057
1.2163
1.0025
1.00811
1.01546
1.03159
1.06075
1.07283
1.07245
1.07076
1.15803
1.21854
1.0025
1.00811
1.01546
1.0316
1.06074
1.07284
1.07236
1.07096
1.16537
1.22357
1.0025
1.00811
1.01545
1.0316
1.06073
1.07283
1.07228
1.0713
1.17294
1.23052
1.2759
1.271
1.26806
1.2647
1.26114
1.25747
1.25344
1.24907
1.24426
1.23894
1.27565
1.2707
1.26779
1.26436
1.26082
1.25714
1.25308
1.2488
1.24396
1.23863
1.27502
1.27008
1.26723
1.26381
1.26031
1.25659
1.25251
1.24823
1.24335
1.23809
1.27389
1.26908
1.26629
1.2629
1.25945
1.25568
1.2516
1.24725
1.24233
1.23709
1.27235
1.26775
1.26501
1.26167
1.25825
1.25445
1.25038
1.24595
1.24108
1.23586
1.27048
1.26613
1.26346
1.26019
1.25681
1.25302
1.24901
1.24456
1.23977
1.23449
1.26829
1.26418
1.26162
1.25849
1.25518
1.25152
1.24761
1.24319
1.23843
1.23303
1.26593
1.26205
1.25964
1.25671
1.25356
1.25011
1.2463
1.24194
1.23706
1.23152
1.26359
1.25995
1.25767
1.25501
1.25206
1.24882
1.24505
1.2407
1.23558
1.2299
1.26129
1.25806
1.25587
1.25342
1.25062
1.24746
1.24363
1.23922
1.23397
1.228
1.25888
1.25641
1.2542
1.25173
1.24889
1.24565
1.24182
1.23737
1.23227
1.2261
1.25585
1.25455
1.25226
1.24961
1.24664
1.24336
1.2397
1.23549
1.23064
1.2246
1.25167
1.25123
1.24967
1.24717
1.24439
1.24144
1.23818
1.23441
1.22947
1.22357
1.24518
1.24637
1.24649
1.2452
1.24317
1.24081
1.23779
1.23416
1.22928
1.22292
1.23877
1.24209
1.24395
1.24463
1.24366
1.2418
1.23909
1.23521
1.22963
1.22225
1.23546
1.23954
1.24276
1.24565
1.24565
1.2445
1.24172
1.23696
1.23009
1.22144
1.23513
1.2381
1.24246
1.24573
1.24831
1.24724
1.24396
1.23823
1.23019
1.21996
1.23907
1.23963
1.24215
1.24475
1.24712
1.24687
1.24384
1.23765
1.2288
1.2171
1.24308
1.24157
1.24106
1.24077
1.24105
1.24068
1.23847
1.23309
1.2244
1.21233
1.24333
1.24094
1.23818
1.23518
1.23318
1.2311
1.22884
1.22464
1.21735
1.20589
)
;

boundaryField
{
    inlet
    {
        type            fixedValue;
        value           uniform 1;
    }
    outlet
    {
        type            inletOutlet;
        inletValue      uniform 1;
        value           nonuniform List<scalar> 
100
(
1.05941
1.05326
1.04563
1.03684
1.02685
1.01544
1.00153
0.985723
0.970128
0.955983
0.943938
0.933817
0.92556
0.918908
0.91379
0.909779
0.906828
0.905169
0.904824
0.903121
1.09229
1.09055
1.0887
1.087
1.08556
1.08453
1.08375
1.08308
1.08206
1.08105
1.0802
1.07955
1.07873
1.07733
1.07539
1.07321
1.07096
1.06844
1.06556
1.06302
1.09712
1.10173
1.10588
1.11808
1.1413
1.16963
1.20015
1.22389
1.2357
1.24291
1.24508
1.24203
1.2241
1.19743
1.16769
1.14089
1.12266
1.10815
1.09874
1.0942
1.06292
1.06527
1.06811
1.07133
1.07401
1.07526
1.07659
1.0781
1.07998
1.08145
1.0816
1.0811
1.082
1.08381
1.08607
1.08719
1.08682
1.0869
1.08878
1.09241
0.903121
0.904825
0.90517
0.906829
0.909782
0.913795
0.918912
0.92556
0.933813
0.943931
0.955977
0.970119
0.985693
1.00148
1.01544
1.02693
1.03688
1.04557
1.05325
1.05948
)
;
    }
    triangle
    {
        type            zeroGradient;
    }
    top
    {
        type            symmetryPlane;
    }
    bottom
    {
        type            symmetryPlane;
    }
    defaultFaces
    {
        type            empty;
    }
}


// ************************************************************************* //
