/*--------------------------------*- C++ -*----------------------------------*\
  =========                 |
  \\      /  F ield         | OpenFOAM: The Open Source CFD Toolbox
   \\    /   O peration     | Website:  https://openfoam.org
    \\  /    A nd           | Version:  8
     \\/     M anipulation  |
\*---------------------------------------------------------------------------*/
FoamFile
{
    version     2.0;
    format      ascii;
    class       volVectorField;
    location    "1.3";
    object      U;
}
// * * * * * * * * * * * * * * * * * * * * * * * * * * * * * * * * * * * * * //

dimensions      [0 1 -1 0 0 0 0];

internalField   nonuniform List<vector> 
2600
(
(0.655302 -0.00246349 0)
(1.03778 0.0354258 0)
(1.26764 0.0948853 0)
(1.41589 0.199273 0)
(1.45382 0.277163 0)
(1.38521 0.205698 0)
(1.3576 0.130951 0)
(1.24027 0.0872621 0)
(1.13808 0.0539976 0)
(1.12172 -0.00239779 0)
(0.185016 -0.117796 0)
(0.606556 -0.00316584 0)
(0.971771 0.0737204 0)
(1.259 0.173778 0)
(1.39508 0.26056 0)
(1.35917 0.195217 0)
(1.35226 0.120393 0)
(1.23893 0.0827262 0)
(1.13334 0.0562933 0)
(1.11903 0.00102746 0)
(-0.0071541 -0.137955 0)
(0.258179 -0.0425513 0)
(0.624629 0.0212134 0)
(1.00178 0.134705 0)
(1.27821 0.232364 0)
(1.31046 0.184518 0)
(1.33141 0.11927 0)
(1.23445 0.0902753 0)
(1.12537 0.0647186 0)
(1.11387 0.0119407 0)
(-0.0834489 -0.15439 0)
(0.0408403 -0.080582 0)
(0.288175 -0.00281689 0)
(0.660673 0.0879869 0)
(1.06868 0.19185 0)
(1.21243 0.167306 0)
(1.27525 0.0994234 0)
(1.21169 0.0939852 0)
(1.10915 0.0700418 0)
(1.09885 0.0159077 0)
(-0.127424 -0.149337 0)
(-0.112281 -0.0938601 0)
(-0.00956606 -0.0417564 0)
(0.270307 0.0514101 0)
(0.740424 0.144081 0)
(1.0217 0.143235 0)
(1.1398 0.089176 0)
(1.1363 0.0843719 0)
(1.07508 0.0626651 0)
(1.0633 0.00610763 0)
(-0.161051 -0.143191 0)
(-0.245544 -0.0905143 0)
(-0.270871 -0.0335987 0)
(-0.116586 0.00853005 0)
(0.311878 0.095153 0)
(0.697662 0.110275 0)
(0.875022 0.0756725 0)
(0.965929 0.0787861 0)
(0.996813 0.0669205 0)
(0.996595 0.00721151 0)
(-0.187849 -0.11982 0)
(-0.366626 -0.0846331 0)
(-0.487483 -0.0446747 0)
(-0.445863 0.00433724 0)
(-0.127163 0.0577822 0)
(0.272997 0.0854387 0)
(0.494413 0.0632503 0)
(0.688353 0.075702 0)
(0.848998 0.0710883 0)
(0.903754 0.0136295 0)
(-0.216575 -0.0939186 0)
(-0.457404 -0.0633943 0)
(-0.649025 -0.0330542 0)
(-0.671909 -0.00434383 0)
(-0.467366 0.0279525 0)
(-0.118365 0.0541543 0)
(0.11637 0.0435709 0)
(0.379188 0.0512852 0)
(0.655639 0.0506317 0)
(0.806614 0.0117677 0)
(-0.23606 -0.0587786 0)
(-0.51486 -0.0423506 0)
(-0.739269 -0.0245449 0)
(-0.78727 -0.00467233 0)
(-0.651892 0.0172696 0)
(-0.361323 0.0378121 0)
(-0.129912 0.0330562 0)
(0.157347 0.0402163 0)
(0.495071 0.0440848 0)
(0.736752 0.00376824 0)
(-0.248116 -0.0198573 0)
(-0.540361 -0.0138792 0)
(-0.769944 -0.00755732 0)
(-0.82324 -0.00177125 0)
(-0.706118 0.00753958 0)
(-0.444523 0.0155059 0)
(-0.216421 0.0135168 0)
(0.0717611 0.0167481 0)
(0.424349 0.0185706 0)
(0.711077 0.00877596 0)
(-0.24824 0.0194297 0)
(-0.540307 0.0151752 0)
(-0.770139 0.0103189 0)
(-0.823729 0.00161021 0)
(-0.706079 -0.00704958 0)
(-0.444427 -0.0156875 0)
(-0.216351 -0.0140437 0)
(0.0718293 -0.0175235 0)
(0.424466 -0.0180829 0)
(0.710469 -9.81739e-06 0)
(-0.236293 0.0582069 0)
(-0.51509 0.0418984 0)
(-0.739637 0.0226451 0)
(-0.787634 0.00413135 0)
(-0.651718 -0.016503 0)
(-0.360918 -0.037463 0)
(-0.129385 -0.0335867 0)
(0.157447 -0.0401309 0)
(0.494894 -0.0434502 0)
(0.73662 -0.0122885 0)
(-0.217003 0.0933141 0)
(-0.458192 0.0623195 0)
(-0.649563 0.0314525 0)
(-0.672108 0.00310552 0)
(-0.467259 -0.0275255 0)
(-0.117538 -0.0541218 0)
(0.117507 -0.0439643 0)
(0.379315 -0.0504764 0)
(0.655552 -0.051118 0)
(0.806505 -0.0108682 0)
(-0.188395 0.119375 0)
(-0.367717 0.0842782 0)
(-0.488572 0.0448471 0)
(-0.446681 -0.00199045 0)
(-0.127331 -0.0573986 0)
(0.274221 -0.0853156 0)
(0.495781 -0.0623184 0)
(0.688333 -0.0750329 0)
(0.849402 -0.0730992 0)
(0.90419 -0.00980271 0)
(-0.161629 0.142957 0)
(-0.246631 0.0911991 0)
(-0.271913 0.0346032 0)
(-0.117352 -0.00957295 0)
(0.311829 -0.0951723 0)
(0.69871 -0.110389 0)
(0.876322 -0.0757149 0)
(0.966022 -0.081135 0)
(0.996373 -0.062466 0)
(0.997183 -0.0185115 0)
(-0.12795 0.149251 0)
(-0.113216 0.0943853 0)
(-0.0103493 0.0422243 0)
(0.268799 -0.0509705 0)
(0.740383 -0.143536 0)
(1.02239 -0.14365 0)
(1.14069 -0.0897837 0)
(1.13619 -0.0835054 0)
(1.07491 -0.0621205 0)
(1.06255 -0.0114406 0)
(-0.0839645 0.154409 0)
(0.0403654 0.0807702 0)
(0.287579 0.00376148 0)
(0.659932 -0.0846451 0)
(1.06861 -0.191572 0)
(1.21303 -0.168625 0)
(1.27559 -0.0988898 0)
(1.21098 -0.0911456 0)
(1.10981 -0.072632 0)
(1.09754 -0.0026401 0)
(-0.00763626 0.137629 0)
(0.257943 0.0419288 0)
(0.624615 -0.0213765 0)
(1.00187 -0.135907 0)
(1.27824 -0.23299 0)
(1.311 -0.182838 0)
(1.33129 -0.119919 0)
(1.23407 -0.0922982 0)
(1.12589 -0.0654031 0)
(1.11325 -0.00505853 0)
(0.184793 0.117894 0)
(0.606396 0.00337322 0)
(0.971954 -0.0749682 0)
(1.25924 -0.175059 0)
(1.39519 -0.26047 0)
(1.35949 -0.196092 0)
(1.35174 -0.121382 0)
(1.23836 -0.0841251 0)
(1.13345 -0.0539649 0)
(1.11941 -0.00787482 0)
(0.655122 0.00239363 0)
(1.0375 -0.0353698 0)
(1.26747 -0.0950393 0)
(1.41575 -0.198865 0)
(1.4539 -0.277188 0)
(1.386 -0.206305 0)
(1.35707 -0.130926 0)
(1.24017 -0.0867098 0)
(1.13825 -0.0522556 0)
(1.12146 -0.00557681 0)
(1.20997 0.0166639 0)
(1.39393 -0.0500183 0)
(1.45822 -0.116057 0)
(1.49639 -0.221476 0)
(1.4845 -0.291749 0)
(1.40044 -0.222928 0)
(1.35692 -0.141971 0)
(1.24368 -0.0890012 0)
(1.14392 -0.0532595 0)
(1.12462 -0.000391827 0)
(1.33264 0.146368 0)
(1.54997 -0.0374264 0)
(1.54928 -0.137902 0)
(1.53143 -0.237587 0)
(1.50132 -0.30539 0)
(1.41732 -0.234811 0)
(1.36202 -0.151861 0)
(1.24949 -0.0903715 0)
(1.15115 -0.054075 0)
(1.12896 0.00388362 0)
(1.34272 0.169266 0)
(1.581 -0.0485238 0)
(1.56288 -0.14528 0)
(1.53361 -0.245948 0)
(1.50984 -0.310452 0)
(1.43761 -0.245202 0)
(1.37767 -0.163422 0)
(1.25809 -0.089619 0)
(1.15874 -0.0493039 0)
(1.13469 0.00670935 0)
(1.3032 0.209264 0)
(1.56618 -0.0194517 0)
(1.54799 -0.165064 0)
(1.5262 -0.259483 0)
(1.51369 -0.315519 0)
(1.45554 -0.256742 0)
(1.39117 -0.171584 0)
(1.26874 -0.0895771 0)
(1.1661 -0.0436691 0)
(1.14187 0.0077418 0)
(1.27957 0.220387 0)
(1.54222 -0.00860794 0)
(1.53146 -0.188044 0)
(1.51982 -0.276022 0)
(1.51404 -0.324032 0)
(1.46766 -0.268876 0)
(1.40453 -0.179855 0)
(1.27936 -0.091712 0)
(1.17263 -0.0396747 0)
(1.14863 0.00931824 0)
(1.2555 0.23536 0)
(1.50273 0.016889 0)
(1.53512 -0.197485 0)
(1.51445 -0.29253 0)
(1.51494 -0.332329 0)
(1.47299 -0.279337 0)
(1.41805 -0.189342 0)
(1.28758 -0.0942743 0)
(1.17869 -0.0407009 0)
(1.15479 0.0119283 0)
(1.23708 0.242233 0)
(1.46505 0.0321399 0)
(1.53628 -0.204958 0)
(1.50368 -0.305952 0)
(1.51102 -0.340407 0)
(1.47445 -0.289649 0)
(1.4354 -0.202528 0)
(1.29451 -0.0973514 0)
(1.182 -0.0421461 0)
(1.15984 0.015476 0)
(1.21718 0.248341 0)
(1.43174 0.0434215 0)
(1.52316 -0.199457 0)
(1.50177 -0.316885 0)
(1.50605 -0.350367 0)
(1.47612 -0.303234 0)
(1.44665 -0.215582 0)
(1.30022 -0.099286 0)
(1.18366 -0.0408806 0)
(1.16435 0.0187953 0)
(1.19838 0.250077 0)
(1.40203 0.0508025 0)
(1.5002 -0.188979 0)
(1.50746 -0.320404 0)
(1.4989 -0.358877 0)
(1.47964 -0.318069 0)
(1.45451 -0.229813 0)
(1.30613 -0.10275 0)
(1.18594 -0.0365428 0)
(1.16745 0.0216208 0)
(1.18046 0.248819 0)
(1.37391 0.0550787 0)
(1.47613 -0.174992 0)
(1.50658 -0.313628 0)
(1.49482 -0.366724 0)
(1.48449 -0.334383 0)
(1.46016 -0.245361 0)
(1.31317 -0.105872 0)
(1.18829 -0.0321629 0)
(1.17026 0.0235421 0)
(1.16377 0.243738 0)
(1.34639 0.0578618 0)
(1.45417 -0.161858 0)
(1.49798 -0.301899 0)
(1.49319 -0.370723 0)
(1.48951 -0.347148 0)
(1.4664 -0.262839 0)
(1.32385 -0.111969 0)
(1.19217 -0.0320795 0)
(1.17275 0.0253016 0)
(1.14792 0.235261 0)
(1.32007 0.0588154 0)
(1.43221 -0.144244 0)
(1.4849 -0.285664 0)
(1.48962 -0.369965 0)
(1.49555 -0.356871 0)
(1.47482 -0.282769 0)
(1.33711 -0.118804 0)
(1.19671 -0.0330273 0)
(1.17529 0.0275052 0)
(1.13291 0.224457 0)
(1.29552 0.0586788 0)
(1.41065 -0.126683 0)
(1.47275 -0.272753 0)
(1.48546 -0.362275 0)
(1.50164 -0.363723 0)
(1.48252 -0.301683 0)
(1.35935 -0.130859 0)
(1.20229 -0.0323645 0)
(1.17718 0.0297325 0)
(1.11847 0.211596 0)
(1.27306 0.059131 0)
(1.38982 -0.110165 0)
(1.45748 -0.248497 0)
(1.48302 -0.354677 0)
(1.50103 -0.366764 0)
(1.49041 -0.319968 0)
(1.38025 -0.144385 0)
(1.20906 -0.0302504 0)
(1.17872 0.0313965 0)
(1.10461 0.197743 0)
(1.25286 0.0594475 0)
(1.37041 -0.0947561 0)
(1.44418 -0.229872 0)
(1.47836 -0.345108 0)
(1.50142 -0.370043 0)
(1.49734 -0.335143 0)
(1.40206 -0.162385 0)
(1.21684 -0.0280222 0)
(1.18024 0.0328895 0)
(1.09139 0.18427 0)
(1.23441 0.0618914 0)
(1.35402 -0.0818984 0)
(1.42695 -0.207512 0)
(1.47038 -0.325924 0)
(1.50103 -0.370295 0)
(1.50333 -0.346578 0)
(1.42042 -0.182742 0)
(1.22626 -0.0271837 0)
(1.18192 0.0346065 0)
(1.07806 0.171324 0)
(1.21814 0.0630999 0)
(1.33703 -0.0674553 0)
(1.41523 -0.194155 0)
(1.45989 -0.306001 0)
(1.4989 -0.36632 0)
(1.50816 -0.353714 0)
(1.43556 -0.205678 0)
(1.23813 -0.0294133 0)
(1.18378 0.0366021 0)
(1.06665 0.160944 0)
(1.20268 0.0660351 0)
(1.32265 -0.0571246 0)
(1.40011 -0.174746 0)
(1.45108 -0.289347 0)
(1.49778 -0.36255 0)
(1.50923 -0.356767 0)
(1.44939 -0.230332 0)
(1.25433 -0.0347985 0)
(1.18609 0.0386899 0)
(1.05436 0.151878 0)
(1.18909 0.0669956 0)
(1.30724 -0.0459413 0)
(1.38735 -0.161006 0)
(1.44274 -0.271314 0)
(1.4946 -0.35468 0)
(1.50976 -0.359428 0)
(1.46203 -0.253461 0)
(1.27101 -0.0411185 0)
(1.1885 0.0400254 0)
(1.04577 0.14542 0)
(1.17644 0.0689664 0)
(1.29411 -0.0378326 0)
(1.3736 -0.146339 0)
(1.43298 -0.252428 0)
(1.48611 -0.33854 0)
(1.51053 -0.360062 0)
(1.47306 -0.27352 0)
(1.29051 -0.0492855 0)
(1.19177 0.0406362 0)
(0.385574 0.134608 0)
(0.454884 0.166918 0)
(0.494887 0.219126 0)
(0.538283 0.258331 0)
(0.577301 0.291371 0)
(0.616376 0.319266 0)
(0.65775 0.346096 0)
(0.707952 0.372737 0)
(0.77598 0.406912 0)
(0.900545 0.439544 0)
(0.414026 0.16173 0)
(0.465996 0.183328 0)
(0.494556 0.223398 0)
(0.534555 0.257858 0)
(0.572437 0.290374 0)
(0.61245 0.318515 0)
(0.655414 0.345853 0)
(0.707558 0.373201 0)
(0.778969 0.407977 0)
(0.901363 0.433435 0)
(0.466635 0.157251 0)
(0.505646 0.171545 0)
(0.522289 0.202429 0)
(0.553795 0.233737 0)
(0.584628 0.267322 0)
(0.622133 0.297351 0)
(0.665149 0.327147 0)
(0.719382 0.35584 0)
(0.794719 0.390787 0)
(0.921554 0.405335 0)
(0.517396 0.167341 0)
(0.549652 0.185828 0)
(0.559353 0.214536 0)
(0.586695 0.238671 0)
(0.611924 0.265833 0)
(0.645477 0.291065 0)
(0.684517 0.318041 0)
(0.735133 0.34331 0)
(0.808052 0.374134 0)
(0.929939 0.381808 0)
(0.561978 0.167838 0)
(0.589506 0.18601 0)
(0.597778 0.213567 0)
(0.623192 0.236729 0)
(0.644197 0.263432 0)
(0.674988 0.287401 0)
(0.711208 0.313052 0)
(0.760295 0.33593 0)
(0.832253 0.363911 0)
(0.95171 0.366564 0)
(0.600784 0.172043 0)
(0.623885 0.189916 0)
(0.630774 0.215876 0)
(0.654141 0.237665 0)
(0.67292 0.262774 0)
(0.702556 0.284399 0)
(0.737054 0.308375 0)
(0.784821 0.328624 0)
(0.854437 0.353042 0)
(0.967724 0.353468 0)
(0.63584 0.174808 0)
(0.65444 0.191449 0)
(0.659564 0.214456 0)
(0.680143 0.234056 0)
(0.696834 0.257406 0)
(0.7253 0.277457 0)
(0.758255 0.300401 0)
(0.804742 0.318978 0)
(0.871429 0.340698 0)
(0.977423 0.340479 0)
(0.667522 0.179677 0)
(0.681894 0.194865 0)
(0.685947 0.215157 0)
(0.704224 0.232599 0)
(0.719446 0.253865 0)
(0.746556 0.271808 0)
(0.777671 0.293135 0)
(0.822359 0.309883 0)
(0.885339 0.328903 0)
(0.983392 0.328556 0)
(0.695436 0.184496 0)
(0.706606 0.197599 0)
(0.710317 0.215002 0)
(0.726791 0.230241 0)
(0.740821 0.249451 0)
(0.76638 0.265693 0)
(0.795505 0.28559 0)
(0.83815 0.300986 0)
(0.897205 0.317812 0)
(0.987592 0.317759 0)
(0.719111 0.188907 0)
(0.729257 0.199795 0)
(0.73332 0.214922 0)
(0.748583 0.228752 0)
(0.761768 0.246387 0)
(0.785824 0.261238 0)
(0.813094 0.279673 0)
(0.853541 0.293701 0)
(0.908596 0.308248 0)
(0.991513 0.308292 0)
(0.740427 0.190976 0)
(0.750981 0.200607 0)
(0.755261 0.214169 0)
(0.769265 0.226949 0)
(0.781462 0.243056 0)
(0.803794 0.256758 0)
(0.829126 0.273807 0)
(0.867218 0.286664 0)
(0.918372 0.299123 0)
(0.994444 0.299131 0)
(0.760707 0.192056 0)
(0.771438 0.201679 0)
(0.775476 0.214389 0)
(0.788266 0.226424 0)
(0.79973 0.24119 0)
(0.820498 0.253835 0)
(0.844224 0.269373 0)
(0.879951 0.280628 0)
(0.927412 0.290853 0)
(0.996901 0.290307 0)
(0.77866 0.19259 0)
(0.788619 0.20187 0)
(0.792158 0.213582 0)
(0.803908 0.224892 0)
(0.814948 0.23861 0)
(0.834449 0.250446 0)
(0.856885 0.264481 0)
(0.890508 0.274278 0)
(0.934085 0.282235 0)
(0.997506 0.280561 0)
(0.792226 0.193462 0)
(0.801098 0.202188 0)
(0.804657 0.212898 0)
(0.81592 0.223235 0)
(0.826936 0.235849 0)
(0.84557 0.246674 0)
(0.867162 0.259205 0)
(0.898707 0.267125 0)
(0.939936 0.273782 0)
(0.996504 0.269737 0)
(0.802264 0.192411 0)
(0.809939 0.199832 0)
(0.813432 0.209475 0)
(0.824028 0.219151 0)
(0.834951 0.230818 0)
(0.852907 0.240504 0)
(0.873964 0.251635 0)
(0.904139 0.258569 0)
(0.943301 0.263299 0)
(0.994035 0.256807 0)
(0.815145 0.192797 0)
(0.822031 0.199657 0)
(0.82516 0.208233 0)
(0.83448 0.216507 0)
(0.844106 0.226142 0)
(0.859764 0.233652 0)
(0.878768 0.242576 0)
(0.906462 0.247692 0)
(0.942048 0.2501 0)
(0.987642 0.24071 0)
(0.828541 0.193509 0)
(0.834905 0.199801 0)
(0.837833 0.207291 0)
(0.846104 0.213955 0)
(0.854662 0.221615 0)
(0.868347 0.227217 0)
(0.884917 0.233609 0)
(0.909688 0.237154 0)
(0.939743 0.234804 0)
(0.979014 0.222393 0)
(0.841375 0.192916 0)
(0.846845 0.198266 0)
(0.849412 0.204379 0)
(0.856594 0.209564 0)
(0.864202 0.215699 0)
(0.876093 0.219576 0)
(0.890949 0.224533 0)
(0.91201 0.224382 0)
(0.936696 0.217813 0)
(0.971146 0.204423 0)
(0.852628 0.190902 0)
(0.857077 0.195248 0)
(0.859619 0.200326 0)
(0.865923 0.203873 0)
(0.872652 0.208379 0)
(0.882918 0.211565 0)
(0.895695 0.213129 0)
(0.912253 0.209283 0)
(0.932647 0.200515 0)
(0.963198 0.188184 0)
(0.858476 0.185397 0)
(0.862309 0.187461 0)
(0.866224 0.191998 0)
(0.872956 0.196162 0)
(0.879562 0.200412 0)
(0.888429 0.201491 0)
(0.898182 0.200001 0)
(0.911569 0.194324 0)
(0.930102 0.186131 0)
(0.958919 0.176321 0)
(1.50236 4.2838e-08 0)
(1.48198 -2.90397e-07 0)
(1.45711 2.0055e-06 0)
(1.40906 -1.24312e-05 0)
(1.32957 1.46449e-05 0)
(1.29121 2.1646e-05 0)
(1.27851 -0.000135032 0)
(1.2419 0.000264464 0)
(0.86588 0.0044326 0)
(0.494368 0.0138583 0)
(1.50236 1.06956e-07 0)
(1.48198 -8.07822e-07 0)
(1.45711 5.77044e-06 0)
(1.40906 -3.66892e-05 0)
(1.32957 4.77127e-05 0)
(1.29119 4.33358e-05 0)
(1.27856 -0.000364584 0)
(1.24184 0.000879626 0)
(0.869412 0.0130213 0)
(0.517086 0.0408768 0)
(1.50236 1.64938e-07 0)
(1.48199 -1.30021e-06 0)
(1.45711 9.41334e-06 0)
(1.40906 -6.02466e-05 0)
(1.32959 7.94082e-05 0)
(1.29112 7.34934e-05 0)
(1.27859 -0.000593333 0)
(1.24211 0.00156055 0)
(0.874496 0.0202138 0)
(0.549309 0.0604562 0)
(1.50236 2.08538e-07 0)
(1.48199 -1.7465e-06 0)
(1.45711 1.28381e-05 0)
(1.40905 -8.23566e-05 0)
(1.32962 0.000108615 0)
(1.29102 0.000107101 0)
(1.27861 -0.00081318 0)
(1.2425 0.00226257 0)
(0.878779 0.0271945 0)
(0.579281 0.07935 0)
(1.50236 2.33035e-07 0)
(1.48199 -2.13043e-06 0)
(1.45711 1.59674e-05 0)
(1.40905 -0.000102572 0)
(1.32966 0.000134932 0)
(1.2909 0.000147956 0)
(1.27863 -0.00102277 0)
(1.2431 0.0030139 0)
(0.883881 0.0334664 0)
(0.608167 0.0924332 0)
(1.50236 2.31366e-07 0)
(1.48199 -2.43772e-06 0)
(1.45711 1.87095e-05 0)
(1.40904 -0.000120322 0)
(1.3297 0.000157729 0)
(1.29076 0.000197027 0)
(1.27864 -0.00122141 0)
(1.24395 0.00379824 0)
(0.889345 0.0393332 0)
(0.634169 0.104526 0)
(1.50236 2.03664e-07 0)
(1.48199 -2.65434e-06 0)
(1.45711 2.09665e-05 0)
(1.40903 -0.00013506 0)
(1.32976 0.000176731 0)
(1.29062 0.000251809 0)
(1.27868 -0.00141443 0)
(1.24502 0.0045834 0)
(0.895412 0.0447025 0)
(0.659548 0.113178 0)
(1.50236 1.47302e-07 0)
(1.48199 -2.76537e-06 0)
(1.45711 2.26479e-05 0)
(1.40903 -0.000146269 0)
(1.32981 0.000191723 0)
(1.29049 0.000308014 0)
(1.27873 -0.00159204 0)
(1.24638 0.00536083 0)
(0.902068 0.0495659 0)
(0.684205 0.120635 0)
(1.50236 5.91603e-08 0)
(1.48199 -2.73681e-06 0)
(1.45711 2.37134e-05 0)
(1.40902 -0.00015382 0)
(1.32987 0.000202381 0)
(1.29037 0.000360317 0)
(1.27882 -0.00176037 0)
(1.24801 0.00606977 0)
(0.909201 0.0539434 0)
(0.708459 0.126031 0)
(1.50236 -5.92103e-08 0)
(1.48199 -2.59358e-06 0)
(1.45711 2.41196e-05 0)
(1.40901 -0.000157595 0)
(1.32992 0.000208271 0)
(1.29027 0.000403417 0)
(1.27891 -0.00190298 0)
(1.24999 0.00670223 0)
(0.91672 0.0580125 0)
(0.731308 0.130487 0)
(1.50236 -2.06522e-07 0)
(1.48199 -2.33655e-06 0)
(1.4571 2.38176e-05 0)
(1.409 -0.000157476 0)
(1.32998 0.000208025 0)
(1.29017 0.000439525 0)
(1.27903 -0.00203852 0)
(1.25222 0.00717219 0)
(0.92501 0.0618626 0)
(0.751364 0.133892 0)
(1.50236 -3.81179e-07 0)
(1.48199 -1.96308e-06 0)
(1.4571 2.28074e-05 0)
(1.409 -0.000153295 0)
(1.33004 0.000202033 0)
(1.29007 0.000476256 0)
(1.27924 -0.00216765 0)
(1.25465 0.00747194 0)
(0.934453 0.0652495 0)
(0.768158 0.136544 0)
(1.50236 -5.81074e-07 0)
(1.48199 -1.47323e-06 0)
(1.4571 2.1096e-05 0)
(1.40899 -0.000145114 0)
(1.33009 0.000191519 0)
(1.28998 0.000509313 0)
(1.27946 -0.00229025 0)
(1.25711 0.00749803 0)
(0.944455 0.068197 0)
(0.782978 0.138679 0)
(1.50236 -8.03002e-07 0)
(1.48199 -8.72199e-07 0)
(1.4571 1.86898e-05 0)
(1.40898 -0.00013301 0)
(1.33015 0.000176716 0)
(1.28988 0.000540406 0)
(1.27976 -0.00238492 0)
(1.25956 0.00726265 0)
(0.954481 0.0707933 0)
(0.797431 0.140284 0)
(1.50236 -1.04237e-06 0)
(1.48199 -1.71961e-07 0)
(1.4571 1.56319e-05 0)
(1.40898 -0.000117278 0)
(1.33019 0.000157855 0)
(1.28978 0.0005667 0)
(1.28015 -0.00245767 0)
(1.26194 0.00680871 0)
(0.964368 0.0731213 0)
(0.81156 0.142412 0)
(1.50236 -1.29352e-06 0)
(1.48199 6.10685e-07 0)
(1.4571 1.1995e-05 0)
(1.40897 -9.83556e-05 0)
(1.33024 0.000135239 0)
(1.28968 0.000588007 0)
(1.2806 -0.0024978 0)
(1.26411 0.0061248 0)
(0.974487 0.0750817 0)
(0.823705 0.144468 0)
(1.50236 -1.55039e-06 0)
(1.48199 1.45828e-06 0)
(1.45709 7.85045e-06 0)
(1.40897 -7.65771e-05 0)
(1.33027 0.000109249 0)
(1.2896 0.00060357 0)
(1.28108 -0.00251623 0)
(1.26578 0.0052279 0)
(0.98486 0.0767603 0)
(0.833979 0.146083 0)
(1.50236 -1.80694e-06 0)
(1.48199 2.35433e-06 0)
(1.45709 3.26223e-06 0)
(1.40897 -5.22809e-05 0)
(1.3303 8.07029e-05 0)
(1.28952 0.000610606 0)
(1.2815 -0.00244714 0)
(1.26669 0.0042841 0)
(0.995533 0.0783252 0)
(0.843499 0.147042 0)
(1.50236 -2.05706e-06 0)
(1.48199 3.28215e-06 0)
(1.45709 -1.705e-06 0)
(1.40896 -2.58061e-05 0)
(1.33032 4.98686e-05 0)
(1.28947 0.000610293 0)
(1.28179 -0.0023359 0)
(1.26722 0.00345933 0)
(1.0067 0.0795001 0)
(0.853361 0.147296 0)
(1.50236 -2.29347e-06 0)
(1.48199 4.21927e-06 0)
(1.45709 -6.96138e-06 0)
(1.40897 2.51889e-06 0)
(1.33033 1.77573e-05 0)
(1.28944 0.000603982 0)
(1.28188 -0.00214517 0)
(1.26782 0.00266677 0)
(1.0186 0.0805755 0)
(0.862653 0.147997 0)
(1.50236 2.29337e-06 0)
(1.48199 -4.21905e-06 0)
(1.45709 6.96099e-06 0)
(1.40897 -2.51772e-06 0)
(1.33033 -1.77605e-05 0)
(1.28944 -0.000603983 0)
(1.28188 0.00214518 0)
(1.26782 -0.00266676 0)
(1.0186 -0.0805755 0)
(0.862653 -0.147997 0)
(1.50236 2.05695e-06 0)
(1.48199 -3.2819e-06 0)
(1.45709 1.70442e-06 0)
(1.40896 2.58083e-05 0)
(1.33032 -4.98721e-05 0)
(1.28947 -0.000610295 0)
(1.28179 0.0023359 0)
(1.26722 -0.00345933 0)
(1.0067 -0.0795001 0)
(0.853361 -0.147295 0)
(1.50236 1.80683e-06 0)
(1.48199 -2.35407e-06 0)
(1.45709 -3.26301e-06 0)
(1.40897 5.22841e-05 0)
(1.3303 -8.07066e-05 0)
(1.28952 -0.000610607 0)
(1.2815 0.00244715 0)
(1.26669 -0.0042841 0)
(0.995533 -0.0783252 0)
(0.843499 -0.147042 0)
(1.50236 1.55029e-06 0)
(1.48199 -1.458e-06 0)
(1.45709 -7.85143e-06 0)
(1.40897 7.65814e-05 0)
(1.33027 -0.000109253 0)
(1.2896 -0.000603572 0)
(1.28108 0.00251624 0)
(1.26578 -0.00522791 0)
(0.98486 -0.0767603 0)
(0.833978 -0.146083 0)
(1.50236 1.29341e-06 0)
(1.48199 -6.10393e-07 0)
(1.4571 -1.19962e-05 0)
(1.40897 9.8361e-05 0)
(1.33024 -0.000135243 0)
(1.28968 -0.000588009 0)
(1.2806 0.00249781 0)
(1.26411 -0.0061248 0)
(0.974487 -0.0750817 0)
(0.823705 -0.144468 0)
(1.50236 1.04227e-06 0)
(1.48199 1.72261e-07 0)
(1.4571 -1.56332e-05 0)
(1.40898 0.000117285 0)
(1.33019 -0.000157859 0)
(1.28978 -0.000566702 0)
(1.28015 0.00245768 0)
(1.26194 -0.00680871 0)
(0.964368 -0.0731213 0)
(0.81156 -0.142412 0)
(1.50236 8.0291e-07 0)
(1.48199 8.72503e-07 0)
(1.4571 -1.86913e-05 0)
(1.40898 0.000133018 0)
(1.33015 -0.00017672 0)
(1.28988 -0.000540408 0)
(1.27976 0.00238492 0)
(1.25956 -0.00726265 0)
(0.954481 -0.0707933 0)
(0.797432 -0.140284 0)
(1.50236 5.8099e-07 0)
(1.48199 1.47354e-06 0)
(1.4571 -2.10976e-05 0)
(1.40899 0.000145122 0)
(1.33009 -0.000191522 0)
(1.28998 -0.000509315 0)
(1.27946 0.00229026 0)
(1.25711 -0.00749802 0)
(0.944455 -0.068197 0)
(0.782978 -0.138679 0)
(1.50236 3.81101e-07 0)
(1.48199 1.96339e-06 0)
(1.4571 -2.28091e-05 0)
(1.409 0.000153303 0)
(1.33004 -0.000202036 0)
(1.29007 -0.000476258 0)
(1.27924 0.00216765 0)
(1.25465 -0.00747194 0)
(0.934453 -0.0652495 0)
(0.768159 -0.136544 0)
(1.50236 2.06451e-07 0)
(1.48199 2.33686e-06 0)
(1.4571 -2.38194e-05 0)
(1.409 0.000157485 0)
(1.32998 -0.000208028 0)
(1.29017 -0.000439528 0)
(1.27903 0.00203852 0)
(1.25222 -0.00717219 0)
(0.92501 -0.0618626 0)
(0.751364 -0.133892 0)
(1.50236 5.91443e-08 0)
(1.48199 2.59389e-06 0)
(1.45711 -2.41214e-05 0)
(1.40901 0.000157604 0)
(1.32992 -0.000208274 0)
(1.29027 -0.000403419 0)
(1.27891 0.00190298 0)
(1.24999 -0.00670224 0)
(0.91672 -0.0580125 0)
(0.731308 -0.130487 0)
(1.50236 -5.92219e-08 0)
(1.48199 2.73714e-06 0)
(1.45711 -2.37153e-05 0)
(1.40902 0.00015383 0)
(1.32987 -0.000202383 0)
(1.29037 -0.00036032 0)
(1.27882 0.00176037 0)
(1.24801 -0.00606978 0)
(0.909201 -0.0539434 0)
(0.708459 -0.126031 0)
(1.50236 -1.4736e-07 0)
(1.48199 2.7657e-06 0)
(1.45711 -2.26498e-05 0)
(1.40903 0.000146278 0)
(1.32981 -0.000191724 0)
(1.29049 -0.000308017 0)
(1.27873 0.00159204 0)
(1.24638 -0.00536084 0)
(0.902068 -0.0495659 0)
(0.684205 -0.120635 0)
(1.50236 -2.03719e-07 0)
(1.48199 2.65468e-06 0)
(1.45711 -2.09686e-05 0)
(1.40903 0.00013507 0)
(1.32976 -0.000176732 0)
(1.29062 -0.000251811 0)
(1.27868 0.00141442 0)
(1.24502 -0.00458341 0)
(0.895412 -0.0447026 0)
(0.659548 -0.113178 0)
(1.50236 -2.31418e-07 0)
(1.48199 2.43807e-06 0)
(1.45711 -1.87115e-05 0)
(1.40904 0.000120331 0)
(1.3297 -0.00015773 0)
(1.29076 -0.000197029 0)
(1.27864 0.00122141 0)
(1.24395 -0.00379825 0)
(0.889345 -0.0393333 0)
(0.634169 -0.104527 0)
(1.50236 -2.33082e-07 0)
(1.48199 2.13078e-06 0)
(1.45711 -1.59695e-05 0)
(1.40905 0.000102582 0)
(1.32966 -0.000134932 0)
(1.2909 -0.000147958 0)
(1.27863 0.00102276 0)
(1.2431 -0.0030139 0)
(0.883881 -0.0334665 0)
(0.608167 -0.0924334 0)
(1.50236 -2.08584e-07 0)
(1.48199 1.74685e-06 0)
(1.45711 -1.28402e-05 0)
(1.40905 8.23666e-05 0)
(1.32962 -0.000108615 0)
(1.29102 -0.000107103 0)
(1.27861 0.00081317 0)
(1.2425 -0.00226256 0)
(0.878779 -0.0271945 0)
(0.579281 -0.0793501 0)
(1.50236 -1.64981e-07 0)
(1.48199 1.30057e-06 0)
(1.45711 -9.4155e-06 0)
(1.40906 6.02566e-05 0)
(1.32959 -7.94076e-05 0)
(1.29112 -7.34983e-05 0)
(1.27859 0.000593333 0)
(1.24211 -0.00156053 0)
(0.874496 -0.0202139 0)
(0.54931 -0.0604564 0)
(1.50236 -1.06997e-07 0)
(1.48198 8.08176e-07 0)
(1.45711 -5.77262e-06 0)
(1.40906 3.66992e-05 0)
(1.32957 -4.77117e-05 0)
(1.29119 -4.33421e-05 0)
(1.27856 0.000364569 0)
(1.24184 -0.000879627 0)
(0.869412 -0.0130213 0)
(0.517086 -0.0408769 0)
(1.50236 -4.28794e-08 0)
(1.48198 2.90752e-07 0)
(1.45711 -2.00766e-06 0)
(1.40906 1.24411e-05 0)
(1.32957 -1.46436e-05 0)
(1.29121 -2.16565e-05 0)
(1.27851 0.000135029 0)
(1.2419 -0.000264471 0)
(0.86588 -0.00443271 0)
(0.494368 -0.0138586 0)
(0.858477 -0.185397 0)
(0.86231 -0.187461 0)
(0.866225 -0.191999 0)
(0.872956 -0.196162 0)
(0.879562 -0.200412 0)
(0.888429 -0.201492 0)
(0.898182 -0.200002 0)
(0.91157 -0.194325 0)
(0.930102 -0.186132 0)
(0.958919 -0.176322 0)
(0.852629 -0.190902 0)
(0.857077 -0.195248 0)
(0.859619 -0.200326 0)
(0.865924 -0.203874 0)
(0.872652 -0.208379 0)
(0.882918 -0.211565 0)
(0.895695 -0.213129 0)
(0.912253 -0.209283 0)
(0.932647 -0.200515 0)
(0.963198 -0.188185 0)
(0.841376 -0.192916 0)
(0.846845 -0.198266 0)
(0.849413 -0.204379 0)
(0.856594 -0.209564 0)
(0.864202 -0.215699 0)
(0.876093 -0.219577 0)
(0.890949 -0.224534 0)
(0.912011 -0.224382 0)
(0.936695 -0.217814 0)
(0.971146 -0.204425 0)
(0.828542 -0.193509 0)
(0.834906 -0.199801 0)
(0.837833 -0.207291 0)
(0.846105 -0.213955 0)
(0.854663 -0.221615 0)
(0.868348 -0.227217 0)
(0.884917 -0.23361 0)
(0.909688 -0.237155 0)
(0.939743 -0.234804 0)
(0.979014 -0.222394 0)
(0.815145 -0.192797 0)
(0.822031 -0.199657 0)
(0.82516 -0.208233 0)
(0.83448 -0.216507 0)
(0.844106 -0.226142 0)
(0.859764 -0.233652 0)
(0.878768 -0.242576 0)
(0.906461 -0.247692 0)
(0.942048 -0.250101 0)
(0.987642 -0.24071 0)
(0.802264 -0.192411 0)
(0.809939 -0.199832 0)
(0.813432 -0.209475 0)
(0.824028 -0.219151 0)
(0.834951 -0.230818 0)
(0.852907 -0.240504 0)
(0.873964 -0.251634 0)
(0.904138 -0.258569 0)
(0.943301 -0.263299 0)
(0.994035 -0.256807 0)
(0.792226 -0.193463 0)
(0.801098 -0.202188 0)
(0.804657 -0.212898 0)
(0.81592 -0.223235 0)
(0.826936 -0.235849 0)
(0.84557 -0.246674 0)
(0.867161 -0.259205 0)
(0.898706 -0.267126 0)
(0.939936 -0.273783 0)
(0.996503 -0.269737 0)
(0.77866 -0.19259 0)
(0.78862 -0.20187 0)
(0.792158 -0.213582 0)
(0.803909 -0.224892 0)
(0.814948 -0.23861 0)
(0.834449 -0.250446 0)
(0.856885 -0.264482 0)
(0.890508 -0.274279 0)
(0.934085 -0.282235 0)
(0.997505 -0.280561 0)
(0.760707 -0.192056 0)
(0.771438 -0.201679 0)
(0.775476 -0.214389 0)
(0.788266 -0.226424 0)
(0.799731 -0.24119 0)
(0.820498 -0.253835 0)
(0.844224 -0.269373 0)
(0.879951 -0.280628 0)
(0.927412 -0.290853 0)
(0.996901 -0.290307 0)
(0.740427 -0.190976 0)
(0.750981 -0.200607 0)
(0.755261 -0.214169 0)
(0.769265 -0.226949 0)
(0.781462 -0.243057 0)
(0.803794 -0.256759 0)
(0.829126 -0.273808 0)
(0.867219 -0.286664 0)
(0.918372 -0.299123 0)
(0.994446 -0.299129 0)
(0.719111 -0.188907 0)
(0.729258 -0.199795 0)
(0.73332 -0.214922 0)
(0.748583 -0.228752 0)
(0.761768 -0.246387 0)
(0.785824 -0.261238 0)
(0.813094 -0.279673 0)
(0.853541 -0.293701 0)
(0.908597 -0.308249 0)
(0.991517 -0.30829 0)
(0.695437 -0.184496 0)
(0.706607 -0.197599 0)
(0.710317 -0.215002 0)
(0.726792 -0.230241 0)
(0.740821 -0.249451 0)
(0.76638 -0.265693 0)
(0.795505 -0.28559 0)
(0.83815 -0.300986 0)
(0.897206 -0.317811 0)
(0.987595 -0.317758 0)
(0.667522 -0.179677 0)
(0.681894 -0.194865 0)
(0.685947 -0.215157 0)
(0.704224 -0.232599 0)
(0.719446 -0.253865 0)
(0.746556 -0.271808 0)
(0.777672 -0.293135 0)
(0.822359 -0.309883 0)
(0.88534 -0.328903 0)
(0.983395 -0.328556 0)
(0.63584 -0.174808 0)
(0.65444 -0.191449 0)
(0.659564 -0.214456 0)
(0.680143 -0.234056 0)
(0.696834 -0.257406 0)
(0.7253 -0.277457 0)
(0.758255 -0.300401 0)
(0.804742 -0.318978 0)
(0.871431 -0.340697 0)
(0.977424 -0.340481 0)
(0.600784 -0.172043 0)
(0.623885 -0.189916 0)
(0.630774 -0.215876 0)
(0.654141 -0.237665 0)
(0.672919 -0.262774 0)
(0.702555 -0.284399 0)
(0.737054 -0.308375 0)
(0.784822 -0.328624 0)
(0.854438 -0.353042 0)
(0.967725 -0.353468 0)
(0.561978 -0.167838 0)
(0.589506 -0.18601 0)
(0.597778 -0.213567 0)
(0.623191 -0.236729 0)
(0.644197 -0.263432 0)
(0.674988 -0.287401 0)
(0.711208 -0.313052 0)
(0.760295 -0.33593 0)
(0.832255 -0.363911 0)
(0.951715 -0.36656 0)
(0.517396 -0.167341 0)
(0.549652 -0.185828 0)
(0.559353 -0.214536 0)
(0.586695 -0.238671 0)
(0.611924 -0.265833 0)
(0.645477 -0.291065 0)
(0.684516 -0.318041 0)
(0.735133 -0.343309 0)
(0.808054 -0.374135 0)
(0.929945 -0.381801 0)
(0.466635 -0.157252 0)
(0.505646 -0.171546 0)
(0.522289 -0.202429 0)
(0.553795 -0.233737 0)
(0.584627 -0.267321 0)
(0.622133 -0.297351 0)
(0.665149 -0.327147 0)
(0.719382 -0.35584 0)
(0.794721 -0.390787 0)
(0.92156 -0.405331 0)
(0.414026 -0.16173 0)
(0.465996 -0.183329 0)
(0.494556 -0.223398 0)
(0.534555 -0.257858 0)
(0.572437 -0.290374 0)
(0.61245 -0.318515 0)
(0.655414 -0.345853 0)
(0.707558 -0.373201 0)
(0.778971 -0.407978 0)
(0.901368 -0.433434 0)
(0.385575 -0.134608 0)
(0.454885 -0.166918 0)
(0.494887 -0.219127 0)
(0.538283 -0.258332 0)
(0.577301 -0.291371 0)
(0.616375 -0.319266 0)
(0.657749 -0.346096 0)
(0.707952 -0.372737 0)
(0.775982 -0.406912 0)
(0.900551 -0.439543 0)
(1.04577 -0.145421 0)
(1.17645 -0.0689592 0)
(1.2941 0.0378435 0)
(1.37363 0.14636 0)
(1.43296 0.2524 0)
(1.48615 0.338655 0)
(1.51057 0.359963 0)
(1.47308 0.273542 0)
(1.29042 0.0497287 0)
(1.19208 -0.0404529 0)
(1.05436 -0.151877 0)
(1.18909 -0.0669887 0)
(1.30724 0.0459631 0)
(1.38737 0.161017 0)
(1.44273 0.271276 0)
(1.49456 0.354735 0)
(1.5098 0.359308 0)
(1.46204 0.253337 0)
(1.27106 0.0408061 0)
(1.18862 -0.0386246 0)
(1.06665 -0.160942 0)
(1.20269 -0.0660258 0)
(1.32265 0.057149 0)
(1.40008 0.174686 0)
(1.45112 0.28945 0)
(1.49776 0.362715 0)
(1.50926 0.356599 0)
(1.4494 0.230205 0)
(1.25412 0.0340225 0)
(1.18617 -0.0380393 0)
(1.07806 -0.171322 0)
(1.21815 -0.0630852 0)
(1.33702 0.0674558 0)
(1.41525 0.194137 0)
(1.45992 0.306153 0)
(1.49885 0.366105 0)
(1.50811 0.353531 0)
(1.43557 0.205691 0)
(1.23828 0.0293499 0)
(1.18359 -0.0379607 0)
(1.09139 -0.18427 0)
(1.23441 -0.0618688 0)
(1.35401 0.0818788 0)
(1.42697 0.20758 0)
(1.47034 0.325938 0)
(1.50104 0.370095 0)
(1.50334 0.346492 0)
(1.42041 0.182342 0)
(1.22612 0.0275585 0)
(1.18172 -0.0356678 0)
(1.10461 -0.197745 0)
(1.25287 -0.0594203 0)
(1.37042 0.0947408 0)
(1.44418 0.229946 0)
(1.47835 0.345081 0)
(1.5014 0.369912 0)
(1.49731 0.335012 0)
(1.40216 0.161794 0)
(1.2169 0.0285975 0)
(1.1801 -0.0322547 0)
(1.11848 -0.211599 0)
(1.27307 -0.0590952 0)
(1.3898 0.110119 0)
(1.45751 0.248617 0)
(1.48299 0.354665 0)
(1.50102 0.366731 0)
(1.49043 0.320015 0)
(1.38029 0.143906 0)
(1.20909 0.0304002 0)
(1.17851 -0.029267 0)
(1.13293 -0.224456 0)
(1.29552 -0.0586551 0)
(1.41064 0.126628 0)
(1.47277 0.272903 0)
(1.48539 0.362113 0)
(1.50158 0.363753 0)
(1.4825 0.301842 0)
(1.35984 0.131085 0)
(1.20248 0.0320176 0)
(1.17723 -0.0280689 0)
(1.14793 -0.235251 0)
(1.32006 -0.0588146 0)
(1.43222 0.144211 0)
(1.48493 0.285778 0)