/*--------------------------------*- C++ -*----------------------------------*\
  =========                 |
  \\      /  F ield         | OpenFOAM: The Open Source CFD Toolbox
   \\    /   O peration     | Website:  https://openfoam.org
    \\  /    A nd           | Version:  7
     \\/     M anipulation  |
\*---------------------------------------------------------------------------*/
FoamFile
{
    version     2.0;
    format      ascii;
    class       volVectorField;
    location    "0.2";
    object      U;
}
// * * * * * * * * * * * * * * * * * * * * * * * * * * * * * * * * * * * * * //

dimensions      [0 1 -1 0 0 0 0];

internalField   nonuniform List<vector> 
3225
(
(1.03937 -0.234642 0)
(1.04712 -0.230085 0)
(1.05486 -0.224998 0)
(1.06322 -0.219569 0)
(1.07179 -0.213946 0)
(1.08016 -0.208308 0)
(1.08769 -0.203015 0)
(1.09498 -0.197672 0)
(1.10287 -0.191788 0)
(1.11087 -0.185117 0)
(1.11842 -0.177997 0)
(1.12532 -0.170724 0)
(1.13189 -0.163399 0)
(1.13861 -0.156036 0)
(1.14533 -0.148592 0)
(1.15173 -0.14107 0)
(1.15785 -0.133423 0)
(1.16367 -0.125703 0)
(1.16889 -0.118054 0)
(1.17368 -0.110227 0)
(1.17834 -0.102073 0)
(1.04121 -0.233806 0)
(1.04911 -0.229436 0)
(1.05686 -0.224534 0)
(1.0653 -0.219061 0)
(1.07401 -0.213152 0)
(1.08235 -0.207208 0)
(1.08989 -0.201597 0)
(1.09722 -0.196074 0)
(1.10536 -0.190188 0)
(1.11345 -0.183648 0)
(1.12107 -0.176699 0)
(1.12797 -0.169502 0)
(1.13451 -0.162096 0)
(1.14135 -0.154447 0)
(1.1481 -0.146717 0)
(1.15454 -0.138975 0)
(1.1605 -0.13123 0)
(1.16612 -0.12344 0)
(1.17153 -0.115594 0)
(1.17646 -0.107711 0)
(1.18093 -0.0996837 0)
(1.04296 -0.233053 0)
(1.051 -0.228688 0)
(1.05892 -0.223877 0)
(1.06737 -0.218447 0)
(1.07618 -0.212452 0)
(1.08447 -0.206412 0)
(1.09206 -0.200529 0)
(1.09939 -0.194696 0)
(1.10764 -0.188602 0)
(1.11586 -0.182053 0)
(1.12338 -0.17532 0)
(1.13059 -0.168117 0)
(1.13716 -0.160694 0)
(1.14392 -0.152967 0)
(1.15075 -0.145019 0)
(1.15727 -0.13701 0)
(1.16335 -0.128998 0)
(1.16867 -0.121163 0)
(1.17394 -0.113231 0)
(1.17918 -0.105128 0)
(1.18382 -0.0970379 0)
(1.04464 -0.232487 0)
(1.05278 -0.228008 0)
(1.06096 -0.2231 0)
(1.06944 -0.217663 0)
(1.07837 -0.211694 0)
(1.08666 -0.205716 0)
(1.09436 -0.199656 0)
(1.10185 -0.193434 0)
(1.11004 -0.187046 0)
(1.11842 -0.180344 0)
(1.1259 -0.173685 0)
(1.13303 -0.166657 0)
(1.13981 -0.159191 0)
(1.14673 -0.151328 0)
(1.15356 -0.143306 0)
(1.15989 -0.135233 0)
(1.16602 -0.126965 0)
(1.17151 -0.118761 0)
(1.17652 -0.110742 0)
(1.18163 -0.102632 0)
(1.18645 -0.0944194 0)
(1.04646 -0.232062 0)
(1.05467 -0.227437 0)
(1.06308 -0.222261 0)
(1.07165 -0.216684 0)
(1.08045 -0.210856 0)
(1.08884 -0.205048 0)
(1.09654 -0.19901 0)
(1.10436 -0.192393 0)
(1.11269 -0.185553 0)
(1.12099 -0.178678 0)
(1.12838 -0.172044 0)
(1.13559 -0.164987 0)
(1.1425 -0.157521 0)
(1.14927 -0.149748 0)
(1.15643 -0.141574 0)
(1.16292 -0.1333 0)
(1.16883 -0.124917 0)
(1.17413 -0.116592 0)
(1.17919 -0.108275 0)
(1.18434 -0.0999499 0)
(1.18906 -0.0917391 0)
(1.04826 -0.231788 0)
(1.05666 -0.226986 0)
(1.06517 -0.221488 0)
(1.07391 -0.215634 0)
(1.08258 -0.209892 0)
(1.09101 -0.204277 0)
(1.09883 -0.198272 0)
(1.10681 -0.191456 0)
(1.11526 -0.184241 0)
(1.12362 -0.177099 0)
(1.13102 -0.170362 0)
(1.13795 -0.163395 0)
(1.14509 -0.155802 0)
(1.15207 -0.147915 0)
(1.15908 -0.13983 0)
(1.16566 -0.131509 0)
(1.17167 -0.122927 0)
(1.17713 -0.114256 0)
(1.18191 -0.105851 0)
(1.18689 -0.0974367 0)
(1.19182 -0.0889766 0)
(1.05007 -0.231513 0)
(1.05868 -0.226575 0)
(1.06733 -0.220797 0)
(1.07619 -0.214659 0)
(1.08473 -0.208915 0)
(1.09317 -0.203389 0)
(1.10112 -0.197418 0)
(1.10938 -0.190454 0)
(1.11799 -0.182951 0)
(1.1262 -0.175657 0)
(1.13373 -0.168746 0)
(1.14058 -0.161689 0)
(1.14766 -0.15404 0)
(1.15466 -0.146124 0)
(1.16178 -0.137941 0)
(1.16865 -0.129478 0)
(1.17459 -0.12088 0)
(1.17976 -0.112236 0)
(1.18477 -0.103449 0)
(1.18976 -0.0947713 0)
(1.19448 -0.0862741 0)
(1.05197 -0.231072 0)
(1.0609 -0.226035 0)
(1.06967 -0.220117 0)
(1.07854 -0.213811 0)
(1.08699 -0.207991 0)
(1.09534 -0.202438 0)
(1.10348 -0.196387 0)
(1.11187 -0.189366 0)
(1.12071 -0.181678 0)
(1.12879 -0.1743 0)
(1.13643 -0.167208 0)
(1.14332 -0.160016 0)
(1.15023 -0.152308 0)
(1.15753 -0.144135 0)
(1.16446 -0.135945 0)
(1.17125 -0.127543 0)
(1.17751 -0.118787 0)
(1.18288 -0.109937 0)
(1.18755 -0.101172 0)
(1.19244 -0.0923046 0)
(1.19734 -0.0834766 0)
(1.05396 -0.230396 0)
(1.06313 -0.225319 0)
(1.072 -0.219444 0)
(1.0808 -0.213166 0)
(1.0893 -0.207173 0)
(1.09762 -0.201424 0)
(1.10589 -0.195246 0)
(1.1144 -0.188142 0)
(1.12346 -0.180321 0)
(1.13148 -0.172913 0)
(1.13904 -0.165787 0)
(1.14623 -0.158356 0)
(1.15305 -0.150515 0)
(1.16023 -0.142232 0)
(1.16731 -0.133814 0)
(1.1741 -0.125339 0)
(1.18031 -0.116664 0)
(1.18557 -0.107898 0)
(1.19058 -0.098785 0)
(1.19538 -0.0896868 0)
(1.20011 -0.0807322 0)
(1.05592 -0.229608 0)
(1.06528 -0.224477 0)
(1.07433 -0.218732 0)
(1.08304 -0.212594 0)
(1.09159 -0.206474 0)
(1.09998 -0.200463 0)
(1.10844 -0.194041 0)
(1.11697 -0.186839 0)
(1.12604 -0.178957 0)
(1.1342 -0.171504 0)
(1.14173 -0.164333 0)
(1.14914 -0.156746 0)
(1.15595 -0.148766 0)
(1.16318 -0.140216 0)
(1.17023 -0.131614 0)
(1.17682 -0.123154 0)
(1.18309 -0.114467 0)
(1.18856 -0.105587 0)
(1.1934 -0.0964942 0)
(1.19824 -0.0871521 0)
(1.20297 -0.0779128 0)
(1.05795 -0.228814 0)
(1.06741 -0.223634 0)
(1.07656 -0.218023 0)
(1.0853 -0.211999 0)
(1.09399 -0.205756 0)
(1.10256 -0.199489 0)
(1.11118 -0.192816 0)
(1.11973 -0.185481 0)
(1.12859 -0.17759 0)
(1.13691 -0.170042 0)
(1.14443 -0.162877 0)
(1.15205 -0.155153 0)
(1.15912 -0.146941 0)
(1.16608 -0.138282 0)
(1.17317 -0.129431 0)
(1.1798 -0.120783 0)
(1.18595 -0.112163 0)
(1.19128 -0.103397 0)
(1.19642 -0.0940372 0)
(1.20128 -0.0844861 0)
(1.20581 -0.0751138 0)
(1.06006 -0.228105 0)
(1.0697 -0.222734 0)
(1.07898 -0.217114 0)
(1.08769 -0.211219 0)
(1.09645 -0.204974 0)
(1.1052 -0.198549 0)
(1.11394 -0.191641 0)
(1.1227 -0.184079 0)
(1.13118 -0.17623 0)
(1.13942 -0.168654 0)
(1.14731 -0.161257 0)
(1.15505 -0.153479 0)
(1.16228 -0.145137 0)
(1.16931 -0.136246 0)
(1.17623 -0.127216 0)
(1.18263 -0.118525 0)
(1.18885 -0.109805 0)
(1.19432 -0.100932 0)
(1.19927 -0.0916106 0)
(1.2043 -0.0818246 0)
(1.2088 -0.0722389 0)
(1.06216 -0.227387 0)
(1.07192 -0.221799 0)
(1.08126 -0.216175 0)
(1.09 -0.210424 0)
(1.09875 -0.204271 0)
(1.1078 -0.19765 0)
(1.11673 -0.19044 0)
(1.12559 -0.182683 0)
(1.13397 -0.174845 0)
(1.14195 -0.167281 0)
(1.14992 -0.159783 0)
(1.15807 -0.151755 0)
(1.16566 -0.143199 0)
(1.17253 -0.134237 0)
(1.17934 -0.125042 0)
(1.1857 -0.116152 0)
(1.19172 -0.107461 0)
(1.19724 -0.0985277 0)
(1.20233 -0.089009 0)
(1.20732 -0.0791195 0)
(1.21177 -0.0694268 0)
(1.06446 -0.226477 0)
(1.07424 -0.220774 0)
(1.08356 -0.215307 0)
(1.09234 -0.209715 0)
(1.10118 -0.203524 0)
(1.11042 -0.196651 0)
(1.11961 -0.189118 0)
(1.12865 -0.181223 0)
(1.13683 -0.173556 0)
(1.1446 -0.165975 0)
(1.15273 -0.158199 0)
(1.16094 -0.150057 0)
(1.16888 -0.141271 0)
(1.17608 -0.132058 0)
(1.18262 -0.122833 0)
(1.18867 -0.113955 0)
(1.19471 -0.105057 0)
(1.20038 -0.0959404 0)
(1.20533 -0.0864348 0)
(1.21034 -0.0764107 0)
(1.21494 -0.0664793 0)
(1.06689 -0.22545 0)
(1.07646 -0.219911 0)
(1.08579 -0.214706 0)
(1.09473 -0.20913 0)
(1.10372 -0.202712 0)
(1.1133 -0.195365 0)
(1.12277 -0.187519 0)
(1.13175 -0.179754 0)
(1.13984 -0.17233 0)
(1.14734 -0.164783 0)
(1.15547 -0.156734 0)
(1.16406 -0.148156 0)
(1.17219 -0.139176 0)
(1.17934 -0.129962 0)
(1.18595 -0.120633 0)
(1.19201 -0.111601 0)
(1.19762 -0.10278 0)
(1.20337 -0.0934471 0)
(1.20869 -0.0835844 0)
(1.21341 -0.0736281 0)
(1.21782 -0.0637576 0)
(1.06915 -0.224602 0)
(1.07859 -0.219403 0)
(1.08799 -0.214334 0)
(1.0972 -0.208538 0)
(1.10654 -0.201595 0)
(1.11622 -0.193675 0)
(1.1256 -0.185813 0)
(1.13463 -0.178473 0)
(1.14275 -0.171296 0)
(1.15025 -0.163566 0)
(1.15843 -0.155099 0)
(1.16692 -0.146267 0)
(1.17537 -0.137021 0)
(1.18289 -0.127672 0)
(1.18915 -0.118575 0)
(1.19515 -0.109471 0)
(1.20103 -0.100195 0)
(1.20653 -0.0907598 0)
(1.21165 -0.0809487 0)
(1.21655 -0.0708023 0)
(1.22109 -0.0607137 0)
(1.07134 -0.224202 0)
(1.08071 -0.219119 0)
(1.0903 -0.213867 0)
(1.09987 -0.207609 0)
(1.10959 -0.199972 0)
(1.11916 -0.191771 0)
(1.12823 -0.184464 0)
(1.13733 -0.177564 0)
(1.14579 -0.170205 0)
(1.15335 -0.162176 0)
(1.16151 -0.153317 0)
(1.17015 -0.144105 0)
(1.17842 -0.134906 0)
(1.18599 -0.12567 0)
(1.19261 -0.116375 0)
(1.1986 -0.107103 0)
(1.2041 -0.0978277 0)
(1.20971 -0.0880739 0)
(1.21521 -0.0778759 0)
(1.21972 -0.0679415 0)
(1.22385 -0.0580872 0)
(1.07359 -0.224004 0)
(1.08295 -0.21872 0)
(1.09278 -0.213034 0)
(1.10293 -0.206054 0)
(1.1128 -0.197961 0)
(1.12194 -0.190293 0)
(1.13083 -0.183636 0)
(1.14005 -0.176767 0)
(1.14884 -0.168986 0)
(1.15684 -0.160458 0)
(1.16492 -0.151347 0)
(1.17318 -0.142156 0)
(1.18155 -0.132861 0)
(1.18936 -0.123462 0)
(1.19577 -0.114312 0)
(1.20184 -0.104852 0)
(1.20787 -0.0950253 0)
(1.21307 -0.085241 0)
(1.21811 -0.0752455 0)
(1.22304 -0.0650209 0)
(1.22734 -0.0549105 0)
(1.07589 -0.223753 0)
(1.0854 -0.21798 0)
(1.09566 -0.211512 0)
(1.10608 -0.203877 0)
(1.1157 -0.196214 0)
(1.12461 -0.189603 0)
(1.13345 -0.183171 0)
(1.1429 -0.175782 0)
(1.15216 -0.167292 0)
(1.16038 -0.158503 0)
(1.16837 -0.149469 0)
(1.17651 -0.140302 0)
(1.18455 -0.131018 0)
(1.19234 -0.121474 0)
(1.19934 -0.111868 0)
(1.20547 -0.102264 0)
(1.21108 -0.0925069 0)
(1.21645 -0.0824571 0)
(1.2217 -0.0721767 0)
(1.22621 -0.0621807 0)
(1.2302 -0.0521571 0)
(1.07834 -0.223171 0)
(1.08821 -0.216677 0)
(1.09865 -0.209399 0)
(1.10885 -0.201898 0)
(1.11832 -0.195482 0)
(1.12724 -0.189355 0)
(1.13625 -0.182445 0)
(1.14592 -0.174237 0)
(1.15533 -0.165239 0)
(1.16375 -0.15659 0)
(1.17184 -0.147828 0)
(1.17983 -0.138652 0)
(1.18788 -0.12899 0)
(1.19566 -0.119116 0)
(1.20249 -0.10957 0)
(1.20882 -0.0998142 0)
(1.21489 -0.0896554 0)
(1.21997 -0.0796169 0)
(1.22474 -0.0695455 0)
(1.22958 -0.0592093 0)
(1.23382 -0.0487679 0)
(1.08115 -0.222171 0)
(1.0913 -0.214969 0)
(1.1015 -0.207551 0)
(1.1114 -0.201066 0)
(1.12089 -0.195219 0)
(1.13 -0.188791 0)
(1.13939 -0.181045 0)
(1.14925 -0.172035 0)
(1.15838 -0.16322 0)
(1.16696 -0.15506 0)
(1.17535 -0.146306 0)
(1.1835 -0.136715 0)
(1.19138 -0.126745 0)
(1.19884 -0.116878 0)
(1.20588 -0.107152 0)
(1.21247 -0.0971656 0)
(1.21832 -0.0869651 0)
(1.22345 -0.0768253 0)
(1.22834 -0.0665558 0)
(1.23287 -0.0561934 0)
(1.23683 -0.0456698 0)
(1.08416 -0.220975 0)
(1.09433 -0.21354 0)
(1.10422 -0.206772 0)
(1.11395 -0.200904 0)
(1.12356 -0.194833 0)
(1.1331 -0.187563 0)
(1.14298 -0.178829 0)
(1.15253 -0.169695 0)
(1.16135 -0.161717 0)
(1.17013 -0.153801 0)
(1.1791 -0.144484 0)
(1.18735 -0.134335 0)
(1.19488 -0.124432 0)
(1.20218 -0.114713 0)
(1.20918 -0.10492 0)
(1.21585 -0.0946623 0)
(1.22194 -0.0841395 0)
(1.22702 -0.0739711 0)
(1.23173 -0.0636759 0)
(1.23633 -0.0529664 0)
(1.2403 -0.0421654 0)
(1.08708 -0.220147 0)
(1.09714 -0.21307 0)
(1.10692 -0.206827 0)
(1.11661 -0.200804 0)
(1.1265 -0.193917 0)
(1.13664 -0.185472 0)
(1.14656 -0.17615 0)
(1.15567 -0.167952 0)
(1.16437 -0.160678 0)
(1.17352 -0.152284 0)
(1.18289 -0.142052 0)
(1.1912 -0.131615 0)
(1.19847 -0.122217 0)
(1.20542 -0.112901 0)
(1.21251 -0.102795 0)
(1.21962 -0.0918741 0)
(1.22571 -0.0811436 0)
(1.23064 -0.0710347 0)
(1.23531 -0.0606284 0)
(1.23975 -0.0497498 0)
(1.24343 -0.0389726 0)
(1.08995 -0.220254 0)
(1.09993 -0.213487 0)
(1.10971 -0.20699 0)
(1.11957 -0.200219 0)
(1.12994 -0.192203 0)
(1.14028 -0.182782 0)
(1.14981 -0.174047 0)
(1.1588 -0.166934 0)
(1.16765 -0.15945 0)
(1.17708 -0.150093 0)
(1.18669 -0.139044 0)
(1.19482 -0.129119 0)
(1.2019 -0.120474 0)
(1.20892 -0.111025 0)
(1.21623 -0.100295 0)
(1.22314 -0.0891178 0)
(1.22914 -0.078405 0)
(1.23428 -0.0681046 0)
(1.23913 -0.0573863 0)
(1.24336 -0.0464248 0)
(1.24675 -0.0357672 0)
(1.09285 -0.22078 0)
(1.10283 -0.213856 0)
(1.11269 -0.206831 0)
(1.12309 -0.199092 0)
(1.13378 -0.189925 0)
(1.14366 -0.180613 0)
(1.15297 -0.173063 0)
(1.16208 -0.165975 0)
(1.1713 -0.157526 0)
(1.18115 -0.147055 0)
(1.19014 -0.136347 0)
(1.19813 -0.127435 0)
(1.20564 -0.118597 0)
(1.21265 -0.10874 0)
(1.21971 -0.0977467 0)
(1.22685 -0.0863014 0)
(1.23308 -0.075352 0)
(1.23815 -0.0649434 0)
(1.24273 -0.0542707 0)
(1.2468 -0.0434313 0)
(1.25004 -0.0327343 0)
(1.09578 -0.221003 0)
(1.10584 -0.213947 0)
(1.11613 -0.206311 0)
(1.12698 -0.197536 0)
(1.1374 -0.187999 0)
(1.14687 -0.179939 0)
(1.15623 -0.17261 0)
(1.16572 -0.164462 0)
(1.1756 -0.154633 0)
(1.18503 -0.143882 0)
(1.19355 -0.134566 0)
(1.2015 -0.126029 0)
(1.20908 -0.116653 0)
(1.2165 -0.10602 0)
(1.22371 -0.094818 0)
(1.23044 -0.083688 0)
(1.23642 -0.0727865 0)
(1.24179 -0.0619054 0)
(1.2468 -0.0508863 0)
(1.25079 -0.0400512 0)
(1.25358 -0.0293989 0)
(1.09884 -0.220799 0)
(1.10918 -0.213623 0)
(1.11979 -0.205366 0)
(1.1307 -0.196058 0)
(1.14088 -0.187588 0)
(1.1502 -0.180105 0)
(1.15981 -0.171852 0)
(1.16996 -0.162053 0)
(1.17977 -0.151227 0)
(1.18866 -0.141695 0)
(1.1969 -0.13351 0)
(1.20505 -0.124357 0)
(1.21316 -0.11382 0)
(1.22043 -0.102958 0)
(1.2273 -0.0922609 0)
(1.23416 -0.0810866 0)
(1.24045 -0.069599 0)
(1.24573 -0.0585843 0)
(1.25037 -0.0477936 0)
(1.25428 -0.036892 0)
(1.25724 -0.0257734 0)
(1.10191 -0.220068 0)
(1.11271 -0.212698 0)
(1.12347 -0.204213 0)
(1.13425 -0.195642 0)
(1.14437 -0.187968 0)
(1.15375 -0.179998 0)
(1.16396 -0.170388 0)
(1.17431 -0.159052 0)
(1.18354 -0.148729 0)
(1.19227 -0.14055 0)
(1.2005 -0.132134 0)
(1.20902 -0.121841 0)
(1.21706 -0.110655 0)
(1.22423 -0.100107 0)
(1.23138 -0.0894902 0)
(1.238 -0.0782273 0)
(1.24385 -0.0667605 0)
(1.24944 -0.0554574 0)
(1.25476 -0.0441188 0)
(1.25876 -0.0328143 0)
(1.26114 -0.0217609 0)
(1.10519 -0.218837 0)
(1.11617 -0.211319 0)
(1.12688 -0.203271 0)
(1.13766 -0.195516 0)
(1.14788 -0.187905 0)
(1.15766 -0.179246 0)
(1.16847 -0.168238 0)
(1.17835 -0.156699 0)
(1.18729 -0.147742 0)
(1.19606 -0.139498 0)
(1.20457 -0.129845 0)
(1.21317 -0.118597 0)
(1.22108 -0.10754 0)
(1.22831 -0.0973501 0)
(1.23527 -0.0866395 0)
(1.24182 -0.0750624 0)
(1.24778 -0.0634378 0)
(1.25335 -0.0521708 0)
(1.25848 -0.040587 0)
(1.26248 -0.0288508 0)
(1.26483 -0.017874 0)
(1.10825 -0.217626 0)
(1.11949 -0.210037 0)
(1.13023 -0.20241 0)
(1.141 -0.195018 0)
(1.15151 -0.187175 0)
(1.16221 -0.177645 0)
(1.17285 -0.165998 0)
(1.18215 -0.156077 0)
(1.19106 -0.147434 0)
(1.20026 -0.137735 0)
(1.20885 -0.126678 0)
(1.21726 -0.115259 0)
(1.22513 -0.104819 0)
(1.23243 -0.0945348 0)
(1.2396 -0.0831243 0)
(1.24566 -0.0717051 0)
(1.25125 -0.06059 0)
(1.25729 -0.0488277 0)
(1.26287 -0.0363393 0)
(1.26654 -0.0246536 0)
(1.26848 -0.0144556 0)
(1.11166 -0.216623 0)
(1.12284 -0.20903 0)
(1.13343 -0.201657 0)
(1.14449 -0.194056 0)
(1.15563 -0.18547 0)
(1.1663 -0.175166 0)
(1.17663 -0.164812 0)
(1.1859 -0.155976 0)
(1.19496 -0.146545 0)
(1.20466 -0.135092 0)
(1.21327 -0.123238 0)
(1.22123 -0.112662 0)
(1.22899 -0.102555 0)
(1.23696 -0.0912176 0)
(1.24396 -0.0793106 0)
(1.24948 -0.0685787 0)
(1.25509 -0.05761 0)
(1.26127 -0.0452843 0)
(1.26663 -0.032366 0)
(1.27014 -0.0212136 0)
(1.27218 -0.0113542 0)
(1.11468 -0.216123 0)
(1.12631 -0.208265 0)
(1.13699 -0.200638 0)
(1.14806 -0.192529 0)
(1.15952 -0.183005 0)
(1.17021 -0.173114 0)
(1.18037 -0.164218 0)
(1.18963 -0.155479 0)
(1.19979 -0.144584 0)
(1.20954 -0.131819 0)
(1.21723 -0.120877 0)
(1.22542 -0.110717 0)
(1.23386 -0.099604 0)
(1.24148 -0.0875084 0)
(1.24822 -0.0758307 0)
(1.25356 -0.0656716 0)
(1.2591 -0.0545138 0)
(1.26538 -0.0413805 0)
(1.27041 -0.0285817 0)
(1.27368 -0.0182347 0)
(1.27591 -0.00824607 0)
(1.11824 -0.215545 0)
(1.12952 -0.207726 0)
(1.14046 -0.199601 0)
(1.15215 -0.190601 0)
(1.16335 -0.18077 0)
(1.17385 -0.17197 0)
(1.18411 -0.163506 0)
(1.19396 -0.15388 0)
(1.2043 -0.141602 0)
(1.21357 -0.129166 0)
(1.22143 -0.119241 0)
(1.22966 -0.108795 0)
(1.23796 -0.0966262 0)
(1.24586 -0.0840043 0)
(1.25267 -0.0728236 0)
(1.25792 -0.0627542 0)
(1.26348 -0.0509525 0)
(1.26934 -0.0374603 0)
(1.27383 -0.0256626 0)
(1.27715 -0.0155821 0)
(1.28008 -0.00447662 0)
(1.12149 -0.215107 0)
(1.13311 -0.207024 0)
(1.14455 -0.198342 0)
(1.156 -0.18881 0)
(1.16682 -0.179592 0)
(1.17747 -0.171126 0)
(1.188 -0.162092 0)
(1.19826 -0.151178 0)
(1.20872 -0.138537 0)
(1.2178 -0.127573 0)
(1.22561 -0.117903 0)
(1.23446 -0.106154 0)
(1.1 -5.76275e-16 0)
(1.1 -5.17017e-16 0)
(1.1 -3.93128e-16 0)
(1.1 4.43411e-17 0)
(1.1 -1.36739e-18 0)
(1.1 2.56565e-16 0)
(1.1 2.9027e-16 0)
(1.1 6.59786e-16 0)
(1.1 5.72519e-16 0)
(1.1 8.38756e-16 0)
(1.1 5.72071e-16 0)
(1.1 5.07279e-16 0)
(1.1 5.99402e-16 0)
(1.1 5.83953e-16 0)
(1.1 -2.1957e-18 0)
(1.1 -1.42279e-15 0)
(1.1 -3.79908e-16 0)
(1.1 1.96778e-16 0)
(1.1 -2.99784e-16 0)
(1.1 2.50931e-16 0)
(1.1 -1.12895e-16 0)
(1.1 -4.7201e-16 0)
(1.1 -5.65741e-16 0)
(1.1 -2.56096e-16 0)
(1.1 -2.1791e-16 0)
(1.1 -3.59544e-16 0)
(1.1 2.79331e-16 0)
(1.1 4.85516e-16 0)
(1.1 1.49501e-15 0)
(1.1 1.40507e-15 0)
(1.1 5.9797e-16 0)
(1.1 8.74077e-16 0)
(1.1 1.22274e-15 0)
(1.1 1.78009e-15 0)
(1.1 1.13856e-15 0)
(1.1 1.4261e-16 0)
(1.1 -1.37429e-15 0)
(1.1 -6.7674e-16 0)
(1.1 -1.23111e-16 0)
(1.1 -7.31984e-17 0)
(1.1 1.46637e-16 0)
(1.1 -5.90283e-16 0)
(1.1 6.10581e-16 0)
(1.1 1.93277e-16 0)
(1.1 -3.00313e-16 0)
(1.1 -7.09249e-16 0)
(1.1 -4.40816e-16 0)
(1.1 -3.85285e-19 0)
(1.1 4.26837e-16 0)
(1.1 7.69908e-16 0)
(1.1 7.90489e-16 0)
(1.1 1.35508e-16 0)
(1.1 7.22235e-16 0)
(1.1 1.55798e-15 0)
(1.1 2.69066e-15 0)
(1.1 2.05733e-15 0)
(1.1 8.94007e-16 0)
(1.1 -8.27103e-16 0)
(1.1 -1.9616e-15 0)
(1.1 -5.64916e-16 0)
(1.1 8.03447e-16 0)
(1.1 1.74001e-16 0)
(1.1 -1.08337e-15 0)
(1.1 1.00222e-16 0)
(1.1 -2.59512e-16 0)
(1.1 -6.10509e-16 0)
(1.1 -3.34574e-16 0)
(1.1 2.53043e-17 0)
(1.1 4.22526e-16 0)
(1.1 6.43388e-16 0)
(1.1 5.30485e-16 0)
(1.1 2.84996e-16 0)
(1.1 8.05739e-17 0)
(1.1 4.18088e-16 0)
(1.1 9.12626e-16 0)
(1.1 1.97952e-15 0)
(1.1 1.29483e-15 0)
(1.1 -2.36404e-16 0)
(1.1 -1.20615e-15 0)
(1.1 -2.37524e-15 0)
(1.1 -1.48609e-15 0)
(1.1 -3.7798e-16 0)
(1.1 5.75951e-16 0)
(1.1 -6.58205e-16 0)
(1.1 -9.98867e-16 0)
(1.1 -9.01073e-16 0)
(1.1 -3.81898e-16 0)
(1.1 4.63067e-16 0)
(1.1 7.36845e-16 0)
(1.1 4.50824e-16 0)
(1.1 5.63864e-16 0)
(1.1 4.64473e-16 0)
(1.1 7.84184e-16 0)
(1.1 9.01539e-17 0)
(1.1 3.70256e-16 0)
(1.1 7.10701e-16 0)
(1.1 8.6715e-16 0)
(1.1 5.79686e-16 0)
(1.1 -3.9535e-16 0)
(1.1 -3.60183e-16 0)
(1.1 -1.55921e-16 0)
(1.1 -9.64882e-16 0)
(1.1 -1.1298e-15 0)
(1.1 -1.12198e-15 0)
(1.1 -1.18292e-15 0)
(1.1 -4.52534e-16 0)
(1.1 -4.20306e-16 0)
(1.1 -1.64922e-16 0)
(1.1 -1.09024e-16 0)
(1.1 6.19815e-16 0)
(1.1 3.55283e-16 0)
(1.1 3.80199e-16 0)
(1.1 9.28125e-16 0)
(1.1 9.67787e-16 0)
(1.1 9.36034e-16 0)
(1.1 8.86972e-16 0)
(1.1 8.9631e-17 0)
(1.1 -2.19164e-16 0)
(1.1 4.93392e-16 0)
(1.1 -2.1968e-16 0)
(1.1 1.77042e-17 0)
(1.1 7.42738e-16 0)
(1.1 -4.76662e-17 0)
(1.1 -1.48876e-15 0)
(1.1 -2.65904e-15 0)
(1.1 -2.31837e-15 0)
(1.1 2.24878e-16 0)
(1.1 2.10294e-16 0)
(1.1 3.07388e-16 0)
(1.1 -1.9062e-16 0)
(1.1 -5.80184e-17 0)
(1.1 1.07527e-16 0)
(1.1 1.0834e-15 0)
(1.1 6.73178e-16 0)
(1.1 1.14467e-15 0)
(1.1 1.28988e-15 0)
(1.1 5.65543e-16 0)
(1.1 2.76636e-16 0)
(1.1 8.93732e-17 0)
(1.1 2.68756e-16 0)
(1.1 2.04865e-16 0)
(1.1 1.5772e-16 0)
(1.1 5.83696e-16 0)
(1.1 -1.92705e-16 0)
(1.1 -1.72153e-15 0)
(1.1 -2.05311e-15 0)
(1.1 -2.9306e-15 0)
(1.1 4.84351e-16 0)
(1.1 5.37646e-16 0)
(1.1 5.55525e-16 0)
(1.1 -9.95218e-17 0)
(1.1 -2.86331e-16 0)
(1.1 2.68063e-16 0)
(1.1 1.19136e-15 0)
(1.1 7.93853e-16 0)
(1.1 7.09852e-16 0)
(1.1 8.85414e-16 0)
(1.1 5.22984e-16 0)
(1.1 5.63998e-16 0)
(1.1 5.02661e-16 0)
(1.1 1.83328e-16 0)
(1.1 1.92252e-16 0)
(1.1 4.19368e-16 0)
(1.1 -2.74993e-16 0)
(1.1 -9.93119e-16 0)
(1.1 -1.97722e-15 0)
(1.1 -1.69142e-15 0)
(1.1 -2.56784e-15 0)
(1.1 8.18484e-16 0)
(1.1 8.37986e-16 0)
(1.1 2.55375e-16 0)
(1.1 -2.21009e-17 0)
(1.1 1.1833e-16 0)
(1.1 8.74246e-16 0)
(1.1 7.64572e-16 0)
(1.1 1.00011e-15 0)
(1.1 4.40636e-16 0)
(1.1 1.07151e-15 0)
(1.1 1.30067e-15 0)
(1.1 9.59394e-16 0)
(1.1 3.91786e-16 0)
(1.1 4.15815e-16 0)
(1.1 3.19813e-16 0)
(1.1 -1.98838e-16 0)
(1.1 -1.98218e-15 0)
(1.1 -1.7724e-15 0)
(1.1 -1.407e-15 0)
(1.1 -1.86052e-15 0)
(1.1 -2.0498e-15 0)
(1.1 4.57291e-16 0)
(1.1 1.87594e-16 0)
(1.1 -1.81879e-16 0)
(1.1 4.72932e-18 0)
(1.1 3.44496e-16 0)
(1.1 2.62601e-16 0)
(1.1 3.15801e-16 0)
(1.1 7.89304e-16 0)
(1.1 2.95731e-16 0)
(1.1 7.90625e-16 0)
(1.1 5.55681e-16 0)
(1.1 4.71743e-16 0)
(1.1 -4.30664e-16 0)
(1.1 1.06317e-16 0)
(1.1 7.01914e-17 0)
(1.1 -5.7582e-16 0)
(1.1 -1.54241e-15 0)
(1.1 -1.33861e-15 0)
(1.1 -6.15335e-16 0)
(1.1 -1.48995e-15 0)
(1.1 -1.26799e-15 0)
(1.1 2.42133e-16 0)
(1.1 3.14714e-16 0)
(1.1 1.14734e-16 0)
(1.1 -7.47768e-17 0)
(1.1 1.2385e-16 0)
(1.1 -6.83538e-17 0)
(1.1 -1.26848e-16 0)
(1.1 1.05495e-15 0)
(1.1 7.61564e-16 0)
(1.1 9.27663e-16 0)
(1.1 1.28575e-16 0)
(1.1 -2.14879e-16 0)
(1.1 -9.18288e-16 0)
(1.1 -4.58607e-16 0)
(1.1 -4.77672e-16 0)
(1.1 -2.5641e-16 0)
(1.1 -5.77399e-16 0)
(1.1 -7.69071e-16 0)
(1.1 -9.68155e-16 0)
(1.1 -1.8369e-15 0)
(1.1 -1.0838e-15 0)
(1.1 1.78607e-16 0)
(1.1 5.64637e-16 0)
(1.1 2.80563e-17 0)
(1.1 -4.02937e-16 0)
(1.1 -3.05776e-16 0)
(1.1 2.75562e-16 0)
(1.1 2.44921e-16 0)
(1.1 4.73552e-16 0)
(1.1 1.02178e-15 0)
(1.1 6.99543e-16 0)
(1.1 -1.76602e-16 0)
(1.1 -3.77312e-16 0)
(1.1 -9.62015e-16 0)
(1.1 -1.10089e-15 0)
(1.1 -6.65636e-16 0)
(1.1 2.36202e-16 0)
(1.1 5.40812e-17 0)
(1.1 -2.23975e-16 0)
(1.1 -1.20411e-15 0)
(1.1 -2.19819e-15 0)
(1.1 -1.77828e-15 0)
(1.1 4.14964e-16 0)
(1.1 4.23429e-16 0)
(1.1 -1.31623e-16 0)
(1.1 -3.34883e-16 0)
(1.1 -3.31796e-16 0)
(1.1 1.8768e-16 0)
(1.1 6.30386e-16 0)
(1.1 -1.56993e-17 0)
(1.1 1.11957e-16 0)
(1.1 -1.37937e-16 0)
(1.1 -3.90562e-16 0)
(1.1 -1.07342e-15 0)
(1.1 -7.32911e-16 0)
(1.1 -1.0208e-15 0)
(1.1 -2.79851e-17 0)
(1.1 -5.48728e-17 0)
(1.1 -2.7448e-16 0)
(1.1 -4.34664e-16 0)
(1.1 -1.3166e-15 0)
(1.1 -1.04888e-15 0)
(1.1 -1.30007e-15 0)
(1.1 -5.04056e-17 0)
(1.1 3.73753e-16 0)
(1.1 2.36556e-17 0)
(1.1 -3.21398e-16 0)
(1.1 -2.334e-16 0)
(1.1 -1.03534e-16 0)
(1.1 3.62694e-17 0)
(1.1 -1.31115e-16 0)
(1.1 7.11097e-17 0)
(1.1 7.91112e-18 0)
(1.1 3.24875e-16 0)
(1.1 -7.41684e-16 0)
(1.1 -8.65627e-16 0)
(1.1 -1.24117e-15 0)
(1.1 -7.50154e-16 0)
(1.1 -9.19621e-16 0)
(1.1 -9.13456e-16 0)
(1.1 -6.64351e-16 0)
(1.1 -9.50184e-16 0)
(1.1 -5.97515e-16 0)
(1.1 -1.06754e-15 0)
(1.1 -1.54031e-16 0)
(1.1 1.03333e-16 0)
(1.1 -1.87732e-16 0)
(1.1 -4.76952e-16 0)
(1.1 -1.82687e-16 0)
(1.1 -1.17745e-16 0)
(1.1 -4.91823e-17 0)
(1.1 8.44267e-17 0)
(1.1 2.43326e-16 0)
(1.1 -5.14292e-16 0)
(1.1 4.33605e-17 0)
(1.1 -5.7642e-16 0)
(1.1 -1.21757e-15 0)
(1.1 -1.36313e-15 0)
(1.1 -6.85011e-16 0)
(1.1 -9.78178e-16 0)
(1.1 -7.7645e-16 0)
(1.1 -5.35983e-16 0)
(1.1 -4.38564e-16 0)
(1.1 -5.30301e-16 0)
(1.1 -1.10408e-15 0)
(1.1 -6.50024e-17 0)
(1.1 -4.41762e-17 0)
(1.1 -5.06735e-16 0)
(1.1 -3.18017e-16 0)
(1.1 1.48542e-16 0)
(1.1 3.25411e-16 0)
(1.1 1.5099e-16 0)
(1.1 2.269e-16 0)
(1.1 -4.39854e-16 0)
(1.1 -7.8763e-16 0)
(1.1 -1.25859e-15 0)
(1.1 -9.21339e-16 0)
(1.1 -1.16676e-15 0)
(1.1 -1.57516e-15 0)
(1.1 -1.72284e-15 0)
(1.1 -1.34661e-15 0)
(1.1 -6.28678e-16 0)
(1.1 -4.22779e-16 0)
(1.1 -2.66197e-16 0)
(1.1 4.0545e-17 0)
(1.1 -3.45409e-16 0)
(1.1 -2.1656e-16 0)
(1.1 -2.96991e-16 0)
(1.1 -3.25224e-16 0)
(1.1 2.63226e-16 0)
(1.1 3.66696e-16 0)
(1.1 4.42158e-16 0)
(1.1 3.40982e-16 0)
(1.1 6.64709e-16 0)
(1.1 7.76866e-17 0)
(1.1 -4.11037e-16 0)
(1.1 -1.00803e-15 0)
(1.1 -7.78481e-16 0)
(1.1 -9.10972e-16 0)
(1.1 -1.88008e-15 0)
(1.1 -2.21411e-15 0)
(1.1 -1.90986e-15 0)
(1.1 -7.56702e-16 0)
(1.1 -4.34277e-16 0)
(1.1 -5.23713e-17 0)
(1.1 2.40832e-16 0)
(1.1 1.84739e-17 0)
(1.1 -3.14603e-16 0)
(1.1 -7.29159e-16 0)
(1.1 -6.69482e-17 0)
(1.1 6.78452e-16 0)
(1.1 7.46951e-16 0)
(1.1 4.10184e-16 0)
(1.1 5.16909e-16 0)
(1.1 4.20676e-16 0)
(1.1 -3.64957e-16 0)
(1.1 -5.87746e-16 0)
(1.1 -6.35656e-16 0)
(1.1 -1.19594e-15 0)
(1.1 -6.24591e-16 0)
(1.1 -1.39151e-15 0)
(1.1 -1.24234e-15 0)
(1.1 -8.86409e-16 0)
(1.1 2.0017e-16 0)
(1.1 -8.93414e-17 0)
(1.1 1.41655e-16 0)
(1.1 1.07491e-16 0)
(1.1 2.90675e-16 0)
(1.1 -2.43824e-16 0)
(1.1 -2.04355e-16 0)
(1.1 5.46043e-16 0)
(1.1 1.30031e-15 0)
(1.1 8.72315e-16 0)
(1.1 5.22504e-16 0)
(1.1 4.32576e-16 0)
(1.1 -6.47745e-16 0)
(1.1 -1.51391e-15 0)
(1.1 -1.19234e-15 0)
(1.1 -5.35779e-16 0)
(1.1 -9.91077e-16 0)
(1.1 -4.49529e-16 0)
(1.1 -7.65887e-16 0)
(1.1 -7.02937e-16 0)
(1.1 -4.38169e-16 0)
(1.1 3.53549e-16 0)
(1.1 4.42741e-16 0)
(1.1 4.02404e-16 0)
(1.1 -1.27751e-16 0)
(1.1 3.606e-16 0)
(1.1 2.57608e-16 0)
(1.1 5.28092e-16 0)
(1.1 1.428e-15 0)
(1.1 1.48855e-15 0)
(1.1 9.4157e-16 0)
(1.1 6.4124e-16 0)
(1.1 2.30963e-17 0)
(1.1 -3.48617e-16 0)
(1.1 -1.85384e-15 0)
(1.1 -1.4676e-15 0)
(1.1 -9.42582e-16 0)
(1.1 -6.0879e-16 0)
(1.1 -2.50534e-16 0)
(1.1 -6.32843e-16 0)
(1.1 -1.0213e-15 0)
(1.1 -1.47783e-15 0)
(1.1 -7.13418e-16 0)
(1.1 -9.50601e-17 0)
(1.1 -7.74758e-16 0)
(1.1 -6.14753e-16 0)
(1.1 3.5194e-16 0)
(1.1 2.49222e-16 0)
(1.1 1.09528e-16 0)
(1.1 9.88039e-16 0)
(1.1 9.87581e-16 0)
(1.1 5.53481e-16 0)
(1.1 2.33017e-16 0)
(1.1 8.22108e-17 0)
(1.1 -4.63197e-16 0)
(1.1 -3.90992e-16 0)
(1.1 -8.69452e-16 0)
(1.1 -2.35554e-16 0)
(1.1 -7.8764e-16 0)
(1.1 -7.16464e-16 0)
(1.1 -1.41066e-15 0)
(1.1 -1.6373e-15 0)
(1.1 -9.69203e-16 0)
(1.1 -1.1454e-15 0)
(1.1 -1.51664e-15 0)
(1.1 -1.32531e-15 0)
(1.1 -3.09383e-18 0)
(1.1 5.02343e-16 0)
(1.1 2.81036e-16 0)
(1.1 3.49051e-16 0)
(1.1 8.64503e-16 0)
(1.1 7.1734e-16 0)
(1.1 3.14409e-16 0)
(1.1 1.8365e-16 0)
(1.1 -1.08395e-16 0)
(1.1 -6.95105e-16 0)
(1.1 -3.50887e-16 0)
(1.1 -6.53305e-16 0)
(1.1 -5.55128e-16 0)
(1.1 -6.01718e-16 0)
(1.1 -5.79607e-16 0)
(1.1 -9.86387e-16 0)
(1.1 -1.63082e-15 0)
(1.1 -1.14876e-15 0)
(1.1 -5.82087e-16 0)
(1.1 -4.46803e-16 0)
(1.1 -2.6584e-16 0)
(1.1 8.30182e-16 0)
(1.1 -3.40746e-16 0)
(1.1 5.57701e-16 0)
(1.1 5.9532e-16 0)
(1.1 9.65278e-16 0)
(1.1 7.07144e-16 0)
(1.1 5.16781e-16 0)
(1.1 -7.96646e-17 0)
(1.1 -6.08208e-16 0)
(1.1 -9.73519e-16 0)
(1.1 -9.37359e-16 0)
(1.1 -2.23886e-16 0)
(1.1 -7.58272e-16 0)
(1.1 -3.05449e-16 0)
(1.1 1.734e-16 0)
(1.1 -1.16901e-16 0)
(1.1 -5.28246e-16 0)
(1.1 -6.17111e-16 0)
(1.1 -2.6795e-16 0)
(1.1 2.33807e-16 0)
(1.1 2.77317e-16 0)
(1.1 2.23732e-16 0)
(1.1 -1.64342e-16 0)
(1.1 6.35988e-16 0)
(1.1 8.84006e-18 0)
(1.1 5.13681e-16 0)
(1.1 6.72771e-16 0)
(1.1 7.79297e-16 0)
(1.1 4.49942e-17 0)
(1.1 -5.26692e-16 0)
(1.1 -5.81773e-16 0)
(1.1 -5.01209e-16 0)
(1.1 -5.91239e-17 0)
(1.1 -2.38192e-16 0)
(1.1 -1.76931e-16 0)
(1.1 3.46557e-17 0)
(1.1 7.11284e-17 0)
(1.1 5.6767e-17 0)
(1.1 -9.47247e-18 0)
(1.1 -6.14403e-16 0)
(1.1 -2.59884e-16 0)
(1.1 -1.6082e-16 0)
(1.1 -6.69707e-16 0)
(1.1 4.79805e-16 0)
(1.1 -4.41774e-17 0)
(1.1 7.89535e-17 0)
(1.1 1.68783e-16 0)
(1.1 6.31591e-16 0)
(1.1 8.57721e-16 0)
(1.1 5.38346e-16 0)
(1.1 -2.50858e-16 0)
(1.1 -1.14336e-16 0)
(1.1 2.68657e-16 0)
(1.1 1.20269e-16 0)
(1.1 2.6131e-16 0)
(1.1 6.07519e-16 0)
(1.1 2.57811e-16 0)
(1.1 6.50744e-16 0)
(1.1 5.13766e-16 0)
(1.1 6.24148e-16 0)
(1.1 -9.09631e-17 0)
(1.1 -2.81599e-16 0)
(1.1 -9.10077e-17 0)
(1.1 -4.70687e-16 0)
(1.1 -2.68334e-16 0)
(1.1 1.04877e-16 0)
(1.1 5.05125e-16 0)
(1.1 -2.22311e-16 0)
(1.1 1.57281e-16 0)
(1.1 7.25298e-16 0)
(1.1 6.56939e-16 0)
(1.1 -1.34146e-16 0)
(1.1 3.41998e-17 0)
(1.1 1.0463e-16 0)
(1.1 2.68163e-16 0)
(1.1 6.26085e-16 0)
(1.1 1.03347e-15 0)
(1.1 7.69604e-16 0)
(1.1 1.25177e-15 0)
(1.1 6.11179e-16 0)
(1.1 6.14275e-16 0)
(1.1 6.33875e-16 0)
(1.1 8.17604e-17 0)
(1.1 -3.87021e-16 0)
(1.1 -6.41711e-16 0)
(1.1 -1.06716e-15 0)
(1.1 4.31072e-16 0)
(1.1 1.66308e-16 0)
(1.1 -6.28188e-17 0)
(1.1 4.22032e-16 0)
(1.1 4.80876e-16 0)
(1.1 7.26498e-16 0)
(1.1 7.80185e-16 0)
(1.1 2.31866e-16 0)
(1.1 5.20756e-17 0)
(1.1 -8.91173e-17 0)
(1.1 3.0044e-16 0)
(1.1 7.68987e-16 0)
(1.1 5.72667e-16 0)
(1.1 8.47514e-16 0)
(1.1 8.91013e-16 0)
(1.1 -2.40532e-18 0)
(1.1 4.90292e-16 0)
(1.1 3.95023e-16 0)
(1.1 -1.6354e-16 0)
(1.1 -6.7987e-16 0)
(1.1 -5.66351e-16 0)
(1.1 6.60935e-17 0)
(1.1 -1.39113e-16 0)
(1.1 -5.69893e-16 0)
(1.1 2.14027e-16 0)
(1.1 2.45174e-16 0)
(1.1 4.15478e-16 0)
(1.1 1.2329e-15 0)
(1.1 6.90895e-16 0)
(1.1 4.27786e-16 0)
(1.1 2.77201e-16 0)
(1.1 -1.15836e-17 0)
(1.1 2.5691e-16 0)
(1.1 4.28937e-16 0)
(1.1 1.09807e-15 0)
(1.1 1.83061e-15 0)
(1.1 1.05011e-15 0)
(1.1 9.05054e-16 0)
(1.1 7.84369e-16 0)
(1.1 -3.34276e-16 0)
(1.1 -1.72788e-16 0)
(1.1 -4.71225e-16 0)
(1.1 -8.56243e-17 0)
(1.1 -2.84683e-16 0)
(1.1 -1.01325e-15 0)
(1.1 -8.31496e-16 0)
(1.1 -1.09934e-16 0)
(1.1 1.74188e-16 0)
(1.1 1.01972e-15 0)
(1.1 8.90401e-16 0)
(1.1 4.69716e-16 0)
(1.1 1.2613e-16 0)
(1.1 -2.85061e-16 0)
(1.1 -2.16865e-16 0)
(1.1 -1.0044e-16 0)
(1.1 5.06204e-16 0)
(1.1 1.22388e-15 0)
(1.1 1.26151e-15 0)
(1.1 6.03793e-16 0)
(1.1 3.99015e-16 0)
(1.1 8.96624e-17 0)
(1.1 1.82735e-16 0)
(1.1 -4.65017e-16 0)
(1.1 7.26983e-17 0)
(1.1 -6.95899e-17 0)
(1.1 -3.89708e-16 0)
(1.1 -7.52706e-16 0)
(1.1 -7.66821e-16 0)
(1.1 -6.04848e-16 0)
(1.1 1.25964e-16 0)
(1.1 2.35589e-16 0)
(1.1 -8.96567e-17 0)
(1.1 -5.89238e-16 0)
(1.1 2.40735e-16 0)
(1.1 1.24091e-17 0)
(1.1 4.10504e-17 0)
(1.1 4.19864e-16 0)
(1.1 8.91171e-16 0)
(1.1 9.51738e-16 0)
(1.1 1.13981e-16 0)
(1.1 9.2398e-17 0)
(1.1 2.46027e-16 0)
(1.1 5.51147e-16 0)
(1.1 2.98596e-17 0)
(1.1 1.3546e-16 0)
(1.1 -4.16069e-17 0)
(1.1 1.524e-16 0)
(1.1 -4.37951e-16 0)
(1.1 -1.00386e-15 0)
(1.1 -8.6464e-16 0)
(1.1 -6.3635e-16 0)
(1.1 -4.19947e-16 0)
(1.1 -8.3166e-16 0)
(1.1 -5.3085e-16 0)
(1.1 -2.68806e-16 0)
(1.1 -2.39079e-16 0)
(1.1 5.07195e-16 0)
(1.1 1.44534e-15 0)
(1.1 1.02604e-15 0)
(1.1 6.29742e-16 0)
(1.1 -1.8222e-16 0)
(1.1 1.8222e-16 0)
(1.1 8.21452e-16 0)
(1.1 5.52437e-16 0)
(1.1 5.35123e-16 0)
(1.1 -2.19813e-16 0)
(1.1 2.146e-16 0)
(1.1 5.13103e-17 0)
(1.1 -5.51102e-16 0)
(1.1 -6.25926e-16 0)
(1.1 -9.36397e-16 0)
(1.1 -8.30216e-16 0)
(1.1 -6.43399e-16 0)
(1.1 -1.06619e-15 0)
(1.1 -3.22718e-16 0)
(1.1 -7.89559e-16 0)
(1.1 -4.10129e-16 0)
(1.1 9.86406e-17 0)
(1.1 8.88528e-16 0)
(1.1 4.56973e-16 0)
(1.1 4.07511e-16 0)
(1.1 8.20408e-17 0)
(1.1 6.36742e-16 0)
(1.1 7.56803e-16 0)
(1.1 3.43729e-16 0)
(1.1 7.29189e-16 0)
(1.1 3.95355e-16 0)
(1.1 4.89144e-16 0)
(1.1 -2.99093e-16 0)
(1.1 -3.15603e-16 0)
(1.1 -4.33574e-16 0)