/*--------------------------------*- C++ -*----------------------------------*\
  =========                 |
  \\      /  F ield         | OpenFOAM: The Open Source CFD Toolbox
   \\    /   O peration     | Website:  https://openfoam.org
    \\  /    A nd           | Version:  8
     \\/     M anipulation  |
\*---------------------------------------------------------------------------*/
FoamFile
{
    version     2.0;
    format      ascii;
    class       volScalarField;
    location    "1.9";
    object      p;
}
// * * * * * * * * * * * * * * * * * * * * * * * * * * * * * * * * * * * * * //

dimensions      [1 -1 -2 0 0 0 0];

internalField   nonuniform List<scalar> 
2600
(
0.845277
0.787608
0.762718
0.814221
0.95146
1.12829
1.28927
1.38554
1.37996
1.34336
0.836879
0.772503
0.758248
0.82456
0.968402
1.14861
1.29975
1.39023
1.39267
1.35299
0.839907
0.761915
0.753545
0.839028
0.985951
1.16229
1.32588
1.41048
1.39924
1.33508
0.844137
0.75488
0.749134
0.844178
1.00427
1.16039
1.33625
1.42584
1.37821
1.32374
0.844946
0.751654
0.74547
0.846034
1.01303
1.172
1.31597
1.41283
1.39174
1.34939
0.848925
0.756437
0.746802
0.849689
1.0181
1.18836
1.33449
1.40621
1.41325
1.35953
0.851581
0.759044
0.755615
0.860872
1.03561
1.19799
1.35245
1.39756
1.40431
1.36099
0.852218
0.760567
0.763475
0.867043
1.03817
1.19846
1.33985
1.41157
1.39705
1.3456
0.850872
0.757706
0.756134
0.862857
1.02963
1.18772
1.33843
1.44894
1.37783
1.32579
0.851081
0.753089
0.752814
0.858873
1.02492
1.18701
1.34428
1.43611
1.38662
1.34473
0.851483
0.754041
0.754451
0.859165
1.02511
1.18898
1.34149
1.39769
1.41562
1.35932
0.851694
0.758743
0.75772
0.863059
1.03013
1.19064
1.3463
1.38439
1.42465
1.37606
0.852914
0.760643
0.763296
0.866994
1.03918
1.19905
1.33841
1.40735
1.40131
1.35677
0.85162
0.758129
0.754224
0.859577
1.03564
1.19841
1.33342
1.43366
1.39715
1.33917
0.848899
0.755934
0.745727
0.84823
1.01782
1.18608
1.34655
1.42859
1.39418
1.33761
0.844773
0.751879
0.745471
0.844553
1.01191
1.1775
1.3292
1.38894
1.37913
1.33712
0.843505
0.755477
0.749179
0.842974
1.00375
1.16638
1.31182
1.40073
1.40571
1.36472
0.839809
0.762186
0.753072
0.837928
0.98665
1.15904
1.32513
1.42639
1.40519
1.35264
0.837578
0.771413
0.757809
0.824017
0.968388
1.14782
1.31291
1.41263
1.38593
1.32476
0.844787
0.786958
0.762867
0.81382
0.950705
1.13088
1.29523
1.38612
1.36588
1.32059
0.992383
0.798733
0.770543
0.8056
0.928602
1.10871
1.27924
1.36986
1.36465
1.33216
1.14448
0.821829
0.793329
0.802464
0.903459
1.08116
1.2677
1.37115
1.37416
1.33305
1.29418
0.869144
0.815656
0.803656
0.880683
1.05117
1.25474
1.37115
1.37348
1.32609
1.41746
0.93839
0.842533
0.809225
0.865325
1.01956
1.23814
1.35927
1.36653
1.31688
1.527
1.01575
0.874697
0.820829
0.855523
0.987617
1.21383
1.33814
1.35232
1.31016
1.61963
1.09381
0.908553
0.834752
0.855528
0.955877
1.18172
1.32144
1.34689
1.30511
1.69927
1.17275
0.947094
0.846923
0.853377
0.926109
1.14621
1.31317
1.34494
1.30191
1.76657
1.24626
0.995489
0.865557
0.852367
0.90181
1.10867
1.30123
1.34209
1.29654
1.82414
1.31456
1.04623
0.896135
0.853714
0.885052
1.06758
1.28342
1.33674
1.28966
1.87418
1.37831
1.09319
0.932048
0.858984
0.874778
1.02445
1.25683
1.32881
1.28276
1.91753
1.43951
1.14198
0.964293
0.870187
0.870776
0.982909
1.22677
1.31979
1.27564
1.95629
1.49571
1.19273
0.99754
0.883126
0.86746
0.946362
1.1971
1.31288
1.26796
1.99143
1.54775
1.24083
1.03697
0.898393
0.865556
0.916175
1.16423
1.30524
1.26037
2.02324
1.5962
1.28439
1.07633
0.921963
0.867139
0.892582
1.1245
1.29436
1.25363
2.05186
1.64081
1.32795
1.11169
0.950446
0.87184
0.876192
1.07945
1.27846
1.2464
2.07794
1.68147
1.37041
1.14689
0.977361
0.87845
0.863928
1.03521
1.25889
1.23831
2.10158
1.71886
1.41097
1.18294
1.00657
0.885849
0.856619
0.994828
1.23761
1.23044
2.1231
1.75426
1.44872
1.21816
1.03694
0.895532
0.852708
0.957776
1.21364
1.22371
2.14273
1.78742
1.48529
1.25052
1.06741
0.910753
0.851319
0.923738
1.18571
1.21646
2.16061
1.81892
1.52037
1.28229
1.09483
0.929978
0.851706
0.893211
1.15106
1.20695
3.8596
3.68259
3.56392
3.44601
3.32928
3.21411
3.08943
2.95064
2.74983
2.53535
3.62056
3.452
3.37512
3.28758
3.19942
3.10222
2.98893
2.84802
2.64398
2.36663
3.5427
3.41939
3.35313
3.26895
3.18636
3.09348
2.9822
2.83964
2.63533
2.36211
3.44103
3.34754
3.29224
3.21589
3.1413
3.05062
2.94091
2.79806
2.59913
2.32542
3.35324
3.28005
3.23588
3.16647
3.09679
3.00816
2.90179
2.76103
2.57049
2.29984
3.27
3.2109
3.17354
3.11204
3.04994
2.96587
2.86467
2.72714
2.54581
2.28471
3.19647
3.14978
3.11842
3.06344
3.00664
2.92609
2.83011
2.6966
2.52504
2.2804
3.13111
3.09442
3.06706
3.01725
2.96481
2.88824
2.79776
2.66938
2.5081
2.28189
3.07982
3.04722
3.0214
2.97614
2.92753
2.85462
2.76907
2.64602
2.49486
2.28713
3.03207
3.00345
2.97959
2.93854
2.89301
2.8239
2.7432
2.62625
2.48478
2.29425
2.99138
2.96768
2.94624
2.90762
2.86357
2.79734
2.72057
2.60975
2.47783
2.30297
2.9599
2.9388
2.91779
2.88005
2.83703
2.77375
2.70088
2.59629
2.47324
2.31276
2.93831
2.91625
2.89329
2.85513
2.81246
2.75197
2.68306
2.58499
2.46985
2.32227
2.92588
2.89713
2.86922
2.83025
2.78851
2.73156
2.66686
2.57546
2.46803
2.3319
2.9101
2.87578
2.8463
2.80851
2.76786
2.71349
2.65159
2.56615
2.46596
2.34061
2.88292
2.84898
2.82222
2.78681
2.74776
2.69646
2.63828
2.5589
2.46517
2.34869
2.85155
2.82145
2.79776
2.76534
2.72931
2.68125
2.62605
2.55173
2.46426
2.35679
2.82355
2.79938
2.77858
2.74836
2.71445
2.66813
2.61567
2.54608
2.46377
2.36295
2.80491
2.78384
2.7646
2.73556
2.70219
2.65775
2.60728
2.54094
2.46343
2.36934
2.79008
2.76899
2.74952
2.72129
2.68935
2.64767
2.59937
2.53724
2.46498
2.37661
1.00579
1.01861
1.03407
1.05286
1.07566
1.10764
1.19021
1.44512
2.64016
3.17014
1.00579
1.01862
1.03407
1.05287
1.07566
1.10765
1.19021
1.44477
2.6376
3.15759
1.00579
1.01862
1.03407
1.05287
1.07564
1.10767
1.1902
1.4441
2.63388
3.13962
1.00579
1.01862
1.03406
1.05288
1.07562
1.10769
1.19017
1.44313
2.62863
3.11797
1.00579
1.01862
1.03406
1.05289
1.0756
1.10772
1.19011
1.44175
2.62191
3.09605
1.00579
1.01862
1.03405
1.0529
1.07557
1.10776
1.19002
1.43998
2.61373
3.07404
1.00579
1.01862
1.03405
1.05292
1.07554
1.1078
1.18991
1.43781
2.60408
3.05285
1.00579
1.01862
1.03404
1.05293
1.07551
1.10785
1.18977
1.43524
2.59294
3.03156
1.00579
1.01863
1.03403
1.05294
1.07548
1.1079
1.18962
1.43228
2.58052
3.01041
1.00579
1.01863
1.03403
1.05296
1.07545
1.10796
1.18949
1.42891
2.56698
2.98976
1.00579
1.01863
1.03402
1.05297
1.07542
1.10802
1.18938
1.42514
2.5523
2.96938
1.00579
1.01863
1.03402
1.05298
1.07539
1.10809
1.18931
1.42095
2.53661
2.94886
1.00579
1.01863
1.03401
1.053
1.07536
1.10815
1.1893
1.41636
2.52019
2.92864
1.00579
1.01863
1.03401
1.05301
1.07534
1.10822
1.18936
1.4114
2.50352
2.90855
1.00579
1.01864
1.03401
1.05302
1.07532
1.10829
1.18949
1.40612
2.48708
2.89029
1.00579
1.01864
1.034
1.05303
1.0753
1.10836
1.1897
1.40054
2.47107
2.87424
1.00579
1.01864
1.034
1.05304
1.07528
1.10842
1.18998
1.39472
2.45539
2.85899
1.00579
1.01864
1.034
1.05305
1.07526
1.10848
1.19033
1.38846
2.43968
2.84418
1.00579
1.01864
1.03399
1.05305
1.07525
1.10855
1.19073
1.3821
2.42384
2.82936
1.00579
1.01864
1.03399
1.05306
1.07523
1.10861
1.19117
1.37572
2.4081
2.81645
1.00579
1.01864
1.03399
1.05306
1.07523
1.10861
1.19117
1.37572
2.4081
2.81645
1.00579
1.01864
1.03399
1.05305
1.07525
1.10855
1.19073
1.3821
2.42383
2.82936
1.00579
1.01864
1.034
1.05305
1.07526
1.10848
1.19033
1.38846
2.43968
2.84418
1.00579
1.01864
1.034
1.05304
1.07528
1.10842
1.18998
1.39472
2.45539
2.85899
1.00579
1.01864
1.034
1.05303
1.0753
1.10836
1.1897
1.40054
2.47107
2.87424
1.00579
1.01864
1.03401
1.05302
1.07532
1.10829
1.18949
1.40612
2.48708
2.89029
1.00579
1.01863
1.03401
1.05301
1.07534
1.10822
1.18936
1.4114
2.50352
2.90855
1.00579
1.01863
1.03401
1.053
1.07536
1.10815
1.1893
1.41636
2.52019
2.92864
1.00579
1.01863
1.03402
1.05298
1.07539
1.10809
1.18931
1.42095
2.53661
2.94886
1.00579
1.01863
1.03402
1.05297
1.07542
1.10802
1.18938
1.42513
2.5523
2.96938
1.00579
1.01863
1.03403
1.05296
1.07545
1.10796
1.18949
1.42891
2.56698
2.98976
1.00579
1.01863
1.03403
1.05294
1.07548
1.1079
1.18962
1.43228
2.58052
3.01041
1.00579
1.01862
1.03404
1.05293
1.07551
1.10785
1.18977
1.43524
2.59294
3.03156
1.00579
1.01862
1.03405
1.05292
1.07554
1.1078
1.18991
1.43781
2.60408
3.05285
1.00579
1.01862
1.03405
1.0529
1.07557
1.10776
1.19002
1.43998
2.61373
3.07404
1.00579
1.01862
1.03406
1.05289
1.0756
1.10772
1.19011
1.44175
2.62191
3.09605
1.00579
1.01862
1.03406
1.05288
1.07562
1.10769
1.19017
1.44313
2.62863
3.11797
1.00579
1.01862
1.03407
1.05287
1.07564
1.10767
1.1902
1.4441
2.63388
3.13962
1.00579
1.01862
1.03407
1.05287
1.07566
1.10765
1.19021
1.44477
2.6376
3.15759
1.00579
1.01861
1.03407
1.05286
1.07566
1.10764
1.19021
1.44512
2.64016
3.17014
2.79009
2.76899
2.74952
2.72129
2.68936
2.64768
2.59938
2.53724
2.46499
2.37662
2.80492
2.78385
2.76461
2.73557
2.7022
2.65776
2.60729
2.54094
2.46343
2.36936
2.82355
2.79938
2.77858
2.74837
2.71446
2.66814
2.61568
2.54608
2.46377
2.36296
2.85156
2.82145
2.79777
2.76534
2.72932
2.68126
2.62606
2.55174
2.46426
2.3568
2.88292
2.84898
2.82223
2.78682
2.74777
2.69646
2.63828
2.55891
2.46516
2.34868
2.9101
2.87578
2.84631
2.80852
2.76787
2.7135
2.65159
2.56616
2.46595
2.34061
2.92588
2.89713
2.86923
2.83026
2.78852
2.73156
2.66686
2.57546
2.46802
2.33191
2.93831
2.91626
2.89329
2.85513
2.81246
2.75197
2.68306
2.58499
2.46986
2.32228
2.9599
2.9388
2.9178
2.88006
2.83704
2.77375
2.70088
2.59628
2.47326
2.31276
2.99139
2.96769
2.94625
2.90763
2.86357
2.79734
2.72057
2.60975
2.47785
2.30296
3.03208
3.00345
2.9796
2.93855
2.89301
2.8239
2.7432
2.62626
2.48478
2.29424
3.07983
3.04722
3.02141
2.97615
2.92754
2.85462
2.76907
2.64602
2.49485
2.28714
3.13112
3.09443
3.06707
3.01726
2.96481
2.88825
2.79777
2.66939
2.50808
2.28192
3.19647
3.14979
3.11842
3.06345
3.00664
2.9261
2.83011
2.6966
2.52502
2.28044
3.27
3.2109
3.17354
3.11205
3.04994
2.96587
2.86467
2.72714
2.54581
2.28472
3.35324
3.28006
3.23589
3.16648
3.0968
3.00816
2.90179
2.76103
2.5705
2.29981
3.44103
3.34754
3.29224
3.21589
3.1413
3.05062
2.94091
2.79805
2.59914
2.32535
3.5427
3.41939
3.35313
3.26896
3.18636
3.09348
2.9822
2.83964
2.63533
2.36204
3.62056
3.452
3.37512
3.28759
3.19942
3.10222
2.98893
2.84802
2.64398
2.36655
3.8596
3.68259
3.56392
3.44601
3.32928
3.21411
3.08943
2.95064
2.74982
2.5353
2.16059
1.81895
1.52045
1.28215
1.0949
0.930157
0.851764
0.89351
1.15098
1.20724
2.14268
1.78737
1.48522
1.25064
1.06733
0.910915
0.851366
0.923488
1.18516
1.21637
2.12306
1.75413
1.44866
1.21823
1.03685
0.895634
0.852676
0.95749
1.21373
1.22366
2.10158
1.71876
1.41082
1.18293
1.00672
0.885811
0.856519
0.994902
1.23789
1.2302
2.07801
1.68145
1.37025
1.14699
0.977536
0.878225
0.863695
1.03579
1.25966
1.23819
2.05197
1.6409
1.32788
1.11182
0.950449
0.871596
0.875734
1.07927
1.27927
1.24715
2.02333
1.59633
1.28439
1.07648
0.921931
0.866932
0.89196
1.12259
1.29454
1.25424
1.99141
1.54782
1.24089
1.0371
0.89851
0.865418
0.915909
1.16244
1.30507
1.25973
1.95615
1.49563
1.19278
0.997798
0.883261
0.867306
0.946558
1.19667
1.31267
1.26678
1.91737
1.4393
1.1421
0.964603
0.870155
0.870582
0.982313
1.22833
1.32042
1.27566
1.87414
1.3781
1.09328
0.932366
0.858866
0.874479
1.02186
1.25774
1.32924
1.28475
1.82428
1.31438
1.0462
0.896438
0.853628
0.884624
1.06558
1.28273
1.33639
1.29118
1.76674
1.24609
0.995606
0.865969
0.852276
0.90119
1.11052
1.30102
1.34139
1.29263
1.69936
1.17287
0.947272
0.847214
0.853383
0.925145
1.14955
1.31417
1.34425
1.29831
1.61961
1.09421
0.908499
0.83484
0.855632
0.954688
1.18004
1.32575
1.34746
1.30589
1.52692
1.01597
0.874512
0.821022
0.855755
0.986885
1.2066
1.34064
1.35656
1.31592
1.41724
0.938449
0.842605
0.809733
0.865499
1.01924
1.23362
1.35715
1.366
1.32272
1.29381
0.869138
0.816175
0.804381
0.881041
1.05026
1.25778
1.37099
1.36915
1.32001
1.14407
0.821444
0.793913
0.80336
0.904147
1.07846
1.27396
1.37838
1.36482
1.31877
0.992396
0.798421
0.770813
0.806389
0.929464
1.10446
1.28333
1.38421
1.36585
1.3262
2.34214
2.18962
2.02155
1.83592
1.63622
1.42974
1.2318
1.06079
0.847472
0.66104
2.34209
2.18923
2.02026
1.83294
1.63292
1.42571
1.22787
1.05656
0.845157
0.663599
2.34336
2.18964
2.01924
1.83097
1.6279
1.41975
1.22211
1.05007
0.841536
0.663487
2.34549
2.19068
2.01759
1.82608
1.62115
1.4121
1.21472
1.04141
0.836735
0.665087
2.34762
2.1924
2.01504
1.81974
1.61257
1.40313
1.20618
1.0305
0.830599
0.668068
2.34891
2.19297
2.01
1.81058
1.60196
1.39269
1.19645
1.0176
0.823653
0.672977
2.34935
2.19048
2.00128
1.79878
1.58903
1.38051
1.1853
1.00256
0.815867
0.680249
2.34819
2.18402
1.98897
1.78382
1.57311
1.36582
1.17219
0.985399
0.808689
0.691469
2.34487
2.17429
1.97465
1.76554
1.55408
1.3487
1.15662
0.965744
0.801017
0.708862
2.33996
2.1627
1.95769
1.74405
1.53183
1.32861
1.13801
0.944193
0.791531
0.736778
2.33373
2.14942
1.93825
1.71928
1.5063
1.30603
1.1164
0.920899
0.780294
0.775185
2.32598
2.13391
1.91556
1.69151
1.47788
1.28031
1.09086
0.897633
0.774358
0.820351
2.31643
2.11531
1.88923
1.66049
1.44646
1.25228
1.06182
0.876061
0.771374
0.871378
2.30491
2.09286
1.85886
1.62578
1.41244
1.22072
1.02921
0.859134
0.773479
0.927013
2.29144
2.06619
1.82365
1.58704
1.37487
1.18582
0.992761
0.847874
0.787097
0.983069
2.27599
2.03554
1.78371
1.54423
1.33433
1.14751
0.955917
0.840568
0.815428
1.0359
2.25834
2.00052
1.73874
1.49723
1.29031
1.10451
0.920474
0.835123
0.859009
1.08589
2.23739
1.96052
1.68811
1.44536
1.24267
1.05992
0.892885
0.833868
0.921131
1.12801
2.21333
1.91486
1.63177
1.38921
1.19191
1.01107
0.87071
0.839361
0.999681
1.16175
2.18464
1.86265
1.57014
1.32927
1.13704
0.963041
0.856185
0.862457
1.08662
1.18872
2.18462
1.86262
1.57005
1.32942
1.1371
0.963054
0.856169
0.862087
1.08658
1.18898
2.21331
1.91486
1.63184
1.3892
1.19193
1.01117
0.870767
0.839164
0.998959
1.16163
2.23738
1.96055
1.68811
1.4454
1.24266
1.05988
0.892815
0.833821
0.920711
1.12813
2.25834
2.00053
1.73874
1.4972
1.29031
1.10455
0.920497
0.835127
0.85877
1.08582
2.27598
2.03554
1.78369
1.54422
1.33433
1.1475
0.955938
0.840592
0.815309
1.03578
2.29143
2.06618
1.82365
1.58704
1.37488
1.18583
0.992773
0.847884
0.787052
0.982909
2.3049
2.09285
1.85886
1.62578
1.41244
1.22073
1.02921
0.859142
0.77348
0.926915
2.31643
2.11531
1.88923
1.66049
1.44646
1.25229
1.06182
0.876064
0.771381
0.871347
2.32597
2.1339
1.91555
1.69151
1.47788
1.28032
1.09085
0.897605
0.774383
0.82037
2.33373
2.14942
1.93825
1.71927
1.5063
1.30603
1.11638
0.920866
0.780297
0.775223
2.33996
2.1627
1.95769
1.74404
1.53183
1.32861
1.13799
0.944169
0.791535
0.736809
2.34487
2.17429
1.97465
1.76554
1.55408
1.3487
1.15661
0.965719
0.801013
0.708868
2.3482
2.18402
1.98897
1.78382
1.57311
1.36583
1.17219
0.985387
0.808682
0.691454
2.34935
2.19048
2.00128
1.79878
1.58903
1.38051
1.1853
1.00256
0.815863
0.680224
2.34892
2.19298
2.01001
1.81059
1.60197
1.3927
1.19646
1.0176
0.823651
0.672951
2.34763
2.19241
2.01505
1.81975
1.61258
1.40314
1.20619
1.03051
0.830605
0.668049
2.3455
2.19069
2.0176
1.82609
1.62116
1.41212
1.21473
1.04143
0.83675
0.665079
2.34337
2.18965
2.01925
1.83098
1.62791
1.41976
1.22213
1.05008
0.841554
0.663486
2.34209
2.18924
2.02027
1.83295
1.63294
1.42573
1.22788
1.05657
0.845176
0.663606
2.34215
2.18963
2.02156
1.83594
1.63623
1.42976
1.23181
1.0608
0.847491
0.661044
2.77076
2.74976
2.73027
2.70388
2.67431
2.63561
2.59015
2.53307
2.46549
2.38461
2.75067
2.72953
2.71089
2.68606
2.65826
2.6222
2.58064
2.52902
2.46735
2.39501
2.73151
2.71136
2.69431
2.67112
2.64517
2.6118
2.57344
2.52647
2.4701
2.40432
2.71186
2.69416
2.67885
2.6577
2.63371
2.60323
2.56752
2.52455
2.4726
2.41241
2.69312
2.6781
2.66432
2.64518
2.62311
2.59526
2.5619
2.5225
2.47464
2.41877
2.67614
2.66315
2.65079
2.63339
2.61304
2.58741
2.55618
2.51971
2.4755
2.42341
2.66195
2.65005
2.63888
2.62276
2.60375
2.57977
2.55058
2.51649
2.47555
2.42719
2.65041
2.63859
2.62835
2.61337
2.59552
2.57295
2.54556
2.51351
2.47531
2.43037
2.64138
2.62881
2.61896
2.60491
2.58811
2.5669
2.54116
2.51093
2.47501
2.43272
2.63464
2.62058
2.61034
2.59673
2.58078
2.5609
2.53673
2.50821
2.47421
2.43406
2.62976
2.61373
2.60232
2.58831
2.57263
2.55384
2.53122
2.5046
2.47225
2.43409
2.62646
2.60844
2.59552
2.58033
2.56404
2.54561
2.52423
2.49952
2.46887
2.43259
2.62455
2.60519
2.59094
2.57428
2.55672
2.5377
2.51663
2.49303
2.46424
2.42992
2.62398
2.60373
2.58864
2.57098
2.55234
2.53215
2.51023
2.48658
2.45911
2.42665
2.6247
2.60388
2.58823
2.56999
2.55064
2.52954
2.5066
2.48224
2.45492
2.42319
2.62658
2.60595
2.59
2.57138
2.55151
2.52977
2.50604
2.48086
2.45296
2.42096
2.62853
2.6086
2.59286
2.57429
2.55419
2.53189
2.5074
2.48124
2.45252
2.41966
2.63046
2.61133
2.59602
2.57781
2.55782
2.53538
2.51051
2.48343
2.45369
2.4198
2.63163
2.61316
2.59827
2.58048
2.56079
2.53851
2.51369
2.48611
2.45558
2.42085
2.63209
2.61405
2.59954
2.5821
2.56274
2.54068
2.51611
2.48846
2.45755
2.42251
1.00579
1.01864
1.03399
1.05307
1.07522
1.10868
1.19176
1.36784
2.38836
2.80244
1.00579
1.01864
1.03398
1.05308
1.0752
1.10876
1.1925
1.35877
2.3643
2.78708
1.00579
1.01864
1.03398
1.05308
1.07519
1.10885
1.19325
1.35045
2.34004
2.77397
1.00579
1.01865
1.03398
1.05309
1.07517
1.10893
1.19401
1.34316
2.31599
2.76274
1.00579
1.01865
1.03397
1.0531
1.07516
1.10898
1.19479
1.33709
2.29206
2.75356
1.00579
1.01865
1.03397
1.05311
1.07515
1.10901
1.19561
1.33247
2.26812
2.74619
1.00578
1.01865
1.03397
1.05311
1.07514
1.109
1.19645
1.32944
2.24468
2.73966
1.00578
1.01865
1.03397
1.05312
1.07514
1.10895
1.19729
1.3274
2.22232
2.73414
1.00578
1.01865
1.03396
1.05312
1.07514
1.10886
1.19812
1.32613
2.20132
2.72959
1.00578
1.01865
1.03396
1.05313
1.07515
1.10875
1.19892
1.32541
2.18192
2.72574
1.00578
1.01865
1.03396
1.05313
1.07516
1.10861
1.19972
1.32495
2.16436
2.72208
1.00578
1.01865
1.03396
1.05313
1.07518
1.10845
1.20053
1.32457
2.14896
2.71851
1.00578
1.01865
1.03396
1.05312
1.07521
1.10827
1.20131
1.32412
2.13601
2.71542
1.00578
1.01865
1.03396
1.05311
1.07524
1.1081
1.20205
1.3235
2.12554
2.71321
1.00578
1.01865
1.03396
1.0531
1.07527
1.10795
1.20269
1.32262
2.1175
2.7118
1.00578
1.01865
1.03396
1.05309
1.07529
1.1078
1.20328
1.32136
2.11155
2.71125
1.00578
1.01865
1.03396
1.05308
1.07531
1.10772
1.20376
1.31991
2.10731
2.71096
1.00578
1.01865
1.03396
1.05308
1.07533
1.10766
1.20421
1.31829
2.10451
2.71104
1.00578
1.01865
1.03396
1.05308
1.07533
1.10764
1.20447
1.31729
2.10217
2.71096
1.00578
1.01866
1.03396
1.05308
1.07533
1.10762
1.20489
1.31634
2.10071
2.71088
1.00578
1.01866
1.03396
1.05308
1.07533
1.10762
1.20489
1.31634
2.1007
2.71088
1.00578
1.01865
1.03396
1.05308
1.07533
1.10764
1.20447
1.31729
2.10217
2.71096
1.00578
1.01865
1.03396
1.05308
1.07533
1.10766
1.20421
1.31829
2.10451
2.71104
1.00578
1.01865
1.03396
1.05308
1.07531
1.10772
1.20376
1.31991
2.1073
2.71096
1.00578
1.01865
1.03396
1.05309
1.07529
1.1078
1.20328
1.32136
2.11155
2.71125
1.00578
1.01865
1.03396
1.0531
1.07527
1.10795
1.20269
1.32262
2.1175
2.7118
1.00578
1.01865
1.03396
1.05311
1.07524
1.1081
1.20205
1.3235
2.12554
2.71321
1.00578
1.01865
1.03396
1.05312
1.07521
1.10827
1.20131
1.32412
2.13601
2.71542
1.00578
1.01865
1.03396
1.05313
1.07518
1.10845
1.20053
1.32457
2.14896
2.71851
1.00578
1.01865
1.03396
1.05313
1.07516
1.10861
1.19972
1.32495
2.16436
2.72208
1.00578
1.01865
1.03396
1.05313
1.07515
1.10875
1.19892
1.32541
2.18192
2.72574
1.00578
1.01865
1.03396
1.05312
1.07514
1.10886
1.19812
1.32613
2.20132
2.72959
1.00578
1.01865
1.03397
1.05312
1.07514
1.10895
1.19729
1.3274
2.22232
2.73413
1.00578
1.01865
1.03397
1.05311
1.07514
1.109
1.19645
1.32944
2.24468
2.73965
1.00579
1.01865
1.03397
1.05311
1.07515
1.10901
1.19561
1.33247
2.26812
2.74619
1.00579
1.01865
1.03397
1.0531
1.07516
1.10898
1.19479
1.33709
2.29206
2.75355
1.00579
1.01865
1.03398
1.05309
1.07517
1.10893
1.19401
1.34316
2.31599
2.76274
1.00579
1.01864
1.03398
1.05308
1.07519
1.10885
1.19325
1.35045
2.34004
2.77397
1.00579
1.01864
1.03398
1.05308
1.0752
1.10876
1.1925
1.35877
2.3643
2.78708
1.00579
1.01864
1.03399
1.05307
1.07522
1.10868
1.19176
1.36784
2.38836
2.80243
2.63209
2.61405
2.59954
2.5821
2.56274
2.54068
2.51611
2.48846
2.45755
2.4225
2.63163
2.61316
2.59826
2.58048
2.56079
2.53851
2.51369
2.48611
2.45558
2.42085
2.63046
2.61133
2.59602
2.57781
2.55782
2.53538
2.51051
2.48343
2.45369
2.41979
2.62853
2.60861
2.59286
2.57429
2.55419
2.53189
2.5074
2.48124
2.45251
2.41965
2.62658
2.60595
2.59
2.57138
2.55151
2.52976
2.50604
2.48085
2.45295
2.42095
2.6247
2.60388
2.58823
2.56999
2.55064
2.52954
2.5066
2.48223
2.45491
2.42318
2.62399
2.60373
2.58864
2.57098
2.55233
2.53214
2.51022
2.48657
2.45911
2.42664
2.62455
2.60519
2.59094
2.57428
2.55672
2.53769
2.51662
2.49303
2.46424
2.42992
2.62646
2.60844
2.59552
2.58033
2.56404
2.5456
2.52423
2.49951
2.46886
2.43259
2.62976
2.61372
2.60232
2.58831
2.57263
2.55384
2.53122
2.50459
2.47225
2.43408
2.63464
2.62058
2.61034
2.59673
2.58077
2.5609
2.53673
2.50821
2.47421
2.43406
2.64137
2.6288
2.61896
2.60491
2.58811
2.5669
2.54116
2.51093
2.47501
2.43272
2.65041
2.63859
2.62835
2.61337
2.59551
2.57295
2.54556
2.51351
2.47531
2.43037
2.66195
2.65004
2.63887
2.62276
2.60375
2.57977
2.55058
2.51649
2.47556
2.4272
2.67614
2.66315
2.65079
2.63339
2.61304
2.58741
2.55619
2.51971
2.47551
2.42341
2.69311
2.6781
2.66432
2.64518
2.62311
2.59526
2.5619
2.52251
2.47465
2.41878
2.71186
2.69416
2.67885
2.6577
2.63371
2.60323
2.56753
2.52456
2.47261
2.41242
2.73151
2.71136
2.69431
2.67112
2.64517
2.6118
2.57345
2.52648
2.47011
2.40433
2.75067
2.72953
2.71089
2.68607
2.65827
2.62221
2.58065
2.52903
2.46736
2.39502
2.77076
2.74977
2.73027
2.70388
2.67431
2.63561
2.59015
2.53308
2.4655
2.38462
)
;

boundaryField
{
    inlet
    {
        type            fixedValue;
        value           uniform 1;
    }
    outlet
    {
        type            zeroGradient;
    }
    triangle
    {
        type            zeroGradient;
    }
    top
    {
        type            symmetryPlane;
    }
    bottom
    {
        type            symmetryPlane;
    }
    defaultFaces
    {
        type            empty;
    }
}


// ************************************************************************* //
