/*--------------------------------*- C++ -*----------------------------------*\
  =========                 |
  \\      /  F ield         | OpenFOAM: The Open Source CFD Toolbox
   \\    /   O peration     | Website:  https://openfoam.org
    \\  /    A nd           | Version:  8
     \\/     M anipulation  |
\*---------------------------------------------------------------------------*/
FoamFile
{
    version     2.0;
    format      ascii;
    class       volScalarField;
    location    "1.9";
    object      rho;
}
// * * * * * * * * * * * * * * * * * * * * * * * * * * * * * * * * * * * * * //

dimensions      [1 -3 0 0 0 0 0];

internalField   nonuniform List<scalar> 
2600
(
0.96212
0.948058
0.998235
1.12616
1.30012
1.49433
1.65514
1.74081
1.73452
1.69549
0.923245
0.892575
0.947202
1.10213
1.29206
1.49664
1.65284
1.73723
1.73646
1.69249
0.91887
0.86721
0.906942
1.07266
1.27548
1.48254
1.65572
1.74038
1.72608
1.65635
0.921846
0.857915
0.881139
1.03135
1.24851
1.43927
1.6303
1.7256
1.68071
1.61379
0.923298
0.854372
0.863455
0.989764
1.20081
1.3893
1.55892
1.66667
1.6464
1.58804
0.927392
0.856366
0.853131
0.957081
1.14391
1.32981
1.50127
1.59371
1.60039
1.54007
0.929905
0.855438
0.852459
0.943482
1.10816
1.27289
1.44233
1.51472
1.52799
1.49309
0.930002
0.854854
0.855756
0.940559
1.08821
1.23829
1.3834
1.46994
1.47428
1.45122
0.928417
0.851605
0.849804
0.937945
1.07953
1.2212
1.36045
1.46929
1.43592
1.42231
0.928289
0.84754
0.847246
0.936051
1.07682
1.21988
1.35815
1.44967
1.43362
1.4327
0.928586
0.848302
0.848563
0.936239
1.07691
1.22128
1.35627
1.42171
1.4552
1.44459
0.929024
0.852388
0.851099
0.938056
1.0798
1.22323
1.36643
1.42271
1.47098
1.4608
0.930554
0.854886
0.855634
0.940534
1.08892
1.23838
1.38259
1.46927
1.47751
1.4593
0.929966
0.85477
0.851447
0.942647
1.10842
1.2725
1.42728
1.54647
1.52289
1.4758
0.927337
0.856012
0.85242
0.956318
1.14417
1.327
1.50886
1.61629
1.58648
1.52183
0.923122
0.854564
0.86357
0.989048
1.20037
1.39325
1.5676
1.64802
1.63696
1.57716
0.921361
0.858425
0.881264
1.03079
1.24834
1.44444
1.60818
1.70135
1.70511
1.64922
0.918729
0.867425
0.906593
1.07203
1.2763
1.47991
1.65409
1.75091
1.733
1.67311
0.923658
0.891589
0.946833
1.10184
1.2922
1.49597
1.66378
1.75584
1.73206
1.66846
0.961633
0.947375
0.998376
1.12593
1.29949
1.49671
1.66052
1.74183
1.7216
1.67491
1.18383
1.02238
1.05426
1.14474
1.29505
1.48614
1.6538
1.73144
1.72431
1.69123
1.41053
1.10104
1.11572
1.16193
1.28043
1.4654
1.64883
1.73553
1.73526
1.69561
1.60241
1.18601
1.16234
1.17505
1.26237
1.4395
1.64071
1.73795
1.73544
1.69138
1.74906
1.28455
1.20548
1.187
1.24997
1.41155
1.62848
1.72862
1.72934
1.68415
1.86642
1.38303
1.252
1.20297
1.24272
1.38316
1.60877
1.71025
1.71752
1.6793
1.95696
1.47143
1.29475
1.21882
1.24547
1.35419
1.58068
1.69661
1.71467
1.67644
2.03078
1.55315
1.33664
1.23145
1.24666
1.32581
1.54782
1.69137
1.71546
1.6758
2.09186
1.62598
1.38616
1.25222
1.248
1.30177
1.51194
1.68311
1.71581
1.67345
2.14351
1.69239
1.43763
1.28695
1.25017
1.28505
1.47205
1.669
1.71337
1.6694
2.18748
1.75346
1.4852
1.32646
1.25566
1.27471
1.42936
1.64537
1.70732
1.66462
2.22418
1.81091
1.53398
1.3608
1.26646
1.27082
1.38708
1.6169
1.69918
1.65878
2.25526
1.86228
1.58354
1.39488
1.27917
1.2671
1.34889
1.58764
1.69229
1.65169
2.28183
1.90831
1.62928
1.43396
1.29458
1.26448
1.31663
1.55494
1.68436
1.64423
2.3046
1.94972
1.66949
1.47186
1.31822
1.26459
1.29068
1.51602
1.67351
1.63739
2.32401
1.98656
1.70857
1.50496
1.34632
1.26754
1.27225
1.47261
1.65851
1.63003
2.34071
2.0189
1.74553
1.53712
1.37224
1.27249
1.25861
1.43005
1.64052
1.62155
2.35494
2.0473
1.77962
1.56936
1.39995
1.27844
1.25051
1.39074
1.62107
1.61247
2.36728
2.07282
1.81007
1.60018
1.42834
1.28699
1.24616
1.35403
1.59914
1.60362
2.37872
2.09578
1.8388
1.62797
1.4565
1.30157
1.24459
1.31976
1.57288
1.59453
2.39111
2.11845
1.8667
1.65533
1.48159
1.32047
1.24491
1.28883
1.5403
1.58442
3.5824
3.462
3.37906
3.2973
3.21696
3.1376
3.05081
2.95352
2.81111
2.62957
3.43109
3.3155
3.26117
3.19985
3.13812
3.06972
2.98926
2.88842
2.74051
2.523
3.39217
3.30907
3.26485
3.20696
3.14868
3.08224
3.002
2.89877
2.74886
2.54161
3.33345
3.26987
3.23336
3.18127
3.12897
3.06421
2.9848
2.88044
2.73274
2.52501
3.28141
3.23064
3.20071
3.15294
3.1043
3.0413
2.96435
2.86101
2.71846
2.512
3.23147
3.19055
3.16511
3.12228
3.07832
3.01789
2.94404
2.84231
2.70578
2.50582
3.19069
3.15855
3.13689
3.0978
3.05656
2.99744
2.92616
2.82624
2.6961
2.5077
3.15759
3.13011
3.10968
3.07316
3.03438
2.97737
2.90929
2.81227
2.68914
2.51348
3.11987
3.09672
3.07819
3.04543
3.00983
2.95584
2.89169
2.79866
2.68297
2.52072
3.07577
3.05668
3.04098
3.0126
2.98051
2.93056
2.87114
2.78349
2.67545
2.52704
3.03634
3.02097
3.00753
2.98167
2.95156
2.90471
2.84923
2.76725
2.6676
2.53229
3.00638
2.99261
2.9793
2.95401
2.92479
2.88041
2.82837
2.75189
2.6602
2.53667
2.98598
2.97049
2.95496
2.9289
2.89991
2.85778
2.80901
2.73784
2.65271
2.53986
2.96573
2.94696
2.92908
2.90327
2.87542
2.83616
2.79075
2.72491
2.64607
2.54273
2.9418
2.91971
2.90254
2.87893
2.85252
2.81562
2.77274
2.71178
2.63889
2.54451
2.92318
2.89787
2.87958
2.85594
2.83045
2.79619
2.75625
2.69999
2.63231
2.54543
2.91307
2.88771
2.86718
2.84162
2.8152
2.78106
2.74218
2.6895
2.62624
2.5466
2.9132
2.89122
2.86993
2.84163
2.81177
2.77416
2.73435
2.68331
2.62309
2.54767
2.91575
2.89751
2.87743
2.84894
2.81714
2.77748
2.73496
2.6822
2.62319
2.55143
2.90879
2.89297
2.87628
2.85123
2.82153
2.78339
2.74035
2.68753
2.62852
2.55886
1.40579
1.41857
1.43392
1.45248
1.47489
1.5061
1.5858
1.81684
2.7883
3.13913
1.40579
1.41857
1.43392
1.45249
1.47488
1.50611
1.58581
1.81647
2.78595
3.13281
1.40579
1.41858
1.43391
1.45249
1.47487
1.50612
1.58581
1.81575
2.78183
3.12533
1.40579
1.41858
1.43391
1.4525
1.47485
1.50615
1.58579
1.81473
2.77601
3.11599
1.40579
1.41858
1.43391
1.45251
1.47483
1.50618
1.58574
1.81338
2.7688
3.10593
1.40579
1.41858
1.4339
1.45252
1.4748
1.50621
1.58567
1.81174
2.76039
3.09422
1.40579
1.41858
1.4339
1.45254
1.47477
1.50625
1.58556
1.80982
2.75088
3.07984
1.40579
1.41858
1.43389
1.45255
1.47474
1.5063
1.58543
1.80764
2.74046
3.0614
1.40579
1.41859
1.43388
1.45256
1.47471
1.50636
1.58528
1.80518
2.73034
3.04178
1.40579
1.41859
1.43388
1.45258
1.47468
1.50641
1.58514
1.8024
2.72102
3.02305
1.40579
1.41859
1.43387
1.45259
1.47465
1.50647
1.58503
1.79928
2.71208
3.00556
1.40579
1.41859
1.43387
1.4526
1.47462
1.50654
1.58495
1.79579
2.70289
2.98885
1.40579
1.41859
1.43386
1.45262
1.4746
1.50661
1.58494
1.79194
2.69324
2.97323
1.40579
1.41859
1.43386
1.45263
1.47457
1.50667
1.58497
1.78773
2.68353
2.96032
1.40579
1.4186
1.43385
1.45264
1.47455
1.50674
1.58508
1.78323
2.67378
2.95291
1.40579
1.4186
1.43385
1.45265
1.47453
1.50681
1.58526
1.77844
2.66305
2.9496
1.40579
1.4186
1.43385
1.45266
1.47451
1.50687
1.5855
1.77344
2.6507
2.94718
1.40579
1.4186
1.43384
1.45267
1.4745
1.50694
1.58581
1.76804
2.63662
2.94323
1.40579
1.4186
1.43384
1.45267
1.47448
1.507
1.58616
1.76252
2.62174
2.93626
1.40579
1.4186
1.43384
1.45268
1.47447
1.50706
1.58654
1.75699
2.6075
2.92784
1.40579
1.4186
1.43384
1.45268
1.47447
1.50706
1.58654
1.75699
2.6075
2.92783
1.40579
1.4186
1.43384
1.45267
1.47448
1.507
1.58616
1.76252
2.62174
2.93626
1.40579
1.4186
1.43384
1.45267
1.4745
1.50694
1.58581
1.76804
2.63662
2.94323
1.40579
1.4186
1.43385
1.45266
1.47451
1.50687
1.5855
1.77344
2.6507
2.94718
1.40579
1.4186
1.43385
1.45265
1.47453
1.50681
1.58526
1.77844
2.66305
2.9496
1.40579
1.4186
1.43385
1.45264
1.47455
1.50674
1.58508
1.78323
2.67378
2.95291
1.40579
1.41859
1.43386
1.45263
1.47457
1.50667
1.58497
1.78773
2.68353
2.96032
1.40579
1.41859
1.43386
1.45262
1.4746
1.50661
1.58494
1.79194
2.69324
2.97323
1.40579
1.41859
1.43387
1.4526
1.47462
1.50654
1.58495
1.79579
2.70289
2.98885
1.40579
1.41859
1.43387
1.45259
1.47465
1.50647
1.58503
1.79927
2.71208
3.00556
1.40579
1.41859
1.43388
1.45258
1.47468
1.50641
1.58514
1.8024
2.72102
3.02305
1.40579
1.41859
1.43388
1.45256
1.47471
1.50636
1.58528
1.80518
2.73034
3.04178
1.40579
1.41858
1.43389
1.45255
1.47474
1.5063
1.58543
1.80764
2.74046
3.0614
1.40579
1.41858
1.4339
1.45254
1.47477
1.50625
1.58556
1.80982
2.75088
3.07984
1.40579
1.41858
1.4339
1.45252
1.4748
1.50621
1.58567
1.81174
2.76039
3.09422
1.40579
1.41858
1.43391
1.45251
1.47483
1.50618
1.58574
1.81338
2.7688
3.10593
1.40579
1.41858
1.43391
1.4525
1.47485
1.50615
1.58579
1.81473
2.77601
3.11599
1.40579
1.41858
1.43391
1.45249
1.47487
1.50612
1.58581
1.81575
2.78183
3.12533
1.40579
1.41857
1.43392
1.45249
1.47488
1.50611
1.58581
1.81647
2.78595
3.13281
1.40579
1.41857
1.43392
1.45248
1.47489
1.5061
1.5858
1.81684
2.7883
3.13913
2.90879
2.89297
2.87628
2.85124
2.82154
2.7834
2.74036
2.68753
2.62853
2.55888
2.91575
2.89751
2.87743
2.84894
2.81715
2.77748
2.73497
2.6822
2.62319
2.55145
2.9132
2.89122
2.86993
2.84163
2.81177
2.77417
2.73436
2.68331
2.6231
2.54768
2.91307
2.88771
2.86718
2.84163
2.8152
2.78106
2.74219
2.68951
2.62625
2.5466
2.92319
2.89787
2.87959
2.85594
2.83045
2.7962
2.75625
2.7
2.63231
2.54542
2.9418
2.91971
2.90254
2.87894
2.85253
2.81562
2.77274
2.71179
2.63888
2.54451
2.96574
2.94697
2.92909
2.90328
2.87542
2.83617
2.79075
2.72491
2.64607
2.54274
2.98599
2.9705
2.95497
2.9289
2.89992
2.85778
2.80901
2.73784
2.65273
2.53988
3.00638
2.99261
2.9793
2.95402
2.92479
2.88042
2.82837
2.75189
2.66022
2.53668
3.03634
3.02097
3.00753
2.98168
2.95156
2.90472
2.84923
2.76725
2.66762
2.53229
3.07578
3.05669
3.04098
3.01261
2.98051
2.93056
2.87115
2.78349
2.67545
2.52703
3.11988
3.09672
3.0782
3.04543
3.00984
2.95585
2.89169
2.79867
2.68296
2.52073
3.1576
3.13011
3.10968
3.07316
3.03438
2.97737
2.9093
2.81227
2.68913
2.51351
3.1907
3.15855
3.13689
3.0978
3.05657
2.99744
2.92616
2.82624
2.69609
2.50773
3.23147
3.19055
3.16512
3.12228
3.07832
3.01789
2.94404
2.8423
2.70578
2.50583
3.28141
3.23064
3.20071
3.15294
3.1043
3.0413
2.96435
2.861
2.71847
2.51198
3.33345
3.26987
3.23336
3.18127
3.12898
3.06421
2.9848
2.88043
2.73275
2.52496
3.39217
3.30908
3.26486
3.20697
3.14868
3.08224
3.002
2.89877
2.74886
2.54155
3.43109
3.3155
3.26117
3.19985
3.13812
3.06972
2.98926
2.88842
2.74051
2.52294
3.5824
3.462
3.37906
3.2973
3.21696
3.1376
3.05081
2.95352
2.81111
2.62953
2.39109
2.11848
1.86676
1.6552
1.48165
1.32066
1.24497
1.28913
1.54026
1.58471
2.37868
2.09573
1.83875
1.62808
1.45643
1.30174
1.24464
1.31951
1.57241
1.59446
2.36725
2.0727
1.81001
1.60023
1.42825
1.2871
1.24613
1.35374
1.59927
1.60355
2.35493
2.04721
1.77949
1.56935
1.4001
1.2784
1.25041
1.39081
1.62137
1.61221
2.34077
2.01887
1.74539
1.53722
1.37241
1.27226
1.25837
1.4306
1.64124
1.62141
2.32409
1.98663
1.7085
1.50508
1.34632
1.26728
1.27177
1.47242
1.65925
1.63074
2.30467
1.94983
1.66948
1.47201
1.31819
1.26436
1.29003
1.51418
1.67364
1.63798
2.28182
1.90837
1.62933
1.43409
1.2947
1.26433
1.31635
1.55319
1.68415
1.64365
2.25514
1.86221
1.58358
1.39514
1.27931
1.26695
1.3491
1.58715
1.69204
1.65059
2.22404
1.81072
1.53409
1.36112
1.26641
1.27064
1.38649
1.61822
1.6997
1.65881
2.18745
1.75327
1.48528
1.3268
1.25552
1.27441
1.4268
1.64601
1.70762
1.66654
2.14364
1.69222
1.43759
1.28729
1.25006
1.28461
1.47012
1.66816
1.71291
1.67077
2.09202
1.62582
1.38627
1.25268
1.24789
1.30112
1.51378
1.68279
1.7151
1.66972
2.03087
1.55325
1.33682
1.23176
1.2467
1.32482
1.55108
1.69216
1.71489
1.67242
1.95696
1.4718
1.29469
1.21892
1.24563
1.35301
1.5791
1.70032
1.71527
1.67709
1.86639
1.38321
1.25178
1.20317
1.24299
1.38247
1.60192
1.71217
1.72152
1.68452
1.74891
1.28458
1.20553
1.18751
1.25013
1.41127
1.62417
1.7263
1.72908
1.68926
1.60209
1.18599
1.16284
1.17577
1.2627
1.43868
1.64348
1.73817
1.73166
1.68533
1.41019
1.10067
1.11625
1.16279
1.28108
1.46282
1.65473
1.74321
1.72702
1.68257
1.18392
1.02219
1.05449
1.14544
1.29585
1.48198
1.65766
1.74499
1.7259
1.68648
2.58665
2.45873
2.30694
2.13953
1.96049
1.77508
1.59703
1.44181
1.23539
1.0354
2.58634
2.45876
2.30646
2.13746
1.95785
1.77156
1.59341
1.43771
1.23299
1.03832
2.58648
2.46007
2.30732
2.13705
1.9541
1.76647
1.58812
1.43139
1.22922
1.03827
2.58659
2.46225
2.30862
2.13496
1.94931
1.76005
1.5813
1.4229
1.22421
1.0402
2.58623
2.46456
2.30954
2.13227
1.94333
1.75255
1.57339
1.41211
1.21776
1.04379
2.58498
2.46522
2.30805
2.12718
1.93567
1.74377
1.56433
1.39927
1.21042
1.04953
2.58298
2.46256
2.30226
2.11892
1.9256
1.73338
1.55404
1.38432
1.20227
1.05786
2.57962
2.45553
2.29143
2.10632
1.9122
1.72078
1.54229
1.36736
1.19506
1.0704
2.57437
2.44463
2.27685
2.08908
1.89529
1.70624
1.52892
1.34828
1.18799
1.08925
2.56775
2.43146
2.25862
2.06766
1.87506
1.68958
1.51368
1.32792
1.17976
1.11874
2.56037
2.41676
2.23767
2.04277
1.85184
1.67134
1.49658
1.30671
1.1692
1.15912
2.55219
2.40078
2.21449
2.01566
1.82635
1.65069
1.4763
1.28638
1.16303
1.20637
2.54331
2.38363
2.18993
1.98704
1.79863
1.62777
1.45242
1.26817
1.16042
1.25776
2.53391
2.36492
2.16398
1.95675
1.76882
1.60073
1.42395
1.25464
1.16362
1.31235
2.52372
2.3434
2.13485
1.92376
1.73566
1.56924
1.38988
1.24626
1.17977
1.36757
2.51154
2.31735
2.10082
1.88696
1.69937
1.53321
1.35352
1.24034
1.21101
1.42046
2.4954
2.28497
2.0606
1.84565
1.6595
1.49172
1.31712
1.23394
1.25768
1.47115
2.47345
2.24604
2.01405
1.79942
1.61619
1.44822
1.28786
1.23161
1.32129
1.5132
2.44618
2.20193
1.96274
1.74942
1.57011
1.40037
1.26415
1.23635
1.3983
1.54453
2.4143
2.15462
1.90866
1.69654
1.52024
1.35319
1.24942
1.25822
1.48053
1.56805
2.41429
2.15459
1.90858
1.69668
1.5203
1.3532
1.2494
1.25783
1.48049
1.56829
2.44616
2.20194
1.9628
1.74942
1.57012
1.40046
1.26422
1.23614
1.39759
1.54441
2.47345
2.24606
2.01406
1.79946
1.61618
1.44817
1.28779
1.23155
1.32086
1.51331
2.4954
2.28498
2.06059
1.84563
1.6595
1.49175
1.31715
1.23394
1.25743
1.47107
2.51154
2.31734
2.10081
1.88695
1.69937
1.5332
1.35354
1.24037
1.21088
1.42034
2.52372
2.3434
2.13485
1.92376
1.73567
1.56925
1.38989
1.24627
1.17972
1.36741
2.53391
2.36491
2.16398
1.95675
1.76882
1.60074
1.42395
1.25464
1.16362
1.31225
2.54331
2.38363
2.18993
1.98704
1.79863
1.62778
1.45242
1.26817
1.16043
1.25773
2.55219
2.40078
2.21448
2.01566
1.82635
1.6507
1.47629
1.28635
1.16306
1.20639
2.56037
2.41675
2.23767
2.04277
1.85184
1.67134
1.49656
1.30668
1.1692
1.15916
2.56775
2.43146
2.25862
2.06766
1.87506
1.68957
1.51366
1.32789
1.17976
1.11877
2.57437
2.44463
2.27685
2.08908
1.89529
1.70624
1.52891
1.34825
1.18799
1.08926
2.57962
2.45553
2.29143
2.10632
1.9122
1.72078
1.54228
1.36735
1.19505
1.07038
2.58298
2.46257
2.30227
2.11892
1.92561
1.73338
1.55404
1.38432
1.20227
1.05783
2.58499
2.46522
2.30806
2.12718
1.93567
1.74378
1.56433
1.39928
1.21042
1.0495
2.58623
2.46457
2.30955
2.13227
1.94334
1.75256
1.5734
1.41213
1.21776
1.04376
2.5866
2.46225
2.30863
2.13497
1.94932
1.76006
1.58132
1.42292
1.22422
1.0402
2.58648
2.46008
2.30733
2.13706
1.95411
1.76648
1.58813
1.43141
1.22924
1.03827
2.58634
2.45877
2.30647
2.13747
1.95786
1.77157
1.59342
1.43772
1.23301
1.03833
2.58666
2.45874
2.30695
2.13954
1.9605
1.77509
1.59704
1.44182
1.23541
1.03541
2.89275
2.87767
2.86343
2.84298
2.81841
2.78548
2.74618
2.69735
2.64014
2.57313
2.87431
2.85898
2.84576
2.82785
2.80733
2.77979
2.74664
2.70456
2.65362
2.59343
2.85689
2.84213
2.8299
2.81318
2.79444
2.77003
2.74135
2.70504
2.66067
2.60799
2.84009
2.82704
2.81589
2.80046
2.78301
2.76072
2.73444
2.70231
2.66277
2.61634
2.82499
2.81389
2.80379
2.78967
2.7734
2.75283
2.72819
2.69905
2.66323
2.6211
2.81188
2.80229
2.79322
2.78037
2.7653
2.74623
2.72297
2.69588
2.66285
2.62368
2.80119
2.79242
2.78425
2.77239
2.75834
2.74052
2.71875
2.69324
2.66258
2.62617
2.7927
2.784
2.77656
2.76559
2.75246
2.73578
2.71543
2.6915
2.66282
2.62901
2.78629
2.77705
2.76996
2.75973
2.74747
2.73189
2.71288
2.69045
2.6636
2.63187
2.78179
2.77145
2.76413
2.75431
2.74276
2.72828
2.71057
2.68959
2.66438
2.63448
2.77879
2.767
2.75887
2.74883
2.73757
2.72402
2.70762
2.68824
2.66452
2.63641
2.77706
2.7638
2.75459
2.74372
2.73209
2.71891
2.7036
2.68585
2.66368
2.63723
2.77642
2.7622
2.75205
2.74014
2.72764
2.71411
2.69915
2.68241
2.66184
2.63713
2.77686
2.762
2.75129
2.73873
2.72551
2.71122
2.69573
2.67907
2.65964
2.63661
2.77836
2.76309
2.75201
2.73907
2.72542
2.71055
2.69442
2.67739
2.65823
2.636
2.7808
2.76574
2.7545
2.74134
2.72736
2.7121
2.69551
2.678
2.65855
2.63644
2.78332
2.76885
2.75784
2.74482
2.73076
2.71518
2.69811
2.67996
2.66
2.63764
2.78566
2.77183
2.76121
2.74855
2.73467
2.71907
2.70181
2.68304
2.6624
2.63963
2.78706
2.77377
2.76352
2.75124
2.73767
2.72227
2.70514
2.68606
2.66488
2.64168
2.78758
2.77462
2.76469
2.75269
2.7394
2.72421
2.70731
2.68824
2.66681
2.64341
1.40579
1.4186
1.43384
1.45269
1.47445
1.50714
1.58705
1.75013
2.59109
2.91566
1.40579
1.4186
1.43383
1.4527
1.47444
1.50723
1.58769
1.74222
2.57236
2.90096
1.40579
1.4186
1.43383
1.4527
1.47442
1.50731
1.58833
1.73498
2.55423
2.88821
1.40579
1.41861
1.43383
1.45271
1.47441
1.50739
1.58899
1.72863
2.5364
2.87782
1.40579
1.41861
1.43382
1.45272
1.47439
1.50745
1.58969
1.72331
2.5184
2.86996
1.40579
1.41861
1.43382
1.45273
1.47438
1.50747
1.59044
1.71917
2.49993
2.8641
1.40579
1.41861
1.43382
1.45273
1.47438
1.50746
1.59122
1.71634
2.48144
2.85919
1.40579
1.41861
1.43381
1.45274
1.47437
1.50741
1.59201
1.71441
2.46358
2.85525
1.40579
1.41861
1.43381
1.45274
1.47437
1.50733
1.59278
1.71321
2.44665
2.85223
1.40579
1.41861
1.43381
1.45275
1.47438
1.50722
1.59354
1.71252
2.43085
2.84989
1.40578
1.41861
1.43381
1.45275
1.47439
1.50708
1.59429
1.71208
2.41647
2.84779
1.40578
1.41861
1.43381
1.45275
1.47441
1.50692
1.59504
1.71171
2.40383
2.84584
1.40578
1.41861
1.4338
1.45274
1.47444
1.50676
1.59577
1.71129
2.39321
2.8443
1.40578
1.41861
1.4338
1.45273
1.47447
1.50659
1.59647
1.7107
2.38462
2.8435
1.40578
1.41861
1.43381
1.45272
1.4745
1.50644
1.59707
1.70986
2.378
2.84336
1.40578
1.41861
1.43381
1.45271
1.47452
1.5063
1.59763
1.70867
2.37302
2.84393
1.40578
1.41861
1.43381
1.4527
1.47454
1.50621
1.59808
1.7073
2.36935
2.84473
1.40578
1.41861
1.43381
1.4527
1.47455
1.50616
1.59851
1.70577
2.36684
2.84563
1.40578
1.41861
1.43381
1.4527
1.47456
1.50614
1.59876
1.70481
2.36476
2.84608
1.40578
1.41861
1.43381
1.4527
1.47456
1.50612
1.59916
1.70391
2.36351
2.84617
1.40578
1.41861
1.43381
1.4527
1.47456
1.50612
1.59916
1.70391
2.36351
2.84617
1.40578
1.41861
1.43381
1.4527
1.47456
1.50614
1.59876
1.70481
2.36476
2.84608
1.40578
1.41861
1.43381
1.4527
1.47455
1.50616
1.59851
1.70577
2.36684
2.84563
1.40578
1.41861
1.43381
1.4527
1.47454
1.50621
1.59808
1.7073
2.36935
2.84473
1.40578
1.41861
1.43381
1.45271
1.47452
1.5063
1.59763
1.70867
2.37302
2.84393
1.40578
1.41861
1.43381
1.45272
1.4745
1.50644
1.59707
1.70986
2.378
2.84336
1.40578
1.41861
1.4338
1.45273
1.47447
1.50659
1.59647
1.7107
2.38462
2.8435
1.40578
1.41861
1.4338
1.45274
1.47444
1.50676
1.59577
1.71129
2.39321
2.8443
1.40578
1.41861
1.43381
1.45275
1.47441
1.50692
1.59504
1.71171
2.40383
2.84584
1.40578
1.41861
1.43381
1.45275
1.47439
1.50708
1.59429
1.71208
2.41647
2.84779
1.40579
1.41861
1.43381
1.45275
1.47438
1.50722
1.59354
1.71252
2.43085
2.84989
1.40579
1.41861
1.43381
1.45274
1.47437
1.50733
1.59278
1.71321
2.44665
2.85223
1.40579
1.41861
1.43381
1.45274
1.47437
1.50741
1.59201
1.71441
2.46358
2.85525
1.40579
1.41861
1.43382
1.45273
1.47438
1.50746
1.59122
1.71634
2.48144
2.85919
1.40579
1.41861
1.43382
1.45273
1.47438
1.50747
1.59044
1.71917
2.49993
2.8641
1.40579
1.41861
1.43382
1.45272
1.47439
1.50745
1.58969
1.72331
2.5184
2.86996
1.40579
1.41861
1.43383
1.45271
1.47441
1.50739
1.58899
1.72863
2.5364
2.87782
1.40579
1.4186
1.43383
1.4527
1.47442
1.50731
1.58833
1.73498
2.55423
2.88821
1.40579
1.4186
1.43383
1.4527
1.47444
1.50723
1.58769
1.74222
2.57236
2.90095
1.40579
1.4186
1.43384
1.45269
1.47445
1.50714
1.58705
1.75013
2.59109
2.91566
2.78758
2.77462
2.76469
2.75269
2.7394
2.72421
2.70732
2.68825
2.66681
2.64341
2.78706
2.77377
2.76352
2.75124
2.73767
2.72227
2.70514
2.68606
2.66488
2.64168
2.78566
2.77183
2.76121
2.74855
2.73467
2.71907
2.70181
2.68304
2.66239
2.63963
2.78332
2.76885
2.75784
2.74482
2.73076
2.71518
2.69811
2.67996
2.65999
2.63764
2.78081
2.76574
2.7545
2.74134
2.72736
2.7121
2.6955
2.67799
2.65855
2.63644
2.77836
2.76309
2.75201
2.73907
2.72542
2.71055
2.69442
2.67738
2.65822
2.63599
2.77686
2.762
2.75129
2.73873
2.72551
2.71122
2.69573
2.67907
2.65964
2.63661
2.77642
2.7622
2.75205
2.74014
2.72763
2.71411
2.69915
2.68241
2.66184
2.63713
2.77706
2.7638
2.75459
2.74372
2.73209
2.71891
2.70359
2.68585
2.66367
2.63723
2.77879
2.767
2.75887
2.74883
2.73757
2.72401
2.70761
2.68824
2.66452
2.63641
2.78178
2.77145
2.76413
2.75431
2.74276
2.72828
2.71057
2.68958
2.66438
2.63448
2.78629
2.77704
2.76995
2.75973
2.74747
2.73189
2.71288
2.69044
2.6636
2.63187
2.7927
2.784
2.77656
2.76558
2.75246
2.73577
2.71543
2.6915
2.66282
2.62901
2.80119
2.79241
2.78425
2.77239
2.75834
2.74052
2.71875
2.69324
2.66258
2.62617
2.81188
2.80229
2.79322
2.78037
2.7653
2.74623
2.72297
2.69588
2.66285
2.62368
2.82499
2.81389
2.80378
2.78967
2.7734
2.75283
2.72819
2.69905
2.66324
2.62111
2.84008
2.82704
2.81589
2.80046
2.78301
2.76072
2.73445
2.70232
2.66277
2.61634
2.85689
2.84213
2.8299
2.81318
2.79445
2.77003
2.74136
2.70504
2.66068
2.608
2.87431
2.85898
2.84576
2.82785
2.80734
2.7798
2.74665
2.70456
2.65363
2.59343
2.89275
2.87767
2.86344
2.84298
2.81841
2.78549
2.74619
2.69735
2.64015
2.57314
)
;

boundaryField
{
    inlet
    {
        type            calculated;
        value           uniform 1.40001;
    }
    outlet
    {
        type            calculated;
        value           nonuniform List<scalar> 
100
(
1.56833
1.54441
1.5133
1.47107
1.42034
1.36744
1.31234
1.25786
1.20654
1.15932
1.1189
1.08936
1.07047
1.05792
1.0496
1.04387
1.04033
1.03842
1.03848
1.03559
1.69066
1.69578
1.69172
1.68444
1.67947
1.67638
1.67573
1.67355
1.66954
1.66472
1.65889
1.65179
1.6443
1.63743
1.63011
1.62164
1.61251
1.60363
1.59455
1.58447
1.69617
1.69256
1.65478
1.6142
1.58935
1.54001
1.49257
1.4515
1.42182
1.43227
1.44529
1.46145
1.45934
1.47633
1.52201
1.57581
1.64886
1.67466
1.66905
1.67436
1.58477
1.59447
1.60354
1.61224
1.62153
1.63085
1.63799
1.64366
1.6507
1.65901
1.66668
1.67071
1.66963
1.67258
1.67737
1.68482
1.68928
1.68484
1.68273
1.68704
1.03558
1.03847
1.03842
1.04034
1.0439
1.04963
1.05795
1.07048
1.08935
1.11887
1.15928
1.20652
1.25789
1.31243
1.36759
1.42046
1.47115
1.5132
1.54453
1.56809
)
;
    }
    triangle
    {
        type            calculated;
        value           nonuniform List<scalar> 
40
(
3.5824
3.462
3.37906
3.2973
3.21696
3.1376
3.05081
2.95352
2.81111
2.62957
0.96212
0.923245
0.91887
0.921846
0.923298
0.927392
0.929905
0.930002
0.928417
0.928289
0.928586
0.929024
0.930554
0.929966
0.927337
0.923122
0.921361
0.918729
0.923658
0.961633
3.5824
3.462
3.37906
3.2973
3.21696
3.1376
3.05081
2.95352
2.81111
2.62953
)
;
    }
    top
    {
        type            symmetryPlane;
    }
    bottom
    {
        type            symmetryPlane;
    }
    defaultFaces
    {
        type            empty;
    }
}


// ************************************************************************* //
