/*--------------------------------*- C++ -*----------------------------------*\
  =========                 |
  \\      /  F ield         | OpenFOAM: The Open Source CFD Toolbox
   \\    /   O peration     | Website:  https://openfoam.org
    \\  /    A nd           | Version:  8
     \\/     M anipulation  |
\*---------------------------------------------------------------------------*/
FoamFile
{
    version     2.0;
    format      ascii;
    class       volScalarField;
    location    "1.9";
    object      T;
}
// * * * * * * * * * * * * * * * * * * * * * * * * * * * * * * * * * * * * * //

dimensions      [0 0 0 1 0 0 0];

internalField   nonuniform List<scalar> 
2600
(
1.22998
1.16307
1.0697
1.01221
1.02456
1.05707
1.09053
1.11429
1.11382
1.10924
1.26904
1.21167
1.12072
1.04742
1.04931
1.07444
1.10093
1.12037
1.12282
1.11917
1.2797
1.23002
1.16321
1.09507
1.08221
1.09758
1.12111
1.13463
1.13491
1.12846
1.28199
1.23187
1.19027
1.14593
1.12613
1.12873
1.14749
1.1568
1.14802
1.14838
1.2812
1.23169
1.2087
1.1967
1.18107
1.18103
1.18182
1.18678
1.18346
1.18961
1.28155
1.23664
1.22552
1.24291
1.24603
1.25109
1.24447
1.2353
1.2363
1.23589
1.28209
1.24225
1.24096
1.27742
1.30835
1.31763
1.31277
1.29172
1.28669
1.27614
1.28291
1.24559
1.24904
1.29058
1.33564
1.35498
1.35593
1.34441
1.32667
1.29811
1.28307
1.24564
1.24569
1.28793
1.33529
1.36162
1.37735
1.38061
1.34337
1.30501
1.28356
1.24399
1.24396
1.28457
1.33253
1.36228
1.38571
1.38691
1.3541
1.31404
1.28376
1.24444
1.24473
1.28475
1.33266
1.36298
1.38475
1.37635
1.36192
1.31738
1.28347
1.2462
1.2464
1.28808
1.33561
1.3627
1.37938
1.3623
1.35592
1.3188
1.2832
1.24567
1.24892
1.29054
1.33606
1.35554
1.35527
1.341
1.3278
1.30164
1.28206
1.24172
1.24015
1.27663
1.30808
1.3185
1.30793
1.29787
1.28441
1.27038
1.28159
1.23633
1.22477
1.24177
1.24541
1.25133
1.2494
1.23742
1.23031
1.23053
1.28118
1.23178
1.20855
1.19547
1.18021
1.18321
1.1871
1.17992
1.1795
1.18693
1.2817
1.23211
1.19017
1.14491
1.1257
1.1305
1.142
1.15263
1.15418
1.15849
1.27974
1.23015
1.16293
1.09428
1.08228
1.09646
1.12157
1.14052
1.13518
1.13184
1.26953
1.2113
1.12051
1.047
1.04918
1.07419
1.10476
1.12635
1.12024
1.1116
1.22989
1.16294
1.06976
1.01192
1.02424
1.05781
1.09203
1.1141
1.11073
1.10385
1.1736
1.09375
1.02325
0.985236
1.00386
1.04445
1.08293
1.10764
1.10799
1.10277
1.13594
1.04498
0.995465
0.966888
0.987834
1.03291
1.07639
1.10607
1.10867
1.10065
1.13071
1.02596
0.982431
0.957511
0.9767
1.02233
1.07067
1.10453
1.108
1.09764
1.13458
1.02273
0.978489
0.954438
0.969193
1.01122
1.06443
1.10087
1.10629
1.0947
1.14541
1.02822
0.978103
0.955274
0.9638
0.999644
1.05632
1.09539
1.10232
1.09225
1.15868
1.04071
0.982412
0.958846
0.961679
0.988216
1.04665
1.09042
1.09972
1.0899
1.17146
1.05711
0.991994
0.962844
0.958343
0.977935
1.03675
1.08696
1.09763
1.08765
1.1823
1.07306
1.00543
0.967708
0.956182
0.969864
1.02659
1.08236
1.09507
1.08468
1.19141
1.08745
1.01885
0.974857
0.956036
0.964222
1.01533
1.07657
1.09226
1.08154
1.19949
1.10048
1.03048
0.983726
0.957732
0.960761
1.00341
1.06941
1.08963
1.07885
1.20699
1.11288
1.04224
0.992075
0.961943
0.959292
0.992064
1.06221
1.08741
1.07664
1.21441
1.12443
1.05449
1.00121
0.966547
0.958443
0.982224
1.05562
1.08613
1.07475
1.22183
1.13548
1.06622
1.01242
0.971557
0.958326
0.974194
1.04823
1.08489
1.07316
1.22909
1.14616
1.07707
1.02378
0.979163
0.959997
0.968184
1.03844
1.08282
1.07188
1.23606
1.15634
1.08812
1.03416
0.988348
0.962955
0.964176
1.02623
1.07919
1.07051
1.24284
1.16602
1.09914
1.04459
0.997139
0.966475
0.96098
1.01347
1.07432
1.06913
1.24939
1.17541
1.10999
1.05529
1.00661
0.970085
0.959023
1.00146
1.06884
1.06831
1.2556
1.18485
1.12052
1.06578
1.01637
0.974173
0.95798
0.990296
1.06251
1.06834
1.26111
1.19402
1.13085
1.07541
1.026
0.979631
0.957624
0.979901
1.05539
1.06806
1.26504
1.20206
1.14026
1.0845
1.03455
0.985989
0.957814
0.970263
1.04622
1.06647
1.50833
1.48921
1.47659
1.46315
1.44889
1.43414
1.41773
1.39864
1.36948
1.34984
1.47731
1.45764
1.44892
1.43839
1.42735
1.41483
1.39985
1.38042
1.35069
1.31323
1.46213
1.44668
1.43786
1.42707
1.41676
1.40511
1.39077
1.37145
1.34218
1.30113
1.44519
1.43326
1.4255
1.41524
1.40552
1.39379
1.37942
1.35997
1.33155
1.28934
1.43065
1.42142
1.41539
1.40602
1.39662
1.38475
1.37046
1.35108
1.3238
1.28176
1.4167
1.40893
1.40373
1.39542
1.3871
1.37587
1.36226
1.34328
1.31724
1.27647
1.40254
1.39612
1.39176
1.38448
1.37714
1.36668
1.35405
1.33579
1.31118
1.27311
1.38826
1.38404
1.38082
1.37454
1.36791
1.3581
1.34634
1.32887
1.30575
1.27101
1.38203
1.37763
1.37417
1.36815
1.36172
1.35206
1.34064
1.32364
1.30185
1.27027
1.38011
1.37562
1.37174
1.36559
1.3589
1.34905
1.33762
1.32092
1.30023
1.27104
1.37928
1.37531
1.37148
1.36524
1.35827
1.34825
1.33679
1.32032
1.30041
1.27322
1.37836
1.37483
1.3711
1.36495
1.358
1.34816
1.3369
1.32084
1.30161
1.27642
1.37765
1.37444
1.37078
1.36474
1.35778
1.34817
1.33723
1.32185
1.30349
1.28006
1.38119
1.37633
1.37139
1.36479
1.35769
1.34837
1.33785
1.32322
1.3058
1.28392
1.38492
1.37894
1.37288
1.36576
1.35845
1.34923
1.33883
1.32482
1.30826
1.28782
1.38072
1.37639
1.37212
1.36612
1.35911
1.35007
1.34009
1.32685
1.31111
1.2918
1.37044
1.36788
1.36611
1.36242
1.35729
1.34976
1.34072
1.32829
1.31365
1.29566
1.35692
1.35553
1.35544
1.35405
1.35155
1.34649
1.33924
1.3284
1.31497
1.29849
1.34679
1.34509
1.34511
1.34429
1.34288
1.33966
1.33464
1.32627
1.31474
1.30009
1.34287
1.34001
1.33831
1.3362
1.33442
1.33174
1.32798
1.32172
1.3129
1.30029
1.00165
1.00528
1.00961
1.01482
1.02105
1.02961
1.05076
1.11357
1.32562
1.41384
1.00165
1.00528
1.00961
1.01482
1.02105
1.02962
1.05076
1.11352
1.32545
1.41108
1.00165
1.00528
1.00961
1.01482
1.02104
1.02962
1.05075
1.11345
1.32554
1.40641
1.00165
1.00528
1.00961
1.01483
1.02104
1.02963
1.05074
1.11333
1.32568
1.40089
1.00165
1.00528
1.00961
1.01483
1.02103
1.02964
1.05071
1.1131
1.32573
1.39555
1.00165
1.00528
1.00961
1.01483
1.02102
1.02965
1.05069
1.11274
1.32562
1.39088
1.00165
1.00528
1.00961
1.01484
1.02101
1.02966
1.05066
1.11223
1.32529
1.38774
1.00165
1.00528
1.00961
1.01484
1.02101
1.02967
1.05062
1.11159
1.32464
1.38636
1.00165
1.00528
1.0096
1.01484
1.021
1.02968
1.05059
1.1108
1.32319
1.38557
1.00165
1.00528
1.0096
1.01485
1.02099
1.0297
1.05056
1.1099
1.32075
1.38459
1.00165
1.00529
1.0096
1.01485
1.02098
1.02971
1.05054
1.10889
1.31753
1.38315
1.00165
1.00529
1.0096
1.01485
1.02097
1.02973
1.05053
1.10778
1.31388
1.38127
1.00165
1.00529
1.0096
1.01486
1.02097
1.02975
1.05054
1.10657
1.31005
1.37901
1.00165
1.00529
1.0096
1.01486
1.02096
1.02976
1.05056
1.10529
1.30609
1.37552
1.00165
1.00529
1.0096
1.01486
1.02095
1.02978
1.05061
1.10394
1.30225
1.37031
1.00165
1.00529
1.00959
1.01487
1.02095
1.0298
1.05067
1.10252
1.29908
1.36424
1.00165
1.00529
1.00959
1.01487
1.02094
1.02981
1.05076
1.10103
1.29685
1.35811
1.00165
1.00529
1.00959
1.01487
1.02094
1.02983
1.05086
1.09944
1.29544
1.35289
1.00165
1.00529
1.00959
1.01487
1.02094
1.02984
1.05098
1.09783
1.29433
1.34903
1.00165
1.00529
1.00959
1.01488
1.02093
1.02985
1.05112
1.0962
1.29295
1.34674
1.00165
1.00529
1.00959
1.01488
1.02093
1.02985
1.05112
1.0962
1.29295
1.34674
1.00165
1.00529
1.00959
1.01487
1.02094
1.02984
1.05098
1.09783
1.29433
1.34903
1.00165
1.00529
1.00959
1.01487
1.02094
1.02983
1.05086
1.09944
1.29543
1.35289
1.00165
1.00529
1.00959
1.01487
1.02094
1.02981
1.05076
1.10103
1.29685
1.35811
1.00165
1.00529
1.00959
1.01487
1.02095
1.0298
1.05067
1.10252
1.29908
1.36424
1.00165
1.00529
1.0096
1.01486
1.02095
1.02978
1.05061
1.10394
1.30225
1.37031
1.00165
1.00529
1.0096
1.01486
1.02096
1.02976
1.05056
1.10529
1.30609
1.37552
1.00165
1.00529
1.0096
1.01486
1.02097
1.02975
1.05054
1.10657
1.31005
1.37901
1.00165
1.00529
1.0096
1.01485
1.02097
1.02973
1.05053
1.10778
1.31388
1.38127
1.00165
1.00529
1.0096
1.01485
1.02098
1.02971
1.05054
1.10889
1.31753
1.38315
1.00165
1.00528
1.0096
1.01485
1.02099
1.0297
1.05056
1.1099
1.32075
1.38459
1.00165
1.00528
1.0096
1.01484
1.021
1.02968
1.05059
1.1108
1.32319
1.38557
1.00165
1.00528
1.00961
1.01484
1.02101
1.02967
1.05062
1.11159
1.32464
1.38636
1.00165
1.00528
1.00961
1.01484
1.02101
1.02966
1.05066
1.11223
1.32529
1.38774
1.00165
1.00528
1.00961
1.01483
1.02102
1.02965
1.05069
1.11274
1.32562
1.39088
1.00165
1.00528
1.00961
1.01483
1.02103
1.02964
1.05071
1.1131
1.32573
1.39555
1.00165
1.00528
1.00961
1.01483
1.02104
1.02963
1.05074
1.11333
1.32568
1.40089
1.00165
1.00528
1.00961
1.01482
1.02104
1.02962
1.05075
1.11345
1.32554
1.40641
1.00165
1.00528
1.00961
1.01482
1.02105
1.02962
1.05076
1.11352
1.32545
1.41108
1.00165
1.00528
1.00961
1.01482
1.02105
1.02961
1.05076
1.11357
1.32562
1.41384
1.34287
1.34001
1.33831
1.3362
1.33442
1.33174
1.32798
1.32172
1.3129
1.30029
1.34679
1.34509
1.34511
1.34429
1.34288
1.33966
1.33465
1.32627
1.31474
1.30009
1.35692
1.35553
1.35544
1.35406
1.35155
1.3465
1.33924
1.3284
1.31497
1.2985
1.37044
1.36788
1.36611
1.36242
1.3573
1.34976
1.34072
1.32829
1.31365
1.29566
1.38072
1.37639
1.37212
1.36612
1.35911
1.35007
1.34009
1.32685
1.31111
1.2918
1.38492
1.37894
1.37288
1.36576
1.35845
1.34923
1.33883
1.32482
1.30826
1.28782
1.38119
1.37633
1.37139
1.36479
1.35769
1.34837
1.33785
1.32322
1.3058
1.28392
1.37765
1.37444
1.37078
1.36474
1.35778
1.34817
1.33723
1.32185
1.3035
1.28007
1.37836
1.37483
1.3711
1.36495
1.358
1.34816
1.3369
1.32084
1.30161
1.27643
1.37928
1.37531
1.37148
1.36524
1.35827
1.34825
1.33679
1.32032
1.30041
1.27322
1.38012
1.37562
1.37174
1.36559
1.35891
1.34905
1.33762
1.32092
1.30023
1.27103
1.38203
1.37763
1.37418
1.36816
1.36172
1.35206
1.34064
1.32365
1.30184
1.27027
1.38826
1.38404
1.38082
1.37454
1.36791
1.3581
1.34634
1.32887
1.30575
1.27101
1.40254
1.39612
1.39176
1.38448
1.37714
1.36668
1.35405
1.33579
1.31118
1.27312
1.4167
1.40894
1.40373
1.39542
1.3871
1.37587
1.36226
1.34328
1.31724
1.27647
1.43065
1.42142
1.41539
1.40602
1.39662
1.38475
1.37046
1.35108
1.3238
1.28176
1.44519
1.43326
1.4255
1.41524
1.40552
1.39379
1.37942
1.35996
1.33156
1.28933
1.46213
1.44668
1.43786
1.42707
1.41676
1.40511
1.39077
1.37145
1.34218
1.30112
1.47731
1.45765
1.44892
1.43839
1.42735
1.41483
1.39985
1.38043
1.35069
1.31322
1.50833
1.48921
1.47659
1.46315
1.44889
1.43414
1.41773
1.39864
1.36949
1.34983
1.26504
1.20206
1.14028
1.08447
1.03456
0.986041
0.957833
0.970355
1.04617
1.06653
1.26111
1.19401
1.13083
1.07544
1.02598
0.97968
0.957639
0.979824
1.05521
1.06802
1.25559
1.18482
1.12051
1.0658
1.01635
0.974203
0.95797
0.990213
1.0625
1.06833
1.24938
1.17539
1.10996
1.05528
1.00665
0.970073
0.958992
1.00148
1.06889
1.06828
1.24285
1.16601
1.0991
1.04461
0.99719
0.966405
0.960907
1.01364
1.07451
1.06912
1.23608
1.15636
1.08811
1.0342
0.988347
0.962882
0.964035
1.02619
1.0794
1.07069
1.2291
1.14618
1.07707
1.02382
0.97915
0.959936
0.967996
1.03795
1.08288
1.07202
1.22183
1.1355
1.06624
1.01245
0.97159
0.958284
0.974115
1.04779
1.08488
1.073
1.21439
1.12442
1.05451
1.00127
0.966594
0.958389
0.982277
1.05557
1.08611
1.07446
1.20696
1.11283
1.04228
0.992159
0.961951
0.959216
0.991886
1.06269
1.0876
1.07663
1.19948
1.10043
1.03051
0.983809
0.957707
0.96066
1.00267
1.06976
1.08979
1.07928
1.19144
1.08741
1.01884
0.974929
0.956019
0.96409
1.01476
1.07653
1.09226
1.08193
1.18233
1.07302
1.00547
0.96781
0.956164
0.969681
1.02705
1.08239
1.09496
1.08383
1.17148
1.05715
0.992046
0.962932
0.958322
0.977649
1.03759
1.08728
1.09742
1.08683
1.15867
1.04084
0.982397
0.958867
0.961676
0.987849
1.0462
1.09159
1.0998
1.09013
1.14536
1.02831
0.978066
0.955339
0.963852
0.999405
1.05451
1.09621
1.1032
1.09366
1.1345
1.02277
0.978537
0.95463
0.969262
1.01111
1.06336
1.10063
1.10603
1.09622
1.13061
1.02598
0.982636
0.957784
0.976843
1.02203
1.07145
1.10426
1.10692
1.09654
1.13581
1.04484
0.995726
0.967252
0.988083
1.03215
1.07785
1.107
1.10639
1.0973
1.17353
1.09353
1.02338
0.985604
1.00417
1.04337
1.08386
1.11055
1.10794
1.10092
1.26766
1.24677
1.22681
1.20134
1.16844
1.12764
1.07983
1.03004
0.960399
0.893815
1.26779
1.24654
1.22628
1.20054
1.16766
1.12669
1.07883
1.02885
0.959639
0.894757
1.26841
1.24611
1.22521
1.19949
1.1663
1.12521
1.07735
1.02705
0.958453
0.89465
1.26951
1.2456
1.22352
1.19746
1.16432
1.12324
1.07545
1.02465
0.956892
0.895136
1.27084
1.2454
1.22148
1.19481
1.16172
1.12087
1.07326
1.02166
0.954905
0.896064
1.27215
1.2454
1.21922
1.19164
1.15865
1.11814
1.07077
1.01813
0.952657
0.897706
1.27338
1.24532
1.21697
1.18848
1.1553
1.115
1.06781
1.01393
0.95005
0.900261
1.27441
1.24521
1.21521
1.18565
1.15175
1.11122
1.06405
1.00892
0.947376
0.904394
1.2752
1.24519
1.21419
1.18318
1.14796
1.10664
1.0591
1.0028
0.94397
0.911094
1.27581
1.24526
1.21348
1.18089
1.14374
1.1009
1.05255
0.995449
0.939301
0.922015
1.27608
1.24514
1.21267
1.1783
1.13877
1.094
1.04436
0.986648
0.934324
0.936284
1.27592
1.24438
1.21102
1.17486
1.13288
1.08588
1.03449
0.976918
0.932138
0.952029
1.27512
1.24241
1.20777
1.16993
1.12588
1.07706
1.0235
0.967136
0.930632
0.969928
1.27348
1.23895
1.20261
1.16321
1.11793
1.06765
1.0119
0.958679
0.930606
0.988932
1.27115
1.23439
1.19593
1.15496
1.10899
1.05793
0.999992
0.952474
0.934033
1.00639
1.2687
1.22976
1.18868
1.14572
1.09927
1.04781
0.988747
0.948769
0.942689
1.02098
1.26701
1.22572
1.18133
1.13571
1.08854
1.0366
0.978397
0.947519
0.956219
1.03338
1.26639
1.22204
1.17344
1.12454
1.07645
1.02464
0.970638
0.947882
0.976007
1.04363
1.26674
1.21748
1.16392
1.11174
1.06278
1.01081
0.96428
0.950469
1.0009
1.05304
1.26683
1.21029
1.1517
1.09693
1.04711
0.99636
0.959378
0.959648
1.02752
1.06133
1.26682
1.21029
1.15168
1.09696
1.04713
0.996367
0.959373
0.959528
1.02751
1.0614
1.26674
1.21748
1.16394
1.11174
1.06278
1.01084
0.964295
0.950404
1.00069
1.05302
1.26639
1.22204
1.17344
1.12454
1.07645
1.02463
0.970614
0.947871
0.975877
1.04367
1.26701
1.22572
1.18133
1.13571
1.08854
1.03661
0.978404
0.94752
0.956142
1.03337
1.2687
1.22975
1.18867
1.14572
1.09927
1.04781
0.988755
0.948778
0.942648
1.02094
1.27115
1.23439
1.19592
1.15496
1.10899
1.05793
0.999996
0.952477
0.934017
1.00634
1.27348
1.23895
1.20261
1.16321
1.11793
1.06765
1.0119
0.958681
0.930606
0.988898
1.27512
1.24241
1.20777
1.16993
1.12589
1.07706
1.0235
0.967137
0.930635
0.969918
1.27591
1.24438
1.21102
1.17486
1.13288
1.08588
1.03448
0.97691
0.932147
0.952036
1.27608
1.24514
1.21267
1.1783
1.13877
1.094
1.04435
0.986638
0.934327
0.936296
1.27581
1.24526
1.21348
1.18088
1.14374
1.1009
1.05254
0.995442
0.939303
0.922025
1.2752
1.24519
1.21419
1.18318
1.14796
1.10664
1.05909
1.00279
0.943969
0.911096
1.27441
1.24521
1.21521
1.18565
1.15175
1.11122
1.06405
1.00892
0.947374
0.904388
1.27338
1.24532
1.21697
1.18848
1.1553
1.115
1.06781
1.01393
0.950049
0.900252
1.27215
1.2454
1.21922
1.19164
1.15865
1.11814
1.07077
1.01813
0.952657
0.897696
1.27084
1.2454
1.22149
1.19481
1.16172
1.12088
1.07327
1.02167
0.954908
0.896057
1.26951
1.2456
1.22352
1.19746
1.16432
1.12324
1.07545
1.02466
0.956897
0.895133
1.26841
1.24611
1.22521
1.19949
1.16631
1.12521
1.07735
1.02705
0.958459
0.894649
1.26779
1.24654
1.22628
1.20055
1.16766
1.12669
1.07883
1.02886
0.959645
0.894759
1.26766
1.24678
1.22682
1.20134
1.16844
1.12764
1.07984
1.03004
0.960405
0.893816
1.34097
1.33778
1.3349
1.33151
1.32843
1.32468
1.32046
1.31474
1.30739
1.29743
1.33978
1.33661
1.33365
1.32981
1.32566
1.32064
1.31539
1.30914
1.30173
1.2929
1.33856
1.33559
1.33293
1.32931
1.32522
1.32003
1.31425
1.30759
1.29973
1.29067
1.3368
1.3342
1.33187
1.32864
1.3249
1.32014
1.31454
1.30791
1.30002
1.29088
1.33465
1.33244
1.33037
1.32749
1.32414
1.31987
1.31467
1.30843
1.30087
1.29194
1.33242
1.33049
1.32862
1.32599
1.32292
1.31904
1.31425
1.30852
1.30151
1.29314
1.33041
1.32863
1.32691
1.32445
1.32154
1.31788
1.31341
1.30812
1.30166
1.29393
1.32867
1.32688
1.32527
1.32295
1.32018
1.31668
1.31242
1.30742
1.30142
1.29423
1.32719
1.32527
1.32369
1.32146
1.3188
1.31545
1.31139
1.30659
1.30088
1.29407
1.32595
1.32379
1.32211
1.31991
1.31732
1.31411
1.31021
1.30559
1.30008
1.2935
1.32492
1.32245
1.32056
1.31825
1.31565
1.31254
1.3088
1.30436
1.29898
1.29257
1.32408
1.32131
1.31916
1.31663
1.31389
1.31077
1.30712
1.30288
1.29762
1.29137
1.32342
1.32042
1.31805
1.31526
1.31228
1.30901
1.30533
1.30116
1.29608
1.29
1.32293
1.31978
1.31724
1.31426
1.31105
1.30754
1.30367
1.29941
1.29445
1.28852
1.32258
1.31934
1.31669
1.31358
1.31023
1.30651
1.30241
1.29796
1.29293
1.28698
1.32236
1.31912
1.3164
1.3132
1.30974
1.30588
1.3016
1.29694
1.29174
1.28558
1.32214
1.31898
1.31625
1.31303
1.30948
1.3055
1.30105
1.2962
1.29081
1.2843
1.32201
1.31894
1.31625
1.31304
1.30947
1.30542
1.30088
1.29585
1.29026
1.28341
1.32193
1.31894
1.31629
1.31311
1.30955
1.3055
1.30092
1.29579
1.29005
1.28298
1.32192
1.31899
1.31637
1.31324
1.30972
1.30569
1.30113
1.29596
1.29015
1.28301
1.00165
1.00529
1.00959
1.01488
1.02093
1.02987
1.0513
1.09419
1.29047
1.34564
1.00165
1.00529
1.00959
1.01488
1.02092
1.02989
1.05153
1.09187
1.28677
1.34505
1.00165
1.00529
1.00959
1.01488
1.02092
1.02991
1.05176
1.08972
1.28261
1.34463
1.00165
1.00529
1.00959
1.01488
1.02092
1.02993
1.052
1.08781
1.27835
1.34402
1.00165
1.00529
1.00959
1.01489
1.02091
1.02994
1.05223
1.08624
1.27418
1.34322
1.00165
1.00529
1.00959
1.01489
1.02091
1.02995
1.05245
1.0851
1.27019
1.34237
1.00165
1.00529
1.00958
1.01489
1.02091
1.02995
1.05267
1.08441
1.26643
1.34147
1.00165
1.00529
1.00958
1.01489
1.02091
1.02993
1.05289
1.08396
1.2629
1.34062
1.00165
1.00529
1.00958
1.01489
1.02091
1.02991
1.05311
1.08369
1.25963
1.33981
1.00165
1.00529
1.00958
1.01489
1.02091
1.02988
1.05332
1.08353
1.25664
1.33902
1.00165
1.00529
1.00958
1.01489
1.02091
1.02984
1.05352
1.08344
1.25394
1.3382
1.00165
1.00529
1.00958
1.01489
1.02092
1.0298
1.05373
1.08336
1.25156
1.33737
1.00165
1.00529
1.00958
1.01489
1.02093
1.02975
1.05393
1.08327
1.24954
1.33657
1.00165
1.00529
1.00958
1.01489
1.02094
1.02971
1.05413
1.08313
1.2479
1.33586
1.00165
1.00529
1.00958
1.01489
1.02094
1.02967
1.05429
1.08294
1.24664
1.33523
1.00165
1.00529
1.00958
1.01488
1.02095
1.02963
1.05444
1.08266
1.24575
1.33469
1.00165
1.00529
1.00958
1.01488
1.02096
1.02961
1.05456
1.08234
1.24517
1.33417
1.00165
1.00529
1.00958
1.01488
1.02096
1.02959
1.05467
1.08199
1.24484
1.33379
1.00165
1.00529
1.00958
1.01488
1.02096
1.02959
1.05473
1.08177
1.24454
1.33354
1.00165
1.00529
1.00958
1.01488
1.02096
1.02958
1.05484
1.08156
1.24433
1.33346
1.00165
1.00529
1.00958
1.01488
1.02096
1.02958
1.05484
1.08156
1.24433
1.33346
1.00165
1.00529
1.00958
1.01488
1.02096
1.02959
1.05473
1.08177
1.24454
1.33354
1.00165
1.00529
1.00958
1.01488
1.02096
1.02959
1.05467
1.08199
1.24484
1.33379
1.00165
1.00529
1.00958
1.01488
1.02096
1.02961
1.05456
1.08234
1.24517
1.33417
1.00165
1.00529
1.00958
1.01488
1.02095
1.02963
1.05444
1.08266
1.24575
1.33469
1.00165
1.00529
1.00958
1.01489
1.02094
1.02967
1.05429
1.08294
1.24664
1.33523
1.00165
1.00529
1.00958
1.01489
1.02094
1.02971
1.05413
1.08313
1.2479
1.33586
1.00165
1.00529
1.00958
1.01489
1.02093
1.02975
1.05393
1.08327
1.24954
1.33657
1.00165
1.00529
1.00958
1.01489
1.02092
1.0298
1.05373
1.08336
1.25156
1.33737
1.00165
1.00529
1.00958
1.01489
1.02091
1.02984
1.05352
1.08344
1.25394
1.3382
1.00165
1.00529
1.00958
1.01489
1.02091
1.02988
1.05332
1.08353
1.25664
1.33902
1.00165
1.00529
1.00958
1.01489
1.02091
1.02991
1.05311
1.08369
1.25963
1.33981
1.00165
1.00529
1.00958
1.01489
1.02091
1.02993
1.05289
1.08396
1.2629
1.34062
1.00165
1.00529
1.00958
1.01489
1.02091
1.02995
1.05267
1.08441
1.26643
1.34147
1.00165
1.00529
1.00959
1.01489
1.02091
1.02995
1.05245
1.0851
1.27019
1.34237
1.00165
1.00529
1.00959
1.01489
1.02091
1.02994
1.05223
1.08624
1.27418
1.34322
1.00165
1.00529
1.00959
1.01488
1.02092
1.02993
1.052
1.08781
1.27835
1.34402
1.00165
1.00529
1.00959
1.01488
1.02092
1.02991
1.05176
1.08972
1.28261
1.34463
1.00165
1.00529
1.00959
1.01488
1.02092
1.02989
1.05153
1.09187
1.28677
1.34505
1.00165
1.00529
1.00959
1.01488
1.02093
1.02987
1.0513
1.09419
1.29047
1.34564
1.32192
1.31899
1.31637
1.31324
1.30972
1.30569
1.30113
1.29596
1.29015
1.28301
1.32193
1.31894
1.31628
1.31311
1.30955
1.3055
1.30092
1.29579
1.29005
1.28297
1.32201
1.31894
1.31625
1.31304
1.30947
1.30542
1.30088
1.29585
1.29026
1.28341
1.32214
1.31898
1.31625
1.31303
1.30948
1.3055
1.30105
1.29619
1.29081
1.2843
1.32236
1.31912
1.3164
1.3132
1.30974
1.30588
1.3016
1.29694
1.29174
1.28558
1.32258
1.31934
1.31669
1.31358
1.31022
1.30651
1.30241
1.29796
1.29293
1.28698
1.32293
1.31978
1.31724
1.31426
1.31105
1.30754
1.30367
1.29941
1.29445
1.28852
1.32342
1.32042
1.31805
1.31526
1.31228
1.30901
1.30533
1.30116
1.29608
1.29
1.32408
1.32131
1.31916
1.31663
1.31389
1.31077
1.30712
1.30288
1.29762
1.29137
1.32492
1.32245
1.32056
1.31825
1.31565
1.31254
1.3088
1.30436
1.29898
1.29257
1.32595
1.32379
1.32211
1.31991
1.31732
1.31411
1.31021
1.30559
1.30008
1.2935
1.32719
1.32527
1.32369
1.32146
1.3188
1.31545
1.31139
1.30659
1.30088
1.29407
1.32867
1.32688
1.32527
1.32295
1.32018
1.31668
1.31242
1.30742
1.30142
1.29423
1.33041
1.32863
1.3269
1.32445
1.32154
1.31788
1.31341
1.30812
1.30166
1.29393
1.33242
1.33049
1.32862
1.32599
1.32292
1.31904
1.31426
1.30852
1.30151
1.29314
1.33465
1.33244
1.33037
1.32749
1.32414
1.31987
1.31467
1.30843
1.30087
1.29194
1.3368
1.3342
1.33187
1.32864
1.3249
1.32014
1.31454
1.30791
1.30002
1.29088
1.33856
1.33559
1.33293
1.32931
1.32522
1.32003
1.31425
1.30759
1.29973
1.29067
1.33978
1.33662
1.33365
1.32981
1.32566
1.32064
1.31539
1.30914
1.30174
1.2929
1.34097
1.33778
1.3349
1.33151
1.32843
1.32468
1.32046
1.31474
1.30739
1.29743
)
;

boundaryField
{
    inlet
    {
        type            fixedValue;
        value           uniform 1;
    }
    outlet
    {
        type            inletOutlet;
        inletValue      uniform 1;
        value           nonuniform List<scalar> 
100
(
1.06137
1.05302
1.04367
1.03336
1.02095
1.00632
0.988835
0.969814
0.951912
0.936167
0.92192
0.911014
0.904315
0.90018
0.897614
0.895962
0.895017
0.894519
0.894631
0.893662
1.10314
1.10054
1.09742
1.09451
1.09214
1.08994
1.0877
1.08461
1.08146
1.07878
1.07657
1.07468
1.07312
1.07185
1.07046
1.06906
1.06828
1.06833
1.06804
1.06643
1.1088
1.11913
1.12953
1.14809
1.18863
1.23594
1.27659
1.29786
1.30545
1.31444
1.31673
1.31821
1.3016
1.26993
1.23039
1.18795
1.15875
1.13079
1.11121
1.1042
1.06649
1.06802
1.06834
1.06826
1.06904
1.07062
1.07201
1.07299
1.07439
1.0765
1.07919
1.08197
1.08389
1.08673
1.08995
1.09347
1.09621
1.09685
1.09719
1.10056
0.89366
0.894628
0.89452
0.89502
0.895969
0.897624
0.90019
0.904321
0.911012
0.92191
0.936155
0.951904
0.969823
0.988868
1.00637
1.02098
1.03338
1.04363
1.05305
1.0613
)
;
    }
    triangle
    {
        type            zeroGradient;
    }
    top
    {
        type            symmetryPlane;
    }
    bottom
    {
        type            symmetryPlane;
    }
    defaultFaces
    {
        type            empty;
    }
}


// ************************************************************************* //
