/*--------------------------------*- C++ -*----------------------------------*\
  =========                 |
  \\      /  F ield         | OpenFOAM: The Open Source CFD Toolbox
   \\    /   O peration     | Website:  https://openfoam.org
    \\  /    A nd           | Version:  8
     \\/     M anipulation  |
\*---------------------------------------------------------------------------*/
FoamFile
{
    version     2.0;
    format      ascii;
    class       volVectorField;
    location    "1.9";
    object      U;
}
// * * * * * * * * * * * * * * * * * * * * * * * * * * * * * * * * * * * * * //

dimensions      [0 1 -1 0 0 0 0];

internalField   nonuniform List<vector> 
2600
(
(0.638918 0.036445 0)
(1.13809 0.123704 0)
(1.41341 0.249299 0)
(1.52145 0.306554 0)
(1.51555 0.247993 0)
(1.45717 0.160385 0)
(1.41271 0.106529 0)
(1.34789 0.0579272 0)
(1.34984 0.0187699 0)
(1.34054 -0.0168283 0)
(0.208783 -0.138552 0)
(0.760018 0.0913076 0)
(1.22964 0.223334 0)
(1.45319 0.286196 0)
(1.49016 0.232905 0)
(1.44896 0.138483 0)
(1.40888 0.101262 0)
(1.34746 0.0578097 0)
(1.34929 0.0123452 0)
(1.33717 -0.0222102 0)
(0.0207611 -0.129746 0)
(0.404855 0.0302855 0)
(0.955867 0.172867 0)
(1.32635 0.242507 0)
(1.43739 0.211697 0)
(1.42317 0.123821 0)
(1.39927 0.0855289 0)
(1.34324 0.0483355 0)
(1.34492 0.0101032 0)
(1.32817 -0.00898852 0)
(-0.055032 -0.149111 0)
(0.157547 -0.0159452 0)
(0.645971 0.120315 0)
(1.12162 0.203368 0)
(1.33614 0.183373 0)
(1.3686 0.121734 0)
(1.3679 0.0754756 0)
(1.32503 0.0365279 0)
(1.32637 0.0265704 0)
(1.29782 0.00877751 0)
(-0.106165 -0.139533 0)
(-0.00853292 -0.0500626 0)
(0.34727 0.0547562 0)
(0.840326 0.152223 0)
(1.16095 0.15351 0)
(1.25447 0.114347 0)
(1.28936 0.0957459 0)
(1.27005 0.0493769 0)
(1.26504 0.0251688 0)
(1.22344 -0.0108347 0)
(-0.150698 -0.139515 0)
(-0.142708 -0.0567233 0)
(0.0630551 0.00990321 0)
(0.487564 0.0963166 0)
(0.877209 0.121158 0)
(1.03857 0.0775488 0)
(1.11891 0.0753049 0)
(1.14537 0.0541064 0)
(1.14279 0.00404006 0)
(1.09963 -0.0147548 0)
(-0.190207 -0.126295 0)
(-0.263157 -0.0614814 0)
(-0.195072 -0.00847341 0)
(0.0990621 0.0566855 0)
(0.486257 0.0916918 0)
(0.701428 0.0807244 0)
(0.84392 0.0625455 0)
(0.935268 0.046122 0)
(0.964381 0.0216793 0)
(0.944051 0.0055897 0)
(-0.221402 -0.10049 0)
(-0.365963 -0.0473675 0)
(-0.395397 -0.00587094 0)
(-0.240641 0.0292852 0)
(0.0840343 0.0584349 0)
(0.32523 0.0460901 0)
(0.527226 0.0368647 0)
(0.687046 0.0331094 0)
(0.776874 0.0269346 0)
(0.798731 0.000395739 0)
(-0.241422 -0.0640223 0)
(-0.434567 -0.0370188 0)
(-0.510103 -0.0114571 0)
(-0.448064 0.0104197 0)
(-0.190709 0.0328901 0)
(0.0542857 0.0299565 0)
(0.294214 0.0350061 0)
(0.503692 0.0344461 0)
(0.647654 0.00751926 0)
(0.711733 -0.00555984 0)
(-0.254073 -0.0223248 0)
(-0.463222 -0.0130474 0)
(-0.550751 -0.00529932 0)
(-0.514377 0.00310205 0)
(-0.288117 0.0125187 0)
(-0.0440885 0.0126653 0)
(0.205875 0.026467 0)
(0.433642 0.00605949 0)
(0.602064 0.00804557 0)
(0.685707 0.00695272 0)
(-0.253941 0.0223753 0)
(-0.463164 0.0136728 0)
(-0.550463 0.00651531 0)
(-0.514187 -0.0033434 0)
(-0.288036 -0.0154955 0)
(-0.0441411 -0.0129387 0)
(0.204411 -0.00545501 0)
(0.435495 -0.0206691 0)
(0.601788 -0.00797862 0)
(0.683607 0.0049977 0)
(-0.240996 0.0642498 0)
(-0.433917 0.0373723 0)
(-0.510124 0.0114928 0)
(-0.446738 -0.0105162 0)
(-0.189327 -0.0357983 0)
(0.0525898 -0.0314636 0)
(0.2907 -0.0367292 0)
(0.503056 -0.0212423 0)
(0.650125 -0.019262 0)
(0.712373 -0.00541637 0)
(-0.220895 0.100712 0)
(-0.365046 0.0473171 0)
(-0.394421 0.00629895 0)
(-0.237767 -0.0305329 0)
(0.0875725 -0.0624672 0)
(0.32046 -0.0433632 0)
(0.520248 -0.0499001 0)
(0.688903 -0.0398744 0)
(0.781427 -0.0125379 0)
(0.800158 -0.00528024 0)
(-0.189645 0.126679 0)
(-0.262321 0.0616499 0)
(-0.193567 0.00831602 0)
(0.102869 -0.0561345 0)
(0.490719 -0.094071 0)
(0.69453 -0.0829058 0)
(0.837455 -0.0684392 0)
(0.93604 -0.0373284 0)
(0.970357 -0.0136809 0)
(0.944145 0.00807026 0)
(-0.150373 0.140736 0)
(-0.142068 0.0580124 0)
(0.0644304 -0.00822045 0)
(0.490985 -0.0969484 0)
(0.880954 -0.122511 0)
(1.03232 -0.0801649 0)
(1.11392 -0.0591329 0)
(1.14729 -0.0324381 0)
(1.14705 -0.0284413 0)
(1.10214 -0.0108572 0)
(-0.106005 0.140395 0)
(-0.00825173 0.0505645 0)
(0.34806 -0.0557856 0)
(0.842766 -0.153213 0)
(1.16318 -0.155696 0)
(1.25035 -0.108394 0)
(1.28519 -0.0872837 0)
(1.27494 -0.0688339 0)
(1.26747 -0.0327605 0)
(1.22374 -0.0012508 0)
(-0.0549834 0.149658 0)
(0.157862 0.0164582 0)
(0.646974 -0.11973 0)
(1.12315 -0.204468 0)
(1.33732 -0.184109 0)
(1.36562 -0.117404 0)
(1.36966 -0.0929539 0)
(1.32874 -0.0523911 0)
(1.32478 -0.00786073 0)
(1.29356 0.0250719 0)
(0.0206692 0.129392 0)
(0.40471 -0.0319528 0)
(0.956508 -0.174773 0)
(1.32731 -0.244211 0)
(1.43775 -0.211442 0)
(1.42067 -0.128163 0)
(1.40105 -0.0813467 0)
(1.34346 -0.036715 0)
(1.34469 -0.00654797 0)
(1.32674 0.0167404 0)
(0.208682 0.13633 0)
(0.760242 -0.0909394 0)
(1.23052 -0.223197 0)
(1.45398 -0.28713 0)
(1.49007 -0.233749 0)
(1.44765 -0.137278 0)
(1.41152 -0.0911739 0)
(1.34743 -0.0461257 0)
(1.34887 -0.0187805 0)
(1.33764 0.00276095 0)
(0.638567 -0.0360908 0)
(1.13818 -0.12401 0)
(1.41379 -0.249514 0)
(1.52195 -0.307449 0)
(1.51545 -0.249225 0)
(1.45597 -0.15832 0)
(1.41338 -0.102698 0)
(1.34688 -0.0570777 0)
(1.35011 -0.0279143 0)
(1.34051 0.00394684 0)
(1.18641 0.0326124 0)
(1.40695 -0.151018 0)
(1.51236 -0.270693 0)
(1.55443 -0.327205 0)
(1.52725 -0.27171 0)
(1.45964 -0.175757 0)
(1.41518 -0.112118 0)
(1.34664 -0.0637835 0)
(1.35053 -0.0259578 0)
(1.3416 0.0135619 0)
(1.33966 0.132965 0)
(1.526 -0.141386 0)
(1.56257 -0.264216 0)
(1.57219 -0.332245 0)
(1.53735 -0.291199 0)
(1.47045 -0.195135 0)
(1.41939 -0.118324 0)
(1.34685 -0.0600714 0)
(1.35179 -0.0193344 0)
(1.34352 0.0170709 0)
(1.35298 0.162916 0)
(1.55179 -0.134164 0)
(1.57773 -0.266345 0)
(1.5743 -0.335881 0)
(1.54443 -0.308259 0)
(1.48374 -0.214323 0)
(1.42763 -0.122547 0)
(1.34819 -0.0568898 0)
(1.35427 -0.017752 0)
(1.34578 0.0171783 0)
(1.32066 0.186929 0)
(1.53406 -0.0959258 0)
(1.5798 -0.252977 0)
(1.57059 -0.332702 0)
(1.54988 -0.325292 0)
(1.49578 -0.235175 0)
(1.43667 -0.129052 0)
(1.35118 -0.0581312 0)
(1.35756 -0.0202703 0)
(1.34876 0.0158854 0)
(1.28986 0.194943 0)
(1.50777 -0.0744794 0)
(1.57132 -0.241818 0)
(1.56526 -0.32937 0)
(1.55031 -0.338706 0)
(1.50725 -0.260567 0)
(1.44429 -0.139653 0)
(1.35614 -0.0655949 0)
(1.36033 -0.0260182 0)
(1.35164 0.0158758 0)
(1.26188 0.198168 0)
(1.47601 -0.0422745 0)
(1.55741 -0.220647 0)
(1.55871 -0.32709 0)
(1.55247 -0.345925 0)
(1.52096 -0.28771 0)
(1.45083 -0.156287 0)
(1.36155 -0.0712371 0)
(1.36297 -0.0278869 0)
(1.35509 0.017571 0)
(1.23495 0.200292 0)
(1.44985 -0.0242523 0)
(1.53983 -0.199042 0)
(1.55272 -0.314771 0)
(1.55217 -0.349145 0)
(1.52905 -0.30863 0)
(1.45842 -0.174744 0)
(1.36794 -0.0734614 0)
(1.3663 -0.0268666 0)
(1.35855 0.0203514 0)
(1.21096 0.198327 0)
(1.42124 -0.00188684 0)
(1.51782 -0.175919 0)
(1.54818 -0.300131 0)
(1.54852 -0.350368 0)
(1.53502 -0.326344 0)
(1.46915 -0.193546 0)
(1.37582 -0.0772227 0)
(1.3692 -0.0265897 0)
(1.36104 0.0228279 0)
(1.18905 0.195973 0)
(1.39515 0.0143329 0)
(1.49947 -0.160179 0)
(1.54069 -0.289214 0)
(1.54612 -0.349921 0)
(1.53851 -0.339493 0)
(1.48161 -0.214108 0)
(1.38275 -0.0836882 0)
(1.37191 -0.027943 0)
(1.36362 0.0240035 0)
(1.16993 0.191946 0)
(1.36806 0.0302049 0)
(1.47804 -0.134916 0)
(1.53074 -0.276256 0)
(1.54318 -0.349096 0)
(1.54063 -0.349707 0)
(1.4947 -0.238704 0)
(1.38955 -0.0945748 0)
(1.37457 -0.0305682 0)
(1.36627 0.0254074 0)
(1.15364 0.187823 0)
(1.34433 0.0409899 0)
(1.45875 -0.115924 0)
(1.51952 -0.25654 0)
(1.53964 -0.349501 0)
(1.54224 -0.355881 0)
(1.5069 -0.263511 0)
(1.39881 -0.107549 0)
(1.37783 -0.0334664 0)
(1.36911 0.0268132 0)
(1.14032 0.183753 0)
(1.32273 0.0507438 0)
(1.43848 -0.0972096 0)
(1.5043 -0.23304 0)
(1.53715 -0.341277 0)
(1.5427 -0.360462 0)
(1.51756 -0.284957 0)
(1.41269 -0.119945 0)
(1.38266 -0.0352038 0)
(1.37251 0.0281312 0)
(1.12951 0.180016 0)
(1.30316 0.0595341 0)
(1.42219 -0.0839207 0)
(1.49124 -0.216821 0)
(1.53423 -0.329074 0)
(1.542 -0.362204 0)
(1.52679 -0.30257 0)
(1.4324 -0.134131 0)
(1.38893 -0.0363803 0)
(1.3761 0.0300457 0)
(1.11986 0.175944 0)
(1.28597 0.0660588 0)
(1.40468 -0.0676872 0)
(1.47914 -0.200796 0)
(1.52695 -0.31301 0)
(1.54172 -0.364306 0)
(1.536 -0.318067 0)
(1.45485 -0.152516 0)
(1.39593 -0.0382659 0)
(1.3795 0.0327812 0)
(1.11239 0.172321 0)
(1.27056 0.0712571 0)
(1.38926 -0.0554283 0)
(1.46751 -0.183283 0)
(1.52153 -0.302493 0)
(1.53901 -0.365105 0)
(1.54502 -0.329417 0)
(1.476 -0.175874 0)
(1.40245 -0.0423748 0)
(1.38239 0.0348631 0)
(1.1055 0.168269 0)
(1.25691 0.0752324 0)
(1.3745 -0.0441679 0)
(1.45513 -0.165881 0)
(1.5128 -0.282484 0)
(1.53618 -0.361068 0)
(1.55479 -0.339433 0)
(1.49149 -0.199129 0)
(1.40854 -0.0478556 0)
(1.38597 0.0359375 0)
(1.10001 0.164269 0)
(1.24455 0.0786818 0)
(1.36153 -0.0341526 0)
(1.4445 -0.152392 0)
(1.50458 -0.265981 0)
(1.53774 -0.355997 0)
(1.55984 -0.344875 0)
(1.50431 -0.220906 0)
(1.41691 -0.05398 0)
(1.39064 0.0363993 0)
(1.09624 0.160622 0)
(1.23428 0.081271 0)
(1.34982 -0.024733 0)
(1.43408 -0.138571 0)
(1.49469 -0.248722 0)
(1.53948 -0.346179 0)
(1.55905 -0.34737 0)
(1.51643 -0.240592 0)
(1.4292 -0.0602405 0)
(1.39643 0.0378983 0)
(1.09141 0.156369 0)
(1.22505 0.0833849 0)
(1.33844 -0.0157342 0)
(1.42448 -0.12613 0)
(1.4869 -0.234926 0)
(1.53767 -0.335979 0)
(1.55826 -0.350173 0)
(1.52824 -0.260038 0)
(1.4492 -0.0703533 0)
(1.40151 0.0384475 0)
(1.08539 0.152129 0)
(1.21569 0.085361 0)
(1.3282 -0.00858935 0)
(1.41319 -0.113032 0)
(1.47816 -0.2196 0)
(1.5325 -0.32271 0)
(1.5572 -0.350494 0)
(1.53821 -0.277318 0)
(1.46996 -0.0832198 0)
(1.40476 0.0390804 0)
(0.375902 0.129598 0)
(0.444943 0.161511 0)
(0.484768 0.213312 0)
(0.529225 0.251819 0)
(0.569112 0.285184 0)
(0.609752 0.313208 0)
(0.653691 0.340951 0)
(0.708094 0.368526 0)
(0.782187 0.406077 0)
(0.916208 0.443441 0)
(0.405142 0.154625 0)
(0.457003 0.174837 0)
(0.485366 0.215322 0)
(0.526469 0.249666 0)
(0.565164 0.282622 0)
(0.606854 0.310764 0)
(0.651789 0.338483 0)
(0.707487 0.366218 0)
(0.783293 0.402129 0)
(0.914561 0.430228 0)
(0.456759 0.147472 0)
(0.495912 0.160922 0)
(0.513445 0.192618 0)
(0.546168 0.223904 0)
(0.578163 0.25785 0)
(0.617853 0.287704 0)
(0.66349 0.317965 0)
(0.721905 0.346746 0)
(0.802558 0.382751 0)
(0.939461 0.398393 0)
(0.50726 0.155145 0)
(0.539917 0.173329 0)
(0.551321 0.202702 0)
(0.579902 0.226569 0)
(0.606376 0.254154 0)
(0.642156 0.279031 0)
(0.68387 0.306323 0)
(0.738891 0.331444 0)
(0.817431 0.362513 0)
(0.949637 0.368911 0)
(0.551656 0.153234 0)
(0.579283 0.170766 0)
(0.588697 0.198571 0)
(0.615204 0.221423 0)
(0.63778 0.248626 0)
(0.671261 0.272095 0)
(0.710639 0.298106 0)
(0.764705 0.320524 0)
(0.843029 0.348473 0)
(0.970141 0.346793 0)
(0.589542 0.154915 0)
(0.612143 0.171942 0)
(0.619821 0.19781 0)
(0.644291 0.218697 0)
(0.664743 0.244073 0)
(0.697175 0.264977 0)
(0.735023 0.289221 0)
(0.787877 0.30837 0)
(0.863543 0.332087 0)
(0.982285 0.327546 0)
(0.621249 0.155576 0)
(0.639267 0.170706 0)
(0.645463 0.193044 0)
(0.667424 0.211332 0)
(0.685806 0.234789 0)
(0.717014 0.253842 0)
(0.753346 0.276799 0)
(0.804855 0.293789 0)
(0.876701 0.313872 0)
(0.986999 0.309019 0)
(0.647821 0.157526 0)
(0.663193 0.170732 0)
(0.66921 0.190597 0)
(0.689406 0.207154 0)
(0.706584 0.228589 0)
(0.736527 0.245135 0)
(0.771057 0.266011 0)
(0.82046 0.280595 0)
(0.887677 0.296926 0)
(0.988463 0.291431 0)
(0.674372 0.157671 0)
(0.68704 0.169316 0)
(0.692007 0.186538 0)
(0.709653 0.201135 0)
(0.725471 0.220395 0)
(0.753918 0.235002 0)
(0.78674 0.254304 0)
(0.834217 0.267453 0)
(0.897409 0.281138 0)
(0.989016 0.275632 0)
(0.699324 0.161288 0)
(0.71013 0.171576 0)
(0.714833 0.186203 0)
(0.730692 0.198108 0)
(0.745573 0.214603 0)
(0.772044 0.22666 0)
(0.802427 0.243541 0)
(0.846887 0.254891 0)
(0.904925 0.265977 0)
(0.988108 0.261179 0)
(0.721053 0.1636 0)
(0.73053 0.171891 0)
(0.735486 0.184224 0)
(0.750568 0.194272 0)
(0.765233 0.208946 0)
(0.790322 0.219509 0)
(0.818869 0.234498 0)
(0.860346 0.244396 0)
(0.91347 0.253413 0)
(0.988101 0.248416 0)
(0.739213 0.164265 0)
(0.748185 0.170482 0)
(0.753855 0.180873 0)
(0.768554 0.189448 0)
(0.782992 0.202543 0)
(0.806796 0.212166 0)
(0.83388 0.225779 0)
(0.873034 0.234739 0)
(0.92212 0.242074 0)
(0.989587 0.237354 0)
(0.755001 0.163126 0)
(0.764707 0.167751 0)
(0.771437 0.176893 0)
(0.785827 0.184821 0)
(0.799807 0.196654 0)
(0.821951 0.205262 0)
(0.847244 0.217099 0)
(0.883776 0.225008 0)
(0.929211 0.231214 0)
(0.990804 0.227217 0)
(0.771602 0.1595 0)
(0.782741 0.163567 0)
(0.789659 0.171956 0)
(0.802833 0.179684 0)
(0.815875 0.190755 0)
(0.836524 0.198995 0)
(0.860434 0.209612 0)
(0.894448 0.216585 0)
(0.936264 0.221641 0)
(0.991484 0.217877 0)
(0.788444 0.156252 0)
(0.801464 0.161872 0)
(0.808658 0.170972 0)
(0.821016 0.177974 0)
(0.832867 0.187112 0)
(0.850925 0.193317 0)
(0.872193 0.201805 0)
(0.903102 0.207786 0)
(0.942066 0.212457 0)
(0.993499 0.209603 0)
(0.800862 0.1502 0)
(0.81416 0.156243 0)
(0.822105 0.165234 0)
(0.835148 0.17284 0)
(0.84748 0.182642 0)
(0.865195 0.189429 0)
(0.885649 0.196819 0)
(0.913826 0.201206 0)
(0.948603 0.204196 0)
(0.994132 0.20141 0)
(0.80993 0.144388 0)
(0.822032 0.150536 0)
(0.829129 0.158685 0)
(0.841645 0.165164 0)
(0.855205 0.174427 0)
(0.874511 0.181511 0)
(0.895683 0.189593 0)
(0.923094 0.194865 0)
(0.95604 0.197833 0)
(0.997592 0.19514 0)
(0.815842 0.13972 0)
(0.826689 0.145351 0)
(0.834046 0.153531 0)
(0.84717 0.159962 0)
(0.860372 0.1675 0)
(0.877695 0.173521 0)
(0.897627 0.180387 0)
(0.925169 0.185631 0)
(0.958586 0.189565 0)
(0.999569 0.188602 0)
(0.820551 0.132255 0)
(0.82997 0.137215 0)
(0.83809 0.145291 0)
(0.851843 0.152021 0)
(0.864735 0.160428 0)
(0.88187 0.167301 0)
(0.901656 0.173458 0)
(0.926937 0.17743 0)
(0.957274 0.180992 0)
(0.99703 0.18126 0)
(0.827436 0.126367 0)
(0.83565 0.129945 0)
(0.842199 0.135954 0)
(0.853586 0.142632 0)
(0.866567 0.151575 0)
(0.884666 0.159022 0)
(0.905128 0.16524 0)
(0.929883 0.170132 0)
(0.9585 0.173026 0)
(0.99539 0.17337 0)
(1.69471 -5.25886e-07 0)
(1.67971 1.96338e-06 0)
(1.66247 -6.28241e-06 0)
(1.6424 1.25936e-05 0)
(1.61945 -2.68502e-05 0)
(1.5901 7.05619e-05 0)
(1.52801 -0.000237814 0)
(1.38474 0.000508711 0)
(0.837213 0.00428715 0)
(0.472304 0.0134882 0)
(1.69471 -1.51834e-06 0)
(1.67971 5.59744e-06 0)
(1.66247 -1.77425e-05 0)
(1.6424 3.54628e-05 0)
(1.61945 -7.60073e-05 0)
(1.59011 0.000206725 0)
(1.5281 -0.000712167 0)
(1.38445 0.00157495 0)
(0.840992 0.0124255 0)
(0.495068 0.038877 0)
(1.69471 -2.50128e-06 0)
(1.67971 9.22648e-06 0)
(1.66247 -2.91165e-05 0)
(1.6424 5.8183e-05 0)
(1.61947 -0.000124095 0)
(1.59012 0.000341044 0)
(1.52821 -0.00119516 0)
(1.38457 0.0027571 0)
(0.846101 0.0192656 0)
(0.527162 0.057287 0)
(1.69471 -3.45835e-06 0)
(1.67971 1.27697e-05 0)
(1.66248 -4.00713e-05 0)
(1.6424 8.01777e-05 0)
(1.6195 -0.000170305 0)
(1.59013 0.000473287 0)
(1.52839 -0.00167949 0)
(1.38486 0.00398255 0)
(0.850672 0.0258039 0)
(0.557866 0.0749277 0)
(1.69471 -4.3771e-06 0)
(1.67971 1.61924e-05 0)
(1.66248 -5.04524e-05 0)
(1.64239 0.00010115 0)
(1.61953 -0.000213665 0)
(1.59015 0.000601911 0)
(1.52863 -0.00216977 0)
(1.38545 0.00528648 0)
(0.855874 0.0315611 0)
(0.587508 0.086728 0)
(1.69471 -5.24808e-06 0)
(1.67971 1.94592e-05 0)
(1.66249 -6.01345e-05 0)
(1.64239 0.000120917 0)
(1.61956 -0.000253719 0)
(1.59017 0.000726293 0)
(1.52892 -0.00266671 0)
(1.38643 0.00662748 0)
(0.861352 0.0368403 0)
(0.61419 0.0972958 0)
(1.69471 -6.06292e-06 0)
(1.67971 2.25391e-05 0)
(1.66249 -6.90209e-05 0)
(1.64239 0.000139325 0)
(1.6196 -0.000290151 0)
(1.59019 0.000845821 0)
(1.52924 -0.00316729 0)
(1.38778 0.00795151 0)
(0.867402 0.0414136 0)
(0.639687 0.104171 0)
(1.69471 -6.81505e-06 0)
(1.67971 2.54056e-05 0)
(1.6625 -7.70505e-05 0)
(1.64238 0.000156277 0)
(1.61964 -0.000322789 0)
(1.59021 0.000959983 0)
(1.52958 -0.00366501 0)
(1.3894 0.00922531 0)
(0.873587 0.0453195 0)
(0.663612 0.110591 0)
(1.69471 -7.49986e-06 0)
(1.67971 2.80381e-05 0)
(1.6625 -8.41963e-05 0)
(1.64238 0.000171725 0)
(1.61967 -0.000351613 0)
(1.59024 0.00106842 0)
(1.52991 -0.00415143 0)
(1.39125 0.010436 0)
(0.879743 0.0485606 0)
(0.685363 0.115656 0)
(1.69471 -8.11488e-06 0)
(1.67971 3.04233e-05 0)
(1.66251 -9.04621e-05 0)
(1.64238 0.00018566 0)
(1.61971 -0.000376719 0)
(1.59027 0.00117096 0)
(1.53019 -0.00461613 0)
(1.39339 0.0115714 0)
(0.885752 0.0510614 0)
(0.704978 0.119435 0)
(1.69471 -8.65963e-06 0)
(1.6797 3.25549e-05 0)
(1.66252 -9.58765e-05 0)
(1.64237 0.000198105 0)
(1.61974 -0.000398286 0)
(1.5903 0.00126738 0)
(1.53039 -0.00504733 0)
(1.39579 0.0126173 0)
(0.891504 0.0530181 0)
(0.72289 0.122017 0)
(1.69471 -9.13534e-06 0)
(1.6797 3.44335e-05 0)
(1.66252 -0.000100485 0)
(1.64237 0.000209101 0)
(1.61978 -0.000416532 0)
(1.59033 0.00135814 0)
(1.53051 -0.00543003 0)
(1.39848 0.0135658 0)
(0.897212 0.0545541 0)
(0.739288 0.123722 0)
(1.69471 -9.54449e-06 0)
(1.6797 3.60652e-05 0)
(1.66252 -0.000104344 0)
(1.64236 0.000218702 0)
(1.6198 -0.00043162 0)
(1.59036 0.00144203 0)
(1.53055 -0.00573923 0)
(1.40147 0.0144025 0)
(0.903131 0.0556179 0)
(0.753886 0.124742 0)
(1.69471 -9.89033e-06 0)
(1.6797 3.746e-05 0)
(1.66253 -0.000107514 0)
(1.64236 0.000226973 0)
(1.61983 -0.000443712 0)
(1.59038 0.00151812 0)
(1.53048 -0.00600056 0)
(1.40475 0.0151037 0)
(0.909309 0.0561796 0)
(0.765613 0.124919 0)
(1.69471 -1.01763e-05 0)
(1.6797 3.8631e-05 0)
(1.66253 -0.000110053 0)
(1.64236 0.000233982 0)
(1.61985 -0.000453018 0)
(1.59041 0.00158578 0)
(1.53027 -0.0061892 0)
(1.40845 0.0156531 0)
(0.9158 0.0564527 0)
(0.774054 0.124026 0)
(1.69471 -1.04059e-05 0)
(1.6797 3.95911e-05 0)
(1.66254 -0.000112016 0)
(1.64235 0.00023979 0)
(1.61987 -0.000459756 0)
(1.59043 0.00164426 0)
(1.52992 -0.00629009 0)
(1.41265 0.0159433 0)
(0.922655 0.0566023 0)
(0.780494 0.1214 0)
(1.69471 -1.05821e-05 0)
(1.6797 4.03543e-05 0)
(1.66254 -0.000113456 0)
(1.64235 0.000244465 0)
(1.61989 -0.000464001 0)
(1.59044 0.00169196 0)
(1.52944 -0.00629892 0)
(1.41722 0.0157976 0)
(0.929659 0.0567323 0)
(0.787245 0.119138 0)
(1.69472 -1.07084e-05 0)
(1.6797 4.09313e-05 0)
(1.66254 -0.000114416 0)
(1.64234 0.000248089 0)
(1.6199 -0.000465461 0)
(1.59046 0.001728 0)
(1.52887 -0.00624928 0)
(1.42186 0.0153241 0)
(0.936622 0.0568148 0)
(0.794509 0.116305 0)
(1.69472 -1.07881e-05 0)
(1.6797 4.13275e-05 0)
(1.66254 -0.000114909 0)
(1.64234 0.000250663 0)
(1.61991 -0.000464481 0)
(1.59046 0.00175031 0)
(1.52825 -0.00612686 0)
(1.42626 0.0145585 0)
(0.943399 0.0569768 0)
(0.802731 0.11453 0)
(1.69472 -1.0824e-05 0)
(1.6797 4.15757e-05 0)
(1.66254 -0.000114966 0)
(1.64234 0.000252305 0)
(1.61991 -0.000461798 0)
(1.59046 0.00175968 0)
(1.52758 -0.00594919 0)
(1.43026 0.0135651 0)
(0.949906 0.0572273 0)
(0.810741 0.112315 0)
(1.69472 1.0824e-05 0)
(1.6797 -4.15757e-05 0)
(1.66254 0.000114966 0)
(1.64234 -0.000252305 0)
(1.61991 0.000461798 0)
(1.59046 -0.00175968 0)
(1.52758 0.00594919 0)
(1.43026 -0.0135651 0)
(0.949906 -0.0572272 0)
(0.810742 -0.112315 0)
(1.69472 1.07881e-05 0)
(1.6797 -4.13276e-05 0)
(1.66254 0.000114909 0)
(1.64234 -0.000250663 0)
(1.61991 0.000464481 0)
(1.59046 -0.00175031 0)
(1.52825 0.00612686 0)
(1.42626 -0.0145585 0)
(0.943399 -0.0569766 0)
(0.802732 -0.11453 0)
(1.69472 1.07084e-05 0)
(1.6797 -4.09313e-05 0)
(1.66254 0.000114417 0)
(1.64234 -0.000248089 0)
(1.6199 0.000465461 0)
(1.59046 -0.001728 0)
(1.52887 0.00624929 0)
(1.42186 -0.015324 0)
(0.936622 -0.0568147 0)
(0.794508 -0.116305 0)
(1.69471 1.05821e-05 0)
(1.6797 -4.03543e-05 0)
(1.66254 0.000113456 0)
(1.64235 -0.000244465 0)
(1.61989 0.000464001 0)
(1.59044 -0.00169196 0)
(1.52944 0.00629893 0)
(1.41722 -0.0157976 0)
(0.929659 -0.0567322 0)
(0.787245 -0.119139 0)
(1.69471 1.04059e-05 0)
(1.6797 -3.95912e-05 0)
(1.66254 0.000112016 0)
(1.64235 -0.00023979 0)
(1.61987 0.000459756 0)
(1.59043 -0.00164426 0)
(1.52992 0.00629009 0)
(1.41265 -0.0159433 0)
(0.922656 -0.0566022 0)
(0.780494 -0.121401 0)
(1.69471 1.01763e-05 0)
(1.6797 -3.8631e-05 0)
(1.66253 0.000110053 0)
(1.64236 -0.000233982 0)
(1.61985 0.000453018 0)
(1.59041 -0.00158578 0)
(1.53027 0.0061892 0)
(1.40845 -0.0156531 0)
(0.915801 -0.0564526 0)
(0.774054 -0.124026 0)
(1.69471 9.89034e-06 0)
(1.6797 -3.746e-05 0)
(1.66253 0.000107514 0)
(1.64236 -0.000226973 0)
(1.61983 0.000443712 0)
(1.59038 -0.00151812 0)
(1.53048 0.00600056 0)
(1.40475 -0.0151037 0)
(0.909309 -0.0561795 0)
(0.765613 -0.124919 0)
(1.69471 9.5445e-06 0)
(1.6797 -3.60652e-05 0)
(1.66252 0.000104344 0)
(1.64236 -0.000218702 0)
(1.6198 0.00043162 0)
(1.59036 -0.00144203 0)
(1.53055 0.00573923 0)
(1.40147 -0.0144025 0)
(0.903132 -0.0556179 0)
(0.753886 -0.124742 0)
(1.69471 9.13534e-06 0)
(1.6797 -3.44336e-05 0)
(1.66252 0.000100485 0)
(1.64237 -0.000209101 0)
(1.61978 0.000416532 0)
(1.59033 -0.00135814 0)
(1.53051 0.00543003 0)
(1.39848 -0.0135658 0)
(0.897212 -0.0545541 0)
(0.739288 -0.123723 0)
(1.69471 8.65963e-06 0)
(1.6797 -3.25549e-05 0)
(1.66252 9.58765e-05 0)
(1.64237 -0.000198105 0)
(1.61974 0.000398286 0)
(1.5903 -0.00126738 0)
(1.53039 0.00504733 0)
(1.39579 -0.0126173 0)
(0.891504 -0.0530181 0)
(0.722889 -0.122017 0)
(1.69471 8.11488e-06 0)
(1.67971 -3.04233e-05 0)
(1.66251 9.04621e-05 0)
(1.64238 -0.00018566 0)
(1.61971 0.000376719 0)
(1.59027 -0.00117096 0)
(1.53019 0.00461612 0)
(1.39339 -0.0115714 0)
(0.885752 -0.0510616 0)
(0.704977 -0.119435 0)
(1.69471 7.49986e-06 0)
(1.67971 -2.80381e-05 0)
(1.6625 8.41963e-05 0)
(1.64238 -0.000171725 0)
(1.61967 0.000351613 0)
(1.59024 -0.00106841 0)
(1.52991 0.00415142 0)
(1.39125 -0.010436 0)
(0.879743 -0.0485608 0)
(0.685362 -0.115656 0)
(1.69471 6.81505e-06 0)
(1.67971 -2.54056e-05 0)
(1.6625 7.70505e-05 0)
(1.64238 -0.000156277 0)
(1.61964 0.000322789 0)
(1.59021 -0.00095998 0)
(1.52958 0.003665 0)
(1.3894 -0.00922531 0)
(0.873587 -0.0453196 0)
(0.663612 -0.110592 0)
(1.69471 6.06293e-06 0)
(1.67971 -2.25391e-05 0)
(1.66249 6.90209e-05 0)
(1.64239 -0.000139325 0)
(1.6196 0.00029015 0)
(1.59019 -0.000845818 0)
(1.52924 0.00316728 0)
(1.38778 -0.0079515 0)
(0.867402 -0.0414138 0)
(0.639686 -0.104171 0)
(1.69471 5.24808e-06 0)
(1.67971 -1.94592e-05 0)
(1.66249 6.01345e-05 0)
(1.64239 -0.000120917 0)
(1.61956 0.000253718 0)
(1.59017 -0.00072629 0)
(1.52892 0.0026667 0)
(1.38643 -0.00662748 0)
(0.861352 -0.0368404 0)
(0.61419 -0.097296 0)
(1.69471 4.37711e-06 0)
(1.67971 -1.61923e-05 0)
(1.66248 5.04523e-05 0)
(1.64239 -0.00010115 0)
(1.61953 0.000213664 0)
(1.59015 -0.000601908 0)
(1.52863 0.00216976 0)
(1.38545 -0.00528647 0)
(0.855874 -0.0315612 0)
(0.587508 -0.0867281 0)
(1.69471 3.45835e-06 0)
(1.67971 -1.27697e-05 0)
(1.66248 4.00713e-05 0)
(1.6424 -8.01776e-05 0)
(1.6195 0.000170304 0)
(1.59013 -0.000473284 0)
(1.52839 0.00167948 0)
(1.38486 -0.00398254 0)
(0.850673 -0.025804 0)
(0.557866 -0.0749277 0)
(1.69471 2.50129e-06 0)
(1.67971 -9.22647e-06 0)
(1.66247 2.91164e-05 0)
(1.6424 -5.81828e-05 0)
(1.61947 0.000124094 0)
(1.59012 -0.00034104 0)
(1.52821 0.00119515 0)
(1.38457 -0.00275709 0)
(0.846101 -0.0192657 0)
(0.527162 -0.057287 0)
(1.69471 1.51834e-06 0)
(1.67971 -5.59744e-06 0)
(1.66247 1.77424e-05 0)
(1.6424 -3.54626e-05 0)
(1.61945 7.60064e-05 0)
(1.59011 -0.000206721 0)
(1.5281 0.000712148 0)
(1.38445 -0.00157493 0)
(0.840992 -0.0124256 0)
(0.495068 -0.038877 0)
(1.69471 5.25889e-07 0)
(1.67971 -1.96338e-06 0)
(1.66247 6.28236e-06 0)
(1.6424 -1.25934e-05 0)
(1.61945 2.68493e-05 0)
(1.5901 -7.05581e-05 0)
(1.52801 0.000237794 0)
(1.38474 -0.000508688 0)
(0.837213 -0.00428729 0)
(0.472304 -0.0134882 0)
(0.827436 -0.126368 0)
(0.835649 -0.129946 0)
(0.842198 -0.135955 0)
(0.853584 -0.142633 0)
(0.866565 -0.151576 0)
(0.884664 -0.159023 0)
(0.905125 -0.165242 0)
(0.92988 -0.170133 0)
(0.958498 -0.173028 0)
(0.995388 -0.173374 0)
(0.82055 -0.132257 0)
(0.829969 -0.137216 0)
(0.838088 -0.145292 0)
(0.851842 -0.152022 0)
(0.864734 -0.160429 0)
(0.881867 -0.167303 0)
(0.901654 -0.17346 0)
(0.926935 -0.177429 0)
(0.95727 -0.180994 0)
(0.997028 -0.181264 0)
(0.815842 -0.139721 0)
(0.826689 -0.145353 0)
(0.834045 -0.153532 0)
(0.847169 -0.159962 0)
(0.86037 -0.1675 0)
(0.877693 -0.173522 0)
(0.897625 -0.180389 0)
(0.925169 -0.185629 0)
(0.958582 -0.189567 0)
(0.999568 -0.188605 0)
(0.80993 -0.144388 0)
(0.822031 -0.150536 0)
(0.829128 -0.158685 0)
(0.841644 -0.165164 0)
(0.855204 -0.174428 0)
(0.87451 -0.181512 0)
(0.895682 -0.189594 0)
(0.923092 -0.194865 0)
(0.956037 -0.197833 0)
(0.997592 -0.195141 0)
(0.800861 -0.1502 0)
(0.814159 -0.156243 0)
(0.822103 -0.165234 0)
(0.835146 -0.172841 0)
(0.847478 -0.182643 0)
(0.865192 -0.189429 0)
(0.885647 -0.196819 0)
(0.913823 -0.201209 0)
(0.948601 -0.204191 0)
(0.994129 -0.201408 0)
(0.788443 -0.156252 0)
(0.801462 -0.161873 0)
(0.808655 -0.170972 0)
(0.821014 -0.177974 0)
(0.832864 -0.187112 0)
(0.850923 -0.193317 0)
(0.872191 -0.201805 0)
(0.9031 -0.20779 0)
(0.942067 -0.212452 0)
(0.993492 -0.209601 0)
(0.7716 -0.159501 0)
(0.782739 -0.163567 0)
(0.789656 -0.171956 0)
(0.80283 -0.179685 0)
(0.815873 -0.190755 0)
(0.836522 -0.198995 0)
(0.860432 -0.209612 0)
(0.894447 -0.216588 0)
(0.936264 -0.221638 0)
(0.991475 -0.217879 0)
(0.755 -0.163125 0)
(0.764706 -0.167751 0)
(0.771435 -0.176894 0)
(0.785825 -0.184821 0)
(0.799805 -0.196653 0)
(0.821949 -0.205262 0)
(0.847243 -0.217098 0)
(0.883776 -0.225007 0)
(0.929209 -0.231218 0)
(0.990795 -0.227218 0)
(0.739213 -0.164264 0)
(0.748184 -0.170482 0)
(0.753854 -0.180873 0)
(0.768552 -0.189448 0)
(0.78299 -0.202543 0)
(0.806795 -0.212166 0)
(0.83388 -0.225778 0)
(0.873034 -0.234737 0)
(0.922116 -0.24208 0)
(0.989583 -0.237351 0)
(0.721052 -0.163598 0)
(0.73053 -0.17189 0)
(0.735485 -0.184224 0)
(0.750566 -0.194271 0)
(0.765232 -0.208946 0)
(0.790322 -0.219509 0)
(0.818869 -0.234497 0)
(0.860345 -0.244394 0)
(0.913467 -0.253418 0)
(0.988108 -0.24841 0)
(0.699323 -0.161287 0)
(0.710129 -0.171574 0)
(0.714832 -0.186202 0)
(0.730691 -0.198107 0)
(0.745572 -0.214603 0)
(0.772044 -0.22666 0)
(0.802427 -0.243541 0)
(0.846886 -0.254891 0)
(0.904924 -0.265977 0)
(0.988117 -0.261175 0)
(0.674371 -0.15767 0)
(0.687039 -0.169316 0)
(0.692006 -0.186538 0)
(0.709652 -0.201134 0)
(0.72547 -0.220394 0)
(0.753917 -0.235002 0)
(0.786739 -0.254304 0)
(0.834216 -0.267452 0)
(0.89741 -0.281132 0)
(0.989016 -0.275634 0)
(0.647821 -0.157525 0)
(0.663192 -0.170732 0)
(0.669209 -0.190597 0)
(0.689405 -0.207153 0)
(0.706584 -0.228588 0)
(0.736527 -0.245135 0)
(0.771056 -0.266011 0)
(0.82046 -0.280594 0)
(0.887678 -0.296919 0)
(0.988456 -0.291439 0)
(0.621249 -0.155576 0)
(0.639267 -0.170706 0)
(0.645462 -0.193043 0)
(0.667424 -0.211331 0)
(0.685806 -0.234788 0)
(0.717014 -0.253842 0)
(0.753346 -0.276798 0)
(0.804857 -0.293789 0)
(0.876701 -0.313867 0)
(0.986988 -0.309024 0)
(0.589541 -0.154915 0)
(0.612142 -0.171942 0)
(0.61982 -0.19781 0)
(0.64429 -0.218696 0)
(0.664742 -0.244072 0)
(0.697175 -0.264976 0)
(0.735024 -0.289219 0)
(0.787878 -0.308369 0)
(0.863541 -0.332084 0)
(0.982275 -0.327548 0)
(0.551655 -0.153234 0)
(0.579282 -0.170766 0)
(0.588697 -0.198571 0)
(0.615203 -0.221423 0)
(0.637779 -0.248626 0)
(0.671261 -0.272094 0)
(0.71064 -0.298104 0)
(0.764706 -0.320523 0)
(0.843028 -0.348473 0)
(0.970142 -0.346776 0)
(0.507259 -0.155145 0)
(0.539916 -0.173328 0)
(0.551321 -0.202701 0)
(0.579902 -0.226568 0)
(0.606375 -0.254153 0)
(0.642155 -0.27903 0)
(0.68387 -0.306322 0)
(0.738891 -0.331443 0)
(0.817433 -0.362515 0)
(0.949655 -0.368889 0)
(0.456759 -0.147472 0)
(0.495911 -0.160922 0)
(0.513444 -0.192618 0)
(0.546167 -0.223904 0)
(0.578162 -0.257849 0)
(0.617853 -0.287704 0)
(0.66349 -0.317965 0)
(0.721905 -0.346745 0)
(0.802561 -0.38275 0)
(0.939487 -0.39838 0)
(0.405142 -0.154625 0)
(0.457002 -0.174837 0)
(0.485366 -0.215321 0)
(0.526468 -0.249666 0)
(0.565163 -0.282621 0)
(0.606854 -0.310763 0)
(0.651789 -0.338483 0)
(0.707486 -0.366217 0)
(0.783296 -0.402129 0)
(0.914584 -0.430222 0)
(0.375902 -0.129598 0)
(0.444943 -0.161511 0)
(0.484768 -0.213312 0)
(0.529224 -0.251818 0)
(0.569111 -0.285184 0)
(0.609751 -0.313207 0)
(0.653691 -0.34095 0)
(0.708094 -0.368526 0)
(0.782191 -0.406078 0)
(0.916225 -0.443426 0)
(1.08539 -0.152119 0)
(1.21571 -0.0853534 0)
(1.32813 0.00852531 0)
(1.41321 0.113003 0)
(1.4782 0.219702 0)
(1.53252 0.322816 0)
(1.55721 0.35043 0)
(1.53809 0.277184 0)
(1.47104 0.0840828 0)
(1.40486 -0.038668 0)
(1.09142 -0.156351 0)
(1.22503 -0.0833656 0)
(1.33843 0.0157282 0)
(1.42454 0.126199 0)
(1.48686 0.234824 0)
(1.53763 0.336079 0)
(1.55826 0.350136 0)
(1.52807 0.260151 0)
(1.448 0.0697712 0)
(1.40157 -0.0388808 0)
(1.09624 -0.160607 0)
(1.23429 -0.0811953 0)
(1.34981 0.0247751 0)
(1.434 0.13849 0)
(1.49475 0.248683 0)
(1.53947 0.346261 0)
(1.55902 0.347426 0)
(1.51642 0.241226 0)
(1.43068 0.0612471 0)
(1.3967 -0.037606 0)
(1.10001 -0.164273 0)
(1.24456 -0.0786255 0)
(1.36148 0.0341773 0)
(1.44451 0.152395 0)
(1.50465 0.266 0)
(1.53774 0.356119 0)
(1.5598 0.344864 0)
(1.50396 0.220438 0)
(1.41625 0.0531334 0)
(1.39097 -0.0362995 0)
(1.10549 -0.168296 0)
(1.25693 -0.0752035 0)
(1.37449 0.0442056 0)
(1.45513 0.165901 0)
(1.51282 0.282473 0)
(1.53614 0.361056 0)
(1.55479 0.33948 0)
(1.49158 0.1991 0)
(1.40833 0.0475949 0)
(1.38599 -0.0354358 0)
(1.11238 -0.172359 0)
(1.27058 -0.0712907 0)
(1.38925 0.0554352 0)
(1.46746 0.183311 0)
(1.52156 0.302326 0)
(1.53905 0.365113 0)
(1.54505 0.329657 0)
(1.47558 0.175769 0)
(1.40235 0.0418907 0)
(1.38234 -0.0352435 0)
(1.11985 -0.175976 0)
(1.286 -0.0661161 0)
(1.40467 0.0676647 0)
(1.47909 0.200759 0)
(1.52701 0.312857 0)
(1.54178 0.364416 0)
(1.53605 0.318465 0)
(1.45501 0.154053 0)
(1.39597 0.0384153 0)
(1.37948 -0.0331278 0)
(1.12949 -0.180012 0)
(1.30319 -0.059569 0)
(1.42219 0.0839026 0)
(1.49116 0.216589 0)
(1.53435 0.329053 0)
(1.54206 0.362372 0)
(1.52689 0.302812 0)
(1.43202 0.135357 0)
(1.38859 0.0362332 0)
(1.37615 -0.0298533 0)
(1.14032 -0.1837 0)
(1.32275 -0.0507134 0)
(1.43844 0.0971093 0)
(1.50432 0.232966 0)
(1.53727 0.341286 0)
(1.54274 0.360644 0)
(1.51763 0.284712 0)
(1.41211 0.11994 0)
(1.38219 0.0348275 0)
(1.37246 -0.0273181 0)