/*--------------------------------*- C++ -*----------------------------------*\
  =========                 |
  \\      /  F ield         | OpenFOAM: The Open Source CFD Toolbox
   \\    /   O peration     | Website:  https://openfoam.org
    \\  /    A nd           | Version:  8
     \\/     M anipulation  |
\*---------------------------------------------------------------------------*/
FoamFile
{
    version     2.0;
    format      ascii;
    class       volScalarField;
    location    "3.7";
    object      p;
}
// * * * * * * * * * * * * * * * * * * * * * * * * * * * * * * * * * * * * * //

dimensions      [1 -1 -2 0 0 0 0];

internalField   nonuniform List<scalar> 
2600
(
1.28376
1.33574
1.46906
1.46002
1.7037
2.22566
2.45597
2.5297
2.41388
2.17826
1.28877
1.33208
1.47109
1.49151
1.74742
2.24001
2.48565
2.52631
2.42611
2.19983
1.29456
1.31614
1.45137
1.54124
1.77579
2.25538
2.50631
2.49724
2.39897
2.20187
1.30117
1.29544
1.43412
1.57127
1.76116
2.26257
2.50064
2.51457
2.41638
2.1961
1.30048
1.2745
1.42369
1.58822
1.78781
2.24573
2.50336
2.51514
2.42747
2.20599
1.30431
1.25956
1.413
1.61627
1.80933
2.24845
2.52204
2.52788
2.42023
2.2141
1.30851
1.24031
1.3848
1.59383
1.79982
2.26902
2.52378
2.52402
2.41774
2.21711
1.30976
1.21543
1.34562
1.55467
1.80236
2.28962
2.52004
2.52428
2.39752
2.22684
1.3128
1.18589
1.30618
1.53841
1.81628
2.3041
2.50916
2.51761
2.4117
2.24255
1.31391
1.16627
1.25741
1.51886
1.85717
2.35193
2.47472
2.4953
2.40709
2.24122
1.31258
1.14075
1.20065
1.52702
1.91488
2.37136
2.48279
2.49392
2.40265
2.25142
1.3043
1.12639
1.15117
1.5174
1.9684
2.40119
2.45372
2.49237
2.39561
2.24136
1.29185
1.10444
1.10976
1.5465
2.03895
2.38703
2.45753
2.47915
2.39374
2.24912
1.27296
1.08359
1.09025
1.53973
2.06845
2.43588
2.44107
2.47354
2.39149
2.24868
1.26209
1.06883
1.0886
1.56151
2.11207
2.41817
2.43212
2.48201
2.40167
2.24168
1.2552
1.06412
1.08616
1.57167
2.11924
2.43414
2.4262
2.49315
2.41135
2.24017
1.25592
1.06124
1.08278
1.55874
2.11954
2.42316
2.42305
2.48566
2.39924
2.23737
1.25457
1.0722
1.07763
1.55231
2.07811
2.41601
2.40645
2.48203
2.40031
2.22142
1.24853
1.08911
1.07405
1.54949
2.03473
2.38725
2.37244
2.49177
2.4227
2.21614
1.24686
1.12775
1.07689
1.5194
2.02166
2.35961
2.36744
2.48184
2.43624
2.22974
1.48254
1.16411
1.09629
1.47262
2.02423
2.33261
2.37493
2.46402
2.42526
2.22272
1.74267
1.2338
1.13797
1.4249
2.01388
2.30514
2.36093
2.45132
2.4099
2.20952
2.01012
1.32339
1.17586
1.37848
1.966
2.2746
2.34812
2.44758
2.39969
2.20309
2.22191
1.44463
1.21667
1.37719
1.90382
2.24047
2.34975
2.45011
2.39425
2.20254
2.4051
1.58933
1.26918
1.38364
1.83721
2.19346
2.35417
2.45329
2.38875
2.19938
2.55536
1.72393
1.34284
1.41213
1.77538
2.13376
2.3512
2.45488
2.38158
2.18976
2.68343
1.85227
1.43449
1.44659
1.71939
2.06225
2.33979
2.45451
2.37639
2.18061
2.79273
1.97664
1.51278
1.48713
1.6727
1.99124
2.32104
2.44996
2.374
2.17511
2.88884
2.10011
1.60228
1.5195
1.62852
1.92357
2.29332
2.43743
2.36758
2.17239
2.9757
2.21483
1.69957
1.54442
1.61719
1.85568
2.25269
2.41667
2.35478
2.16562
3.05552
2.31601
1.80147
1.57683
1.61151
1.78845
2.19762
2.38753
2.33893
2.157
3.12891
2.40643
1.89012
1.62117
1.61696
1.72763
2.1258
2.35255
2.32044
2.14666
3.19213
2.49163
1.96735
1.67588
1.62371
1.68028
2.04428
2.31395
2.30976
2.13794
3.2474
2.57024
2.04569
1.73416
1.62543
1.6482
1.96435
2.28774
2.29831
2.1282
3.2969
2.64276
2.12578
1.79373
1.63421
1.62361
1.88615
2.25399
2.28785
2.1186
3.3432
2.70968
2.20252
1.85847
1.65036
1.61024
1.80976
2.21142
2.2772
2.10728
3.38684
2.7749
2.27328
1.92416
1.67771
1.59892
1.73653
2.15626
2.26551
2.09616
3.42948
2.83707
2.3425
1.98856
1.71435
1.59099
1.67103
2.08683
2.24931
2.08293
3.47022
2.89638
2.41053
2.05069
1.76574
1.59451
1.62122
2.00375
2.23
2.0705
3.5106
2.95458
2.47744
2.11357
1.81693
1.60607
1.58482
1.90955
2.20542
2.05764
5.91654
5.63386
5.42964
5.23362
5.05048
4.88109
4.7017
4.50156
4.20084
3.91497
5.49043
5.23113
5.11416
4.98085
4.85549
4.71873
4.55644
4.3497
4.03997
3.64171
5.35002
5.16988
5.08341
4.96419
4.85271
4.72254
4.56234
4.35231
4.0411
3.6449
5.17479
5.05436
4.99005
4.89058
4.7922
4.66313
4.50476
4.29345
3.9897
3.5918
5.04956
4.96506
4.91416
4.8239
4.73243
4.60323
4.44894
4.23736
3.94682
3.55334
4.94467
4.87015
4.82707
4.74803
4.66862
4.54559
4.39907
4.19175
3.91383
3.53632
4.85628
4.80068
4.76541
4.68939
4.61487
4.49294
4.35262
4.1515
3.88956
3.53854
4.74514
4.71625
4.69329
4.62406
4.55352
4.43699
4.30432
4.11289
3.87063
3.54906
4.68907
4.65393
4.62346
4.55882
4.49578
4.38745
4.26603
4.08623
3.86114
3.56966
4.63131
4.59736
4.569
4.51027
4.45001
4.34722
4.23234
4.06593
3.85983
3.59692
4.57795
4.54344
4.51414
4.46105
4.40673
4.31192
4.20751
4.05713
3.86898
3.62843
4.53176
4.49701
4.46814
4.42308
4.37572
4.28973
4.19847
4.06374
3.8874
3.66225
4.47893
4.45421
4.4339
4.40097
4.36161
4.29115
4.20676
4.08028
3.91114
3.69491
4.43995
4.43304
4.42799
4.40867
4.37435
4.31318
4.22954
4.10307
3.9341
3.72452
4.45521
4.45557
4.46233
4.44698
4.41341
4.35054
4.25287
4.11958
3.95364
3.75191
4.53983
4.53362
4.53605
4.50972
4.45297
4.37139
4.26708
4.13344
3.96972
3.7758
4.63372
4.61567
4.5922
4.5373
4.47237
4.38667
4.27526
4.13868
3.98036
3.79729
4.68999
4.65729
4.6129
4.55183
4.48352
4.38305
4.27102
4.13974
3.99104
3.8198
4.71539
4.66458
4.61068
4.54749
4.46411
4.36576
4.26482
4.14143
4.00276
3.84085
4.69629
4.64108
4.58922
4.52706
4.44761
4.36048
4.26112
4.14891
4.01211
3.86207
1.00259
1.00813
1.01428
1.02121
1.02897
1.0377
1.04837
1.05683
1.78577
4.12249
1.00259
1.00813
1.01428
1.02121
1.02897
1.0377
1.04837
1.05688
1.77647
4.11272
1.00259
1.00813
1.01428
1.02121
1.02897
1.03769
1.04837
1.05692
1.75427
4.09637
1.00259
1.00813
1.01428
1.02121
1.02897
1.03769
1.04837
1.05695
1.72167
4.08809
1.00259
1.00813
1.01428
1.02121
1.02898
1.03768
1.04838
1.05693
1.67769
4.06806
1.00259
1.00813
1.01429
1.02121
1.02898
1.03767
1.04839
1.05686
1.62631
4.04706
1.00259
1.00813
1.01429
1.0212
1.02898
1.03767
1.0484
1.05681
1.57014
4.03571
1.00259
1.00813
1.01429
1.0212
1.02898
1.03766
1.04841
1.05676
1.51377
4.01628
1.00259
1.00813
1.01429
1.0212
1.02898
1.03765
1.04843
1.05674
1.45808
3.98791
1.00259
1.00813
1.01429
1.0212
1.02899
1.03765
1.04844
1.05672
1.4072
3.95385
1.0026
1.00813
1.01429
1.0212
1.02899
1.03765
1.04845
1.05672
1.36188
3.90622
1.0026
1.00813
1.01429
1.0212
1.02899
1.03764
1.04846
1.05673
1.32296
3.84257
1.0026
1.00813
1.01429
1.0212
1.02899
1.03764
1.04846
1.05676
1.28754
3.7648
1.0026
1.00813
1.01429
1.0212
1.02899
1.03764
1.04846
1.0568
1.25306
3.66965
1.0026
1.00813
1.01429
1.0212
1.02899
1.03764
1.04844
1.05686
1.21678
3.5601
1.0026
1.00813
1.01429
1.02119
1.02899
1.03764
1.04842
1.05696
1.17984
3.45107
1.0026
1.00813
1.01429
1.02119
1.029
1.03764
1.0484
1.05708
1.14713
3.36453
1.0026
1.00813
1.01429
1.02119
1.029
1.03763
1.04837
1.05723
1.12042
3.32019
1.0026
1.00813
1.01429
1.02119
1.029
1.03763
1.04835
1.05742
1.10099
3.29816
1.0026
1.00813
1.01429
1.02119
1.029
1.03762
1.04834
1.05765
1.08788
3.29623
1.0026
1.00813
1.01429
1.02119
1.029
1.03762
1.04834
1.05765
1.08791
3.29663
1.0026
1.00813
1.01429
1.02119
1.029
1.03763
1.04835
1.05742
1.10103
3.2987
1.0026
1.00813
1.01429
1.02119
1.029
1.03763
1.04837
1.05723
1.12049
3.32066
1.0026
1.00813
1.01429
1.02119
1.029
1.03764
1.0484
1.05708
1.14725
3.36483
1.0026
1.00813
1.01429
1.02119
1.02899
1.03764
1.04842
1.05696
1.17999
3.45111
1.0026
1.00813
1.01429
1.0212
1.02899
1.03764
1.04844
1.05686
1.21695
3.55993
1.0026
1.00813
1.01429
1.0212
1.02899
1.03764
1.04846
1.0568
1.25322
3.66924
1.0026
1.00813
1.01429
1.0212
1.02899
1.03764
1.04846
1.05676
1.2877
3.76442
1.0026
1.00813
1.01429
1.0212
1.02899
1.03764
1.04846
1.05673
1.32315
3.84217
1.0026
1.00813
1.01429
1.0212
1.02899
1.03765
1.04845
1.05672
1.36214
3.90572
1.00259
1.00813
1.01429
1.0212
1.02899
1.03765
1.04844
1.05672
1.40747
3.95341
1.00259
1.00813
1.01429
1.0212
1.02898
1.03765
1.04843
1.05674
1.45832
3.98751
1.00259
1.00813
1.01429
1.0212
1.02898
1.03766
1.04841
1.05676
1.51394
4.01594
1.00259
1.00813
1.01429
1.0212
1.02898
1.03767
1.0484
1.05681
1.57026
4.03544
1.00259
1.00813
1.01429
1.02121
1.02898
1.03767
1.04839
1.05686
1.62638
4.04667
1.00259
1.00813
1.01428
1.02121
1.02898
1.03768
1.04838
1.05693
1.67777
4.06793
1.00259
1.00813
1.01428
1.02121
1.02897
1.03769
1.04837
1.05695
1.72173
4.08801
1.00259
1.00813
1.01428
1.02121
1.02897
1.03769
1.04837
1.05692
1.7543
4.09616
1.00259
1.00813
1.01428
1.02121
1.02897
1.0377
1.04837
1.05688
1.77648
4.11254
1.00259
1.00813
1.01428
1.02121
1.02897
1.0377
1.04837
1.05686
1.78578
4.12239
4.69646
4.64016
4.5875
4.52488
4.44488
4.35759
4.25863
4.14645
4.0109
3.86233
4.71452
4.66295
4.60847
4.54501
4.46137
4.36289
4.26209
4.13941
4.00209
3.84173
4.68854
4.65526
4.61043
4.54912
4.4807
4.38002
4.26865
4.13809
3.99085
3.82153
4.63175
4.61346
4.58948
4.53441
4.46955
4.38402
4.27336
4.13755
3.98094
3.80002
4.53704
4.53086
4.53337
4.50674
4.45036
4.36906
4.26552
4.1329
3.97131
3.77979
4.45199
4.45223
4.45934
4.44415
4.41105
4.34869
4.25194
4.11986
3.95649
3.75732
4.43742
4.43022
4.42523
4.40619
4.37229
4.31179
4.22939
4.10432
3.93838
3.73128
4.47568
4.45111
4.43143
4.39881
4.35995
4.29042
4.20757
4.08264
3.91692
3.70274
4.52899
4.49418
4.46583
4.42119
4.37461
4.28964
4.20014
4.06717
3.89431
3.67076
4.57582
4.54108
4.51202
4.45943
4.40596
4.31235
4.21031
4.06168
3.87657
3.63733
4.62927
4.59529
4.56703
4.50875
4.4493
4.34807
4.23581
4.07128
3.86796
3.60618
4.6871
4.6519
4.6215
4.55758
4.49559
4.38899
4.26973
4.09204
3.86966
3.57885
4.74326
4.71467
4.69172
4.62306
4.55336
4.43855
4.30837
4.11892
3.87945
3.5574
4.85431
4.79909
4.76419
4.6888
4.61505
4.4948
4.35668
4.15778
3.89867
3.54538
4.94294
4.86869
4.82598
4.7475
4.66899
4.54751
4.40333
4.19812
3.92266
3.5415
5.04835
4.96381
4.91294
4.82312
4.73243
4.60479
4.45285
4.24358
3.95511
3.55826
5.17369
5.05325
4.98901
4.88997
4.79234
4.66467
4.50841
4.2996
3.99752
3.59725
5.34898
5.16885
5.08238
4.9634
4.85253
4.72361
4.56531
4.35793
4.0487
3.65055
5.48947
5.23008
5.11314
4.98011
4.85529
4.71967
4.5591
4.35504
4.0481
3.65001
5.91565
5.63293
5.42865
5.2329
5.04998
4.88161
4.70345
4.50597
4.20774
3.92287
3.51738
2.97442
2.50329
2.13403
1.79457
1.59709
1.59836
1.94894
2.20427
2.05281
3.47856
2.91739
2.44112
2.07621
1.7446
1.58328
1.62191
2.01501
2.22056
2.06268
3.43969
2.85942
2.37792
2.0167
1.69492
1.57246
1.65282
2.07521
2.23486
2.0741
3.399
2.8
2.31356
1.9558
1.64813
1.56401
1.69239
2.12794
2.24838
2.08639
3.35735
2.73792
2.24759
1.89215
1.6049
1.558
1.74095
2.16848
2.26118
2.0991
3.31204
2.67182
2.17748
1.83122
1.56604
1.54975
1.79882
2.21953
2.27748
2.11194
3.26197
2.59899
2.10511
1.77272
1.52597
1.54275
1.86742
2.25883
2.28904
2.12341
3.20575
2.51821
2.03474
1.71007
1.49392
1.53846
1.94555
2.29211
2.29481
2.13159
3.14267
2.4324
1.95895
1.64519
1.4699
1.54165
2.02886
2.32257
2.29897
2.13473
3.07112
2.33895
1.88165
1.58378
1.45613
1.57012
2.11092
2.35585
2.30429
2.13713
2.9924
2.23607
1.80014
1.53873
1.45313
1.61615
2.18692
2.38808
2.31016
2.14044
2.90413
2.11946
1.73016
1.51821
1.45077
1.6766
2.25144
2.41156
2.31699
2.14548
2.80443
1.99379
1.68311
1.49726
1.46287
1.74735
2.302
2.42754
2.32366
2.1504
2.69453
1.86976
1.64172
1.47894
1.47412
1.82227
2.33956
2.4365
2.32837
2.15248
2.57323
1.74289
1.60197
1.45994
1.48436
1.89749
2.36856
2.44705
2.33472
2.15558
2.43706
1.61715
1.56639
1.44492
1.48884
1.9742
2.39471
2.46556
2.35016
2.16359
2.26534
1.51665
1.53464
1.43216
1.49271
2.05056
2.4186
2.48235
2.36926
2.17668
2.06056
1.44646
1.51922
1.42915
1.50292
2.11969
2.43168
2.48407
2.38031
2.18593
1.78336
1.39776
1.51316
1.44132
1.56491
2.17461
2.43777
2.47423
2.38077
2.18318
1.51519
1.35084
1.48582
1.44872
1.63775
2.20545
2.44031
2.48899
2.38329
2.17137
4.18375
3.91102
3.59406
3.25643
2.89067
2.51725
2.14818
1.82493
1.4552
1.12591
4.17943
3.90606
3.58785
3.24539
2.88815
2.5118
2.14314
1.81924
1.45157
1.12992
4.17304
3.89947
3.58001
3.23387
2.88276
2.50251
2.13452
1.80898
1.44517
1.13655
4.16413
3.88873
3.56698
3.21814
2.87205
2.48989
2.12353
1.79543
1.43731
1.14737
4.15348
3.87487
3.54982
3.20013
2.85605
2.4732
2.10937
1.77955
1.43062
1.16332
4.14275
3.85705
3.52692
3.17826
2.8369
2.45364
2.0905
1.75187
1.41871
1.18479
4.13241
3.83778
3.49993
3.15237
2.81258
2.42948
2.06849
1.72087
1.41091
1.21341
4.11973
3.81526
3.47044
3.12139
2.78055
2.39818
2.03698
1.68311
1.40724
1.25263
4.10283
3.78874
3.43565
3.08369
2.74047
2.35998
1.99995
1.63888
1.402
1.30596
4.083
3.75647
3.3946
3.03868
2.69998
2.31717
1.95483
1.59636
1.39669
1.37727
4.05759
3.71798
3.34757
2.98888
2.64302
2.26439
1.90301
1.55434
1.39442
1.46274
4.02535
3.67309
3.29097
2.93808
2.58216
2.20568
1.84677
1.52445
1.40355
1.55679
3.9823
3.62226
3.236
2.87655
2.51043
2.14082
1.78488
1.50827
1.43621
1.64919
3.9323
3.56544
3.16473
2.80877
2.43465
2.0705
1.72734
1.50499
1.49006
1.73397
3.88747
3.50875
3.09984
2.73212
2.35468
1.99357
1.67191
1.5068
1.57625
1.81156
3.83379
3.44479
3.02757
2.64575
2.2689
1.9134
1.6349
1.51343
1.69394
1.87429
3.77794
3.3658
2.9456
2.55203
2.17953
1.82867
1.60004
1.53763
1.83598
1.92789
3.72846
3.27789
2.84349
2.4498
2.08356
1.75113
1.57882
1.60243
1.97654
1.97554
3.65244
3.17516
2.72573
2.33768
1.98039
1.68214
1.57163
1.7024
2.09111
2.0106
3.57664
3.06065
2.59937
2.21953
1.87612
1.62601
1.57866
1.83885
2.1673
2.03757
3.57177
3.04484
2.57744
2.20999
1.89424
1.63844
1.56336
1.76155
2.14909
2.03493
3.64904
3.1649
2.70927
2.32899
2.00421
1.70252
1.56137
1.6185
2.03576
1.99807
3.72687
3.2714
2.83068
2.44249
2.10007
1.77943
1.57122
1.5301
1.88768
1.95354
3.77908
3.36205
2.93592
2.54587
2.18975
1.85583
1.59288
1.49323
1.72953
1.89808
3.83599
3.44271
3.02159
2.64114
2.27607
1.93098
1.62374
1.48544
1.59695
1.83342
3.89056
3.51025
3.09707
2.73082
2.35756
2.0058
1.67381
1.48982
1.50599
1.75915
3.93592
3.5681
3.16552
2.80899
2.43746
2.07747
1.72877
1.49411
1.44849
1.68034
3.98597
3.62679
3.24004
2.87994
2.51255
2.14427
1.79124
1.50834
1.41792
1.60334
4.02881
3.67845
3.29593
2.94063
2.58439
2.20859
1.85029
1.52808
1.40172
1.52808
4.06076
3.72317
3.35286
2.99416
2.64715
2.2665
1.90571
1.56237
1.39757
1.45558
4.08567
3.76123
3.40007
3.04339
2.70786
2.32195
1.95654
1.59877
1.39789
1.38641
4.10479
3.79276
3.44057
3.08976
2.74731
2.36461
1.99929
1.63812
1.40344
1.32252
4.12087
3.81812
3.47434
3.12609
2.78694
2.41062
2.04027
1.67782
1.40804
1.26963
4.13275
3.83943
3.50256
3.15591
2.81684
2.43122
2.06676
1.71197
1.41065
1.22891
4.14235
3.85742
3.52828
3.18093
2.8395
2.45509
2.09101
1.74541
1.41704
1.19762
4.1524
3.87406
3.54995
3.20168
2.85774
2.47487
2.10924
1.77336
1.4266
1.1733
4.16236
3.88688
3.566
3.2185
2.87295
2.49096
2.12478
1.79405
1.4346
1.15446
4.17063
3.89672
3.57818
3.23314
2.8831
2.50349
2.13655
1.81
1.44339
1.14129
4.17654
3.90257
3.58531
3.24404
2.88804
2.51266
2.14529
1.82154
1.4503
1.13267
4.1806
3.90701
3.59105
3.25437
2.89051
2.518
2.15025
1.82788
1.45443
1.1275
4.69283
4.63144
4.5808
4.50976
4.43264
4.35457
4.26986
4.16459
4.04306
3.89929
4.67085
4.59495
4.53324
4.47974
4.42428
4.36029
4.28284
4.1891
4.08015
3.96144
4.66046
4.58983
4.54587
4.50272
4.44549
4.38502
4.31267
4.22298
4.12296
4.00771
4.67325
4.6046
4.57333
4.53019
4.48046
4.42803
4.35627
4.27071
4.17017
4.05843
4.72822
4.65754
4.62422
4.57943
4.52651
4.46088
4.38699
4.30204
4.21367
4.1052
4.76715
4.70133
4.65423
4.59992
4.54451
4.48264
4.40996
4.32719
4.24096
4.14355
4.7308
4.69674
4.65533
4.60547
4.55256
4.49159
4.42214
4.34944
4.26101
4.17746
4.69191
4.68668
4.64155
4.59598
4.5475
4.49508
4.43127
4.36488
4.28304
4.20154
4.65614
4.68261
4.63385
4.5951
4.54905
4.49671
4.43888
4.37172
4.30071
4.21864
4.63394
4.6748
4.62298
4.58653
4.54429
4.49703
4.44534
4.3829
4.31557
4.23826
4.62004
4.66936
4.61764
4.5843
4.54379
4.49783
4.44693
4.38744
4.32458
4.25349
4.61045
4.66676
4.6154
4.58411
4.54508
4.50145
4.45236
4.39567
4.3331
4.2657
4.60367
4.66718
4.6161
4.58546
4.54683
4.50374
4.4546
4.3997
4.33904
4.27768
4.59798
4.66937
4.61836
4.58715
4.54823
4.5054
4.45712
4.40435
4.34665
4.28705
4.59305
4.67196
4.62122
4.58931
4.54996
4.50726
4.45968
4.40879
4.35419
4.29522
4.58923
4.67361
4.62327
4.59138
4.55192
4.50949
4.46268
4.41365
4.36125
4.30269
4.58536
4.67407
4.62392
4.59256
4.5534
4.51172
4.46597
4.41836
4.36755
4.30988
4.58057
4.67334
4.62322
4.59237
4.55381
4.51327
4.469
4.42249
4.37306
4.3159
4.57544
4.67118
4.62115
4.59085
4.55294
4.5134
4.47084
4.42518
4.37684
4.31956
4.57059
4.66886
4.61915
4.58961
4.55224
4.5131
4.47191
4.42674
4.3794
4.32192
1.0026
1.00813
1.01429
1.02119
1.029
1.03762
1.04834
1.05795
1.07856
3.28045
1.0026
1.00813
1.01429
1.02119
1.029
1.03763
1.04832
1.05833
1.07288
3.21644
1.0026
1.00813
1.01429
1.02119
1.029
1.03764
1.04823
1.05865
1.07045
3.12843
1.0026
1.00813
1.01429
1.02119
1.02899
1.03767
1.04809
1.05895
1.06943
3.03944
1.0026
1.00813
1.01429
1.02119
1.02899
1.0377
1.04792
1.05919
1.06903
2.95021
1.0026
1.00813
1.01429
1.02119
1.02899
1.03772
1.04783
1.05939
1.0689
2.87136
1.0026
1.00813
1.01429
1.02119
1.02899
1.03772
1.0478
1.05955
1.06888
2.81047
1.0026
1.00812
1.01429
1.02119
1.02899
1.03772
1.04781
1.05968
1.06892
2.77045
1.0026
1.00812
1.01429
1.02119
1.02899
1.03771
1.04782
1.0598
1.06898
2.72735
1.0026
1.00812
1.01429
1.02119
1.02899
1.03771
1.04781
1.0599
1.06907
2.68602
1.0026
1.00812
1.01429
1.02119
1.02899
1.03772
1.04777
1.05998
1.06917
2.64804
1.0026
1.00812
1.01429
1.02119
1.02899
1.03773
1.04773
1.06005
1.06927
2.61275
1.0026
1.00812
1.0143
1.02119
1.02899
1.03775
1.04769
1.06011
1.06937
2.58101
1.0026
1.00812
1.0143
1.02119
1.02899
1.03776
1.04764
1.06016
1.06947
2.55263
1.0026
1.00812
1.0143
1.02119
1.02899
1.03778
1.0476
1.06022
1.06955
2.52774
1.0026
1.00812
1.0143
1.02119
1.02899
1.03779
1.04756
1.06028
1.06962
2.50653
1.0026
1.00812
1.0143
1.02119
1.02898
1.03781
1.04753
1.06035
1.06968
2.48914
1.0026
1.00812
1.0143
1.02119
1.02898
1.03782
1.04751
1.06043
1.06975
2.47554
1.0026
1.00812
1.0143
1.02118
1.02898
1.03782
1.0475
1.06048
1.06972
2.46582
1.0026
1.00812
1.0143
1.02118
1.02898
1.03783
1.04747
1.06058
1.06972
2.46078
1.0026
1.00812
1.0143
1.02118
1.02898
1.03783
1.04747
1.06058
1.06972
2.46015
1.0026
1.00812
1.0143
1.02118
1.02898
1.03782
1.0475
1.06048
1.06972
2.46522
1.0026
1.00812
1.0143
1.02119
1.02898
1.03782
1.04751
1.06043
1.06975
2.47501
1.0026
1.00812
1.0143
1.02119
1.02898
1.03781
1.04753
1.06035
1.06968
2.48872
1.0026
1.00812
1.0143
1.02119
1.02899
1.03779
1.04756
1.06028
1.06962
2.50623
1.0026
1.00812
1.0143
1.02119
1.02899
1.03778
1.0476
1.06022
1.06955
2.52759
1.0026
1.00812
1.0143
1.02119
1.02899
1.03776
1.04764
1.06016
1.06947
2.55261
1.0026
1.00812
1.0143
1.02119
1.02899
1.03775
1.04769
1.06011
1.06937
2.58113
1.0026
1.00812
1.01429
1.02119
1.02899
1.03773
1.04773
1.06005
1.06927
2.613
1.0026
1.00812
1.01429
1.02119
1.02899
1.03772
1.04777
1.05998
1.06917
2.64841
1.0026
1.00812
1.01429
1.02119
1.02899
1.03771
1.04781
1.0599
1.06907
2.68645
1.0026
1.00812
1.01429
1.02119
1.02899
1.03771
1.04782
1.0598
1.06898
2.72784
1.0026
1.00812
1.01429
1.02119
1.02899
1.03772
1.04781
1.05968
1.06892
2.77099
1.0026
1.00813
1.01429
1.02119
1.02899
1.03772
1.0478
1.05955
1.06887
2.81098
1.0026
1.00813
1.01429
1.02119
1.02899
1.03772
1.04783
1.05939
1.0689
2.87179
1.0026
1.00813
1.01429
1.02119
1.02899
1.0377
1.04792
1.0592
1.06903
2.95056
1.0026
1.00813
1.01429
1.02119
1.02899
1.03767
1.04809
1.05895
1.06943
3.03974
1.0026
1.00813
1.01429
1.02119
1.029
1.03764
1.04823
1.05865
1.07045
3.12865
1.0026
1.00813
1.01429
1.02119
1.029
1.03763
1.04832
1.05833
1.07288
3.21667
1.0026
1.00813
1.01429
1.02119
1.029
1.03762
1.04834
1.05795
1.07857
3.28077
4.5688
4.66717
4.61763
4.58831
4.55123
4.51251
4.47188
4.42754
4.38106
4.32433
4.5738
4.66967
4.6198
4.58973
4.55206
4.51295
4.47101
4.42604
4.37842
4.32175
4.57918
4.67209
4.62215
4.59156
4.55327
4.51314
4.46938
4.42337
4.37447
4.31776
4.58439
4.67318
4.62325
4.59214
4.5533
4.51195
4.46653
4.41925
4.36877
4.31137
4.58899
4.67318
4.62306
4.59138
4.55216
4.50998
4.46336
4.41451
4.36227
4.3038
4.59326
4.67211
4.62157
4.58976
4.55054
4.50797
4.46046
4.40963
4.35501
4.29593
4.59856
4.67008
4.61923
4.588
4.54911
4.50629
4.45798
4.40514
4.34727
4.28735
4.6047
4.6683
4.61735
4.58664
4.54798
4.50481
4.45554
4.40045
4.33944
4.27758
4.61184
4.66822
4.61692
4.58556
4.54644
4.50265
4.45334
4.39631
4.33328
4.26522
4.62164
4.67105
4.61933
4.58594
4.54533
4.49917
4.44796
4.38795
4.32447
4.25245
4.6356
4.67652
4.62466
4.58817
4.54577
4.49826
4.44618
4.38313
4.31515
4.23667
4.65776
4.6843
4.63543
4.59664
4.55042
4.49783
4.43949
4.37167
4.29969
4.21663
4.69344
4.68831
4.643
4.59728
4.5485
4.49572
4.43144
4.3643
4.28148
4.19921
4.73226
4.69813
4.65646
4.60632
4.5531
4.49172
4.42163
4.34823
4.25904
4.1747
4.76851
4.70248
4.65506
4.60034
4.54445
4.48206
4.40882
4.32545
4.23857
4.14051
4.72913
4.65818
4.62461
4.57943
4.52595
4.45982
4.3854
4.29979
4.21089
4.10203
4.6735
4.60462
4.57308
4.52958
4.47936
4.42638
4.35422
4.26821
4.16726
4.05543
4.66001
4.58908
4.545
4.50145
4.44401
4.3831
4.31043
4.22014
4.12029
4.00517
4.67016
4.59362
4.53179
4.47799
4.42218
4.35797
4.28037
4.18647
4.07779
3.95974
4.69264
4.63044
4.57922
4.50777
4.43009
4.3518
4.26726
4.16227
4.0412
3.89853
)
;

boundaryField
{
    inlet
    {
        type            fixedValue;
        value           uniform 1;
    }
    outlet
    {
        type            zeroGradient;
    }
    triangle
    {
        type            zeroGradient;
    }
    top
    {
        type            symmetryPlane;
    }
    bottom
    {
        type            symmetryPlane;
    }
    defaultFaces
    {
        type            empty;
    }
}


// ************************************************************************* //
