/*--------------------------------*- C++ -*----------------------------------*\
  =========                 |
  \\      /  F ield         | OpenFOAM: The Open Source CFD Toolbox
   \\    /   O peration     | Website:  https://openfoam.org
    \\  /    A nd           | Version:  8
     \\/     M anipulation  |
\*---------------------------------------------------------------------------*/
FoamFile
{
    version     2.0;
    format      ascii;
    class       volScalarField;
    location    "3.7";
    object      T;
}
// * * * * * * * * * * * * * * * * * * * * * * * * * * * * * * * * * * * * * //

dimensions      [0 0 0 1 0 0 0];

internalField   nonuniform List<scalar> 
2600
(
1.52586
1.46622
1.43832
1.32008
1.32321
1.37994
1.42114
1.45273
1.43141
1.36893
1.55807
1.53806
1.51584
1.38053
1.36128
1.39037
1.43188
1.47665
1.46058
1.38571
1.56948
1.56499
1.56422
1.4525
1.3993
1.40602
1.44612
1.50723
1.49744
1.40621
1.57349
1.56476
1.58517
1.51417
1.43329
1.42453
1.46316
1.55543
1.55322
1.43187
1.57456
1.5627
1.59938
1.57256
1.49033
1.44252
1.49158
1.60427
1.60616
1.46446
1.57953
1.56492
1.61506
1.64008
1.55904
1.47081
1.53225
1.64998
1.64133
1.49707
1.58625
1.56782
1.6242
1.67724
1.62002
1.51287
1.57829
1.68045
1.65811
1.52591
1.59152
1.56837
1.62322
1.68026
1.66846
1.57017
1.62771
1.69715
1.6585
1.55036
1.59586
1.56268
1.6139
1.677
1.70229
1.6372
1.67306
1.70211
1.65909
1.56712
1.59769
1.55602
1.59642
1.66997
1.7266
1.70701
1.70308
1.69612
1.645
1.57114
1.59775
1.54549
1.57438
1.6703
1.74055
1.75167
1.72507
1.68041
1.61438
1.57125
1.59489
1.53865
1.55007
1.65837
1.74889
1.778
1.72632
1.64671
1.57033
1.56015
1.58949
1.52745
1.51849
1.64025
1.75803
1.7852
1.72875
1.60168
1.52393
1.54207
1.58036
1.51139
1.4842
1.58265
1.74231
1.79948
1.72248
1.5598
1.48283
1.51326
1.572
1.49202
1.44445
1.51397
1.70106
1.7867
1.70299
1.52575
1.45316
1.47845
1.56434
1.47319
1.3945
1.44637
1.625
1.75427
1.65915
1.49655
1.43317
1.4451
1.55897
1.45386
1.34448
1.38988
1.54492
1.68369
1.59373
1.46811
1.41776
1.41616
1.55037
1.43871
1.29934
1.35059
1.47342
1.59865
1.52256
1.44527
1.41016
1.39189
1.53216
1.41613
1.26017
1.32244
1.42147
1.51961
1.46357
1.43094
1.40853
1.37761
1.49947
1.38263
1.22594
1.29189
1.39026
1.46478
1.42969
1.41901
1.40655
1.37297
1.47742
1.33335
1.19771
1.26103
1.3704
1.4288
1.41149
1.40941
1.40119
1.36729
1.4485
1.29939
1.18113
1.23493
1.35391
1.404
1.39768
1.40329
1.39593
1.3615
1.44124
1.27786
1.17379
1.21407
1.33689
1.38668
1.39012
1.40073
1.39228
1.35787
1.43748
1.27058
1.1732
1.20663
1.32009
1.37401
1.38836
1.39982
1.3896
1.35558
1.44017
1.27584
1.17977
1.20368
1.30268
1.36276
1.38849
1.39904
1.3869
1.35275
1.4461
1.28733
1.19474
1.20768
1.28652
1.35026
1.38789
1.39789
1.38377
1.34871
1.45511
1.30448
1.21537
1.21326
1.27206
1.33525
1.3854
1.39628
1.38097
1.34487
1.46537
1.32474
1.23224
1.22034
1.25998
1.31981
1.38046
1.39367
1.37878
1.34192
1.47552
1.34594
1.24967
1.22671
1.24785
1.30444
1.37272
1.38973
1.37615
1.3398
1.48447
1.36489
1.26776
1.23103
1.24308
1.28871
1.36199
1.38474
1.37286
1.33739
1.49169
1.38002
1.28596
1.23632
1.2396
1.27292
1.34855
1.3786
1.36924
1.33499
1.49709
1.39198
1.30053
1.24373
1.23758
1.25807
1.33237
1.37169
1.365
1.3323
1.50043
1.40206
1.31211
1.25224
1.23656
1.24543
1.31477
1.36423
1.36167
1.32982
1.50241
1.41042
1.32328
1.26124
1.23475
1.23597
1.29789
1.35864
1.35755
1.32717
1.50354
1.41738
1.33425
1.27033
1.23416
1.22824
1.28145
1.35074
1.35343
1.32438
1.50418
1.42311
1.34408
1.2801
1.23395
1.22381
1.26431
1.34002
1.3496
1.32099
1.50439
1.4282
1.35238
1.28952
1.23704
1.2196
1.24695
1.32682
1.34585
1.31753
1.50455
1.43241
1.35992
1.29829
1.2425
1.21627
1.23075
1.31157
1.34166
1.31386
1.50465
1.43582
1.36685
1.30635
1.25062
1.21533
1.21757
1.29431
1.33729
1.31056
1.50525
1.43893
1.37329
1.31429
1.25832
1.21517
1.20708
1.275
1.33208
1.30725
2.00011
1.9722
1.9491
1.92521
1.90131
1.87767
1.85174
1.82155
1.77723
1.75331
1.94865
1.92081
1.90538
1.88731
1.86925
1.84878
1.82435
1.79329
1.74789
1.69317
1.91912
1.89787
1.88364
1.86479
1.84607
1.8246
1.79944
1.76818
1.72368
1.65761
1.88765
1.87059
1.85498
1.83378
1.81222
1.78773
1.76126
1.72991
1.68752
1.62183
1.85646
1.84016
1.82091
1.79654
1.77411
1.74944
1.72428
1.6941
1.655
1.5953
1.8154
1.79643
1.77631
1.7541
1.73617
1.71597
1.69497
1.66773
1.63202
1.57936
1.76015
1.74631
1.73405
1.71915
1.70719
1.69133
1.67406
1.64978
1.61769
1.5715
1.70599
1.70484
1.7029
1.69523
1.68709
1.67408
1.65922
1.63724
1.6085
1.56755
1.69326
1.68913
1.68595
1.67939
1.67318
1.66195
1.6489
1.62857
1.60229
1.56571
1.6824
1.67798
1.67475
1.66857
1.66246
1.65167
1.63925
1.62079
1.59717
1.56442
1.66817
1.66413
1.66121
1.65581
1.65037
1.64057
1.62966
1.61359
1.59255
1.56296
1.6524
1.64872
1.64623
1.64217
1.63798
1.62978
1.62104
1.60724
1.58815
1.56112
1.63611
1.63355
1.63229
1.63002
1.6272
1.62134
1.61387
1.60153
1.5839
1.5588
1.6246
1.62387
1.62382
1.62267
1.6203
1.61556
1.60845
1.59656
1.57954
1.55612
1.63261
1.62654
1.62362
1.621
1.61795
1.61237
1.60355
1.59119
1.57501
1.55333
1.68394
1.6609
1.64107
1.62926
1.61903
1.60935
1.5989
1.58624
1.57045
1.55029
1.74594
1.71782
1.68143
1.64893
1.62685
1.61047
1.59677
1.58216
1.56609
1.54727
1.78227
1.76422
1.73046
1.68744
1.65
1.61977
1.59824
1.58052
1.56371
1.54522
1.79268
1.78385
1.76455
1.73168
1.68797
1.64441
1.60992
1.584
1.5642
1.54436
1.787
1.78218
1.77441
1.75737
1.72584
1.68298
1.63771
1.59946
1.56952
1.54623
1.00074
1.00232
1.00406
1.00601
1.00819
1.01062
1.01359
1.0159
1.27634
1.74042
1.00074
1.00232
1.00406
1.00601
1.00819
1.01062
1.01359
1.01591
1.27376
1.73479
1.00074
1.00232
1.00406
1.00601
1.00819
1.01062
1.01359
1.01592
1.26604
1.72327
1.00074
1.00232
1.00406
1.00601
1.00819
1.01062
1.01359
1.01593
1.25335
1.71112
1.00074
1.00232
1.00406
1.00601
1.00819
1.01062
1.01359
1.01592
1.23621
1.70049
1.00074
1.00231
1.00406
1.00601
1.00819
1.01062
1.0136
1.01591
1.21698
1.69596
1.00074
1.00231
1.00406
1.00601
1.00819
1.01061
1.0136
1.01589
1.19651
1.69978
1.00074
1.00231
1.00406
1.00601
1.00819
1.01061
1.0136
1.01588
1.17509
1.70485
1.00074
1.00231
1.00406
1.00601
1.0082
1.01061
1.01361
1.01587
1.15143
1.70191
1.00074
1.00231
1.00406
1.00601
1.0082
1.01061
1.01361
1.01587
1.1283
1.69257
1.00074
1.00231
1.00406
1.00601
1.0082
1.01061
1.01361
1.01587
1.10664
1.67782
1.00074
1.00231
1.00406
1.00601
1.0082
1.01061
1.01362
1.01588
1.08853
1.66028
1.00074
1.00231
1.00406
1.00601
1.0082
1.01061
1.01362
1.01589
1.07525
1.64296
1.00074
1.00231
1.00406
1.00601
1.0082
1.01061
1.01361
1.0159
1.06491
1.62697
1.00074
1.00231
1.00406
1.00601
1.0082
1.01061
1.01361
1.01592
1.05558
1.61146
1.00074
1.00231
1.00406
1.00601
1.0082
1.01061
1.0136
1.01595
1.04665
1.59331
1.00074
1.00231
1.00406
1.00601
1.0082
1.01061
1.0136
1.01598
1.0388
1.57507
1.00074
1.00231
1.00406
1.00601
1.0082
1.01061
1.01359
1.01602
1.03228
1.56056
1.00074
1.00231
1.00406
1.00601
1.0082
1.0106
1.01358
1.01608
1.02743
1.54823
1.00074
1.00231
1.00406
1.00601
1.0082
1.0106
1.01358
1.01614
1.02411
1.53828
1.00074
1.00231
1.00406
1.00601
1.0082
1.0106
1.01358
1.01614
1.02412
1.53834
1.00074
1.00231
1.00406
1.00601
1.0082
1.0106
1.01358
1.01608
1.02744
1.54835
1.00074
1.00231
1.00406
1.00601
1.0082
1.01061
1.01359
1.01602
1.0323
1.56069
1.00074
1.00231
1.00406
1.00601
1.0082
1.01061
1.0136
1.01598
1.03883
1.57519
1.00074
1.00231
1.00406
1.00601
1.0082
1.01061
1.0136
1.01595
1.04669
1.59338
1.00074
1.00231
1.00406
1.00601
1.0082
1.01061
1.01361
1.01592
1.05563
1.61144
1.00074
1.00231
1.00406
1.00601
1.0082
1.01061
1.01361
1.0159
1.06496
1.62688
1.00074
1.00231
1.00406
1.00601
1.0082
1.01061
1.01362
1.01589
1.07531
1.64288
1.00074
1.00231
1.00406
1.00601
1.0082
1.01061
1.01362
1.01588
1.08862
1.66021
1.00074
1.00231
1.00406
1.00601
1.0082
1.01061
1.01361
1.01587
1.10676
1.67774
1.00074
1.00231
1.00406
1.00601
1.0082
1.01061
1.01361
1.01587
1.12842
1.69253
1.00074
1.00231
1.00406
1.00601
1.0082
1.01061
1.01361
1.01587
1.15154
1.70194
1.00074
1.00231
1.00406
1.00601
1.00819
1.01061
1.0136
1.01588
1.17519
1.70497
1.00074
1.00231
1.00406
1.00601
1.00819
1.01061
1.0136
1.01589
1.19662
1.7
1.00074
1.00231
1.00406
1.00601
1.00819
1.01062
1.0136
1.01591
1.21706
1.69613
1.00074
1.00232
1.00406
1.00601
1.00819
1.01062
1.01359
1.01592
1.23626
1.70059
1.00074
1.00232
1.00406
1.00601
1.00819
1.01062
1.01359
1.01593
1.25338
1.71113
1.00074
1.00232
1.00406
1.00601
1.00819
1.01062
1.01359
1.01592
1.26604
1.72321
1.00074
1.00232
1.00406
1.00601
1.00819
1.01062
1.01359
1.01591
1.27375
1.73474
1.00074
1.00232
1.00406
1.00601
1.00819
1.01062
1.01359
1.01591
1.27634
1.7404
1.787
1.78206
1.77419
1.75713
1.7256
1.68285
1.63769
1.5994
1.56955
1.54635
1.79256
1.78361
1.76422
1.73137
1.68774
1.64424
1.60979
1.58391
1.56423
1.5445
1.78194
1.7638
1.73
1.68706
1.64974
1.61953
1.5981
1.58043
1.56375
1.54542
1.74536
1.71722
1.6809
1.64857
1.62658
1.61028
1.59667
1.5821
1.56619
1.54759
1.68315
1.66028
1.64068
1.62896
1.61884
1.60919
1.59881
1.58624
1.57067
1.55078
1.63196
1.62608
1.62333
1.62078
1.6178
1.61226
1.60353
1.59129
1.57539
1.55401
1.62441
1.62363
1.62362
1.62251
1.62018
1.61551
1.60853
1.59679
1.5801
1.55697
1.63589
1.63334
1.63215
1.62991
1.62715
1.62137
1.61407
1.60189
1.58464
1.55981
1.65223
1.64853
1.6461
1.64209
1.63799
1.62989
1.62133
1.60773
1.58904
1.56222
1.66805
1.66399
1.66111
1.65577
1.65043
1.64076
1.63011
1.61422
1.59353
1.56412
1.68231
1.67788
1.67468
1.66854
1.66253
1.65191
1.63979
1.62153
1.59824
1.56563
1.69319
1.68902
1.68584
1.67937
1.67328
1.66224
1.64941
1.62934
1.60341
1.56691
1.70573
1.70462
1.70267
1.69507
1.68707
1.67428
1.65971
1.63798
1.60961
1.56863
1.75929
1.74558
1.73351
1.71881
1.70706
1.69148
1.6745
1.65051
1.6188
1.57238
1.81463
1.79564
1.77562
1.75363
1.73595
1.71602
1.69535
1.66843
1.63308
1.57998
1.8561
1.8397
1.8204
1.79609
1.77379
1.74936
1.72454
1.69474
1.65598
1.59579
1.88748
1.87037
1.8547
1.83348
1.81197
1.78765
1.76151
1.73055
1.68843
1.62248
1.919
1.89775
1.88347
1.8646
1.84593
1.8246
1.79971
1.7688
1.72451
1.6588
1.94854
1.9207
1.90527
1.88723
1.86922
1.84888
1.82466
1.79387
1.74866
1.69491
2.00001
1.97211
1.94902
1.92516
1.90129
1.87776
1.85197
1.82195
1.77766
1.75515
1.50615
1.44177
1.37735
1.31773
1.25396
1.21356
1.21049
1.28316
1.33156
1.30566
1.5057
1.43887
1.37175
1.31078
1.24652
1.21244
1.21809
1.29765
1.33543
1.30832
1.50581
1.43572
1.36573
1.30325
1.23905
1.2116
1.22709
1.31174
1.33922
1.31139
1.50592
1.43198
1.35916
1.29509
1.23221
1.21117
1.23754
1.32493
1.34328
1.31492
1.50598
1.42748
1.35189
1.28595
1.22636
1.21121
1.24949
1.3355
1.34753
1.3188
1.50556
1.42204
1.34345
1.27685
1.22147
1.2109
1.26302
1.3464
1.35247
1.32281
1.50443
1.41525
1.33412
1.26794
1.21488
1.21246
1.27835
1.35365
1.35644
1.32638
1.50236
1.40683
1.32465
1.2579
1.20915
1.21476
1.29622
1.35951
1.35894
1.32891
1.49905
1.39702
1.31354
1.24707
1.20496
1.21783
1.31566
1.36535
1.36063
1.33019
1.4939
1.3851
1.30119
1.23662
1.20309
1.22667
1.3348
1.37217
1.36242
1.33127
1.48688
1.37056
1.28667
1.22966
1.20408
1.2387
1.35235
1.37909
1.36456
1.33263
1.47782
1.35265
1.27284
1.22827
1.20533
1.25344
1.36785
1.38477
1.36724
1.33459
1.46723
1.33301
1.26307
1.22612
1.20922
1.26992
1.3816
1.38963
1.37028
1.33687
1.45693
1.31611
1.25665
1.22228
1.21416
1.28705
1.39335
1.39389
1.3732
1.33885
1.44931
1.30538
1.25519
1.21706
1.21934
1.30489
1.40243
1.399
1.37638
1.34108
1.44645
1.30216
1.2594
1.21435
1.22231
1.32345
1.40917
1.40476
1.38117
1.34434
1.44633
1.30427
1.27022
1.21606
1.22572
1.34092
1.41346
1.40979
1.38701
1.3488
1.45503
1.31378
1.29048
1.22521
1.23278
1.35529
1.41457
1.41312
1.39275
1.35324
1.46703
1.33642
1.32264
1.2458
1.25575
1.36581
1.41498
1.41732
1.39894
1.35641
1.49859
1.38186
1.36962
1.27688
1.28675
1.37256
1.41621
1.43017
1.40963
1.35965
1.65038
1.64009
1.62544
1.58919
1.51145
1.40775
1.31024
1.23628
1.15399
1.07399
1.65015
1.63988
1.62509
1.58792
1.5108
1.40651
1.30907
1.23495
1.15306
1.07503
1.65025
1.64038
1.62549
1.58683
1.50903
1.4036
1.30649
1.23222
1.15122
1.07669
1.65091
1.64172
1.62636
1.585
1.50514
1.39851
1.3024
1.22822
1.14874
1.07941
1.65258
1.6443
1.62769
1.582
1.49828
1.39077
1.29665
1.22324
1.14631
1.08351
1.65543
1.64771
1.62854
1.57667
1.48829
1.38067
1.28928
1.21571
1.14262
1.08915
1.65918
1.65156
1.62812
1.56798
1.4748
1.36841
1.28108
1.20782
1.13988
1.09693
1.66309
1.65493
1.6253
1.55509
1.4576
1.35428
1.27144
1.19921
1.13799
1.10813
1.66669
1.65699
1.61858
1.53757
1.43744
1.33928
1.26162
1.19014
1.13589
1.12383
1.67032
1.6573
1.60677
1.51562
1.41646
1.32466
1.25142
1.18208
1.13536
1.14341
1.67418
1.65441
1.58862
1.4902
1.39364
1.31029
1.2413
1.17438
1.13755
1.16469
1.67837
1.64563
1.56316
1.46301
1.37254
1.29734
1.23159
1.16948
1.14252
1.18819
1.68117
1.6288
1.53275
1.435
1.35312
1.28571
1.22185
1.1676
1.15328
1.21087
1.67868
1.60266
1.49778
1.40964
1.33726
1.27516
1.2136
1.16851
1.16837
1.23057
1.66686
1.56921
1.46544
1.38856
1.32461
1.26482
1.20587
1.17142
1.18895
1.24743
1.64134
1.53256
1.4387
1.37248
1.31385
1.25445
1.20171
1.17564
1.21589
1.26137
1.60464
1.49811
1.4201
1.36078
1.3039
1.24292
1.19826
1.18441
1.24752
1.27453
1.56647
1.47298
1.40689
1.35075
1.29294
1.23191
1.19812
1.20262
1.27895
1.28615
1.53266
1.45744
1.3962
1.33979
1.28
1.22213
1.19958
1.22758
1.30553
1.29439
1.51283
1.44729
1.38567
1.32724
1.26586
1.21545
1.20353
1.25898
1.32303
1.30142
1.51217
1.44508
1.38232
1.32576
1.2693
1.21786
1.20013
1.24276
1.31994
1.30137
1.53212
1.45607
1.39378
1.33849
1.28438
1.22655
1.19741
1.20891
1.29528
1.29207
1.56609
1.47218
1.40506
1.34969
1.29594
1.23767
1.19665
1.18544
1.26176
1.28161
1.6046
1.49759
1.41873
1.35991
1.3058
1.24809
1.19718
1.17396
1.22596
1.26812
1.64142
1.53221
1.43781
1.37181
1.31518
1.2577
1.19953
1.17
1.19539
1.25315
1.66711
1.56936
1.46497
1.38836
1.32515
1.26706
1.20622
1.16823
1.17344
1.23704
1.67908
1.60291
1.49785
1.40961
1.33772
1.27642
1.2139
1.16628
1.15888
1.21925
1.68161
1.6293
1.53319
1.4354
1.35343
1.28629
1.22314
1.16726
1.14954
1.20067
1.67879
1.64627
1.56371
1.46332
1.3728
1.29778
1.23229
1.16975
1.14291
1.18152
1.67459
1.65499
1.58929
1.49091
1.39412
1.31055
1.24176
1.17582
1.13897
1.16278
1.67068
1.65782
1.60747
1.51626
1.41763
1.32533
1.25163
1.18259
1.13595
1.14547
1.66695
1.65744
1.61923
1.53843
1.43857
1.33983
1.26132
1.19018
1.13553
1.12856
1.66323
1.65526
1.62581
1.55578
1.45856
1.35636
1.27198
1.1983
1.13759
1.11303
1.65921
1.65173
1.62843
1.56849
1.47542
1.36892
1.28082
1.20606
1.13964
1.10119
1.65537
1.64771
1.62869
1.57704
1.48871
1.38098
1.28939
1.21441
1.14223
1.09261
1.65244
1.64416
1.6277
1.58222
1.49855
1.39104
1.29664
1.222
1.14541
1.0862
1.65068
1.64145
1.62622
1.58505
1.50527
1.39868
1.30264
1.22794
1.14814
1.08134
1.64994
1.64001
1.62524
1.58674
1.50909
1.40376
1.30686
1.23242
1.15084
1.078
1.6498
1.63944
1.62476
1.58776
1.51079
1.40664
1.30944
1.23541
1.15278
1.07581
1.65
1.63961
1.62507
1.58894
1.51142
1.40787
1.3106
1.23687
1.15383
1.07446
1.77544
1.77251
1.76998
1.76248
1.74701
1.72029
1.68317
1.63978
1.5982
1.56216
1.75614
1.75244
1.75338
1.75329
1.74914
1.73933
1.72058
1.68956
1.64863
1.60328
1.73763
1.73482
1.73789
1.74201
1.74253
1.74007
1.73288
1.7179
1.69145
1.65126
1.72435
1.7206
1.72353
1.72698
1.73118
1.73447
1.73289
1.72668
1.71285
1.68862
1.71965
1.71423
1.71554
1.71687
1.71928
1.72185
1.72358
1.72181
1.717
1.7054
1.71741
1.71153
1.70947
1.70761
1.7074
1.70799
1.70938
1.71058
1.71008
1.70654
1.71
1.70716
1.7044
1.70146
1.69908
1.69722
1.69667
1.69761
1.69818
1.69949
1.70267
1.70326
1.70016
1.69702
1.69385
1.69108
1.68826
1.68757
1.68736
1.68911
1.69452
1.70188
1.69746
1.69457
1.69127
1.68781
1.68439
1.6812
1.67975
1.67989
1.68884
1.69879
1.69422
1.69184
1.68896
1.68575
1.68247
1.67871
1.67567
1.67414
1.68484
1.69544
1.69105
1.68943
1.68702
1.684
1.68063
1.67674
1.6732
1.67042
1.68179
1.69235
1.68789
1.68666
1.68468
1.68217
1.67908
1.67535
1.67135
1.66766
1.67922
1.68978
1.68518
1.68383
1.68188
1.67961
1.67673
1.67326
1.66925
1.66544
1.67677
1.6877
1.68301
1.68128
1.67905
1.67675
1.67407
1.67096
1.66726
1.66314
1.67444
1.68595
1.68127
1.67922
1.67666
1.67415
1.67147
1.66864
1.66531
1.66102
1.67238
1.6844
1.67977
1.67762
1.67485
1.67212
1.66935
1.66666
1.66362
1.65933
1.67057
1.68308
1.6785
1.67639
1.67358
1.67076
1.6679
1.66525
1.6624
1.65826
1.66905
1.68209
1.67754
1.67553
1.67278
1.66999
1.66715
1.66449
1.66177
1.65776
1.66808
1.68147
1.67695
1.67501
1.67233
1.66961
1.66687
1.66423
1.66159
1.6576
1.6676
1.68118
1.67668
1.67482
1.67218
1.66948
1.66687
1.66426
1.6617
1.65769
1.00074
1.00231
1.00406
1.00601
1.0082
1.0106
1.01357
1.01623
1.02171
1.52457
1.00074
1.00231
1.00406
1.00601
1.0082
1.01061
1.01357
1.01633
1.02024
1.50391
1.00074
1.00231
1.00406
1.00601
1.0082
1.01061
1.01354
1.01642
1.01961
1.48176
1.00074
1.00231
1.00406
1.00601
1.0082
1.01062
1.0135
1.0165
1.01934
1.46252
1.00074
1.00231
1.00406
1.00601
1.0082
1.01063
1.01346
1.01657
1.01923
1.44548
1.00074
1.00231
1.00406
1.00601
1.0082
1.01063
1.01343
1.01662
1.0192
1.43141
1.00074
1.00231
1.00406
1.00601
1.0082
1.01063
1.01342
1.01666
1.0192
1.42053
1.00074
1.00231
1.00406
1.00601
1.0082
1.01063
1.01343
1.0167
1.01921
1.41314
1.00074
1.00231
1.00406
1.00601
1.0082
1.01063
1.01343
1.01674
1.01923
1.40539
1.00074
1.00231
1.00406
1.00601
1.0082
1.01063
1.01343
1.01676
1.01925
1.3979
1.00074
1.00231
1.00406
1.00601
1.0082
1.01063
1.01342
1.01679
1.01928
1.39077
1.00074
1.00231
1.00406
1.00601
1.0082
1.01064
1.01341
1.01681
1.01931
1.3839
1.00074
1.00231
1.00406
1.00601
1.0082
1.01064
1.01339
1.01682
1.01933
1.3775
1.00074
1.00231
1.00406
1.00601
1.0082
1.01064
1.01338
1.01684
1.01936
1.37166
1.00074
1.00231
1.00406
1.00601
1.0082
1.01065
1.01337
1.01685
1.01938
1.36645
1.00074
1.00231
1.00406
1.00601
1.00819
1.01065
1.01336
1.01687
1.0194
1.36198
1.00074
1.00231
1.00406
1.00601
1.00819
1.01066
1.01335
1.01689
1.01942
1.35832
1.00074
1.00231
1.00406
1.00601
1.00819
1.01066
1.01334
1.01691
1.01944
1.35551
1.00074
1.00231
1.00406
1.00601
1.00819
1.01066
1.01334
1.01692
1.01943
1.35368
1.00074
1.00231
1.00406
1.00601
1.00819
1.01066
1.01333
1.01695
1.01943
1.3529
1.00074
1.00231
1.00406
1.00601
1.00819
1.01066
1.01333
1.01695
1.01943
1.35278
1.00074
1.00231
1.00406
1.00601
1.00819
1.01066
1.01334
1.01692
1.01943
1.35357
1.00074
1.00231
1.00406
1.00601
1.00819
1.01066
1.01334
1.01691
1.01944
1.3554
1.00074
1.00231
1.00406
1.00601
1.00819
1.01066
1.01335
1.01689
1.01942
1.35823
1.00074
1.00231
1.00406
1.00601
1.00819
1.01065
1.01336
1.01687
1.0194
1.36192
1.00074
1.00231
1.00406
1.00601
1.0082
1.01065
1.01337
1.01685
1.01938
1.36641
1.00074
1.00231
1.00406
1.00601
1.0082
1.01064
1.01338
1.01684
1.01936
1.37164
1.00074
1.00231
1.00406
1.00601
1.0082
1.01064
1.01339
1.01682
1.01933
1.37751
1.00074
1.00231
1.00406
1.00601
1.0082
1.01064
1.01341
1.01681
1.01931
1.38393
1.00074
1.00231
1.00406
1.00601
1.0082
1.01063
1.01342
1.01679
1.01928
1.39083
1.00074
1.00231
1.00406
1.00601
1.0082
1.01063
1.01342
1.01676
1.01925
1.39798
1.00074
1.00231
1.00406
1.00601
1.0082
1.01063
1.01343
1.01674
1.01923
1.40549
1.00074
1.00231
1.00406
1.00601
1.0082
1.01063
1.01343
1.0167
1.01921
1.41325
1.00074
1.00231
1.00406
1.00601
1.0082
1.01063
1.01342
1.01666
1.0192
1.42064
1.00074
1.00231
1.00406
1.00601
1.0082
1.01063
1.01343
1.01662
1.0192
1.4315
1.00074
1.00231
1.00406
1.00601
1.0082
1.01063
1.01346
1.01657
1.01923
1.44554
1.00074
1.00231
1.00406
1.00601
1.0082
1.01062
1.0135
1.0165
1.01934
1.46256
1.00074
1.00231
1.00406
1.00601
1.0082
1.01061
1.01354
1.01642
1.01961
1.48177
1.00074
1.00231
1.00406
1.00601
1.0082
1.01061
1.01357
1.01633
1.02024
1.50392
1.00074
1.00231
1.00406
1.00601
1.0082
1.0106
1.01357
1.01623
1.02171
1.5246
1.66736
1.68097
1.67648
1.67465
1.67205
1.6694
1.66686
1.66436
1.6619
1.65797
1.66787
1.68128
1.67676
1.67486
1.67221
1.66954
1.66689
1.66434
1.66178
1.65785
1.66886
1.68192
1.6774
1.67541
1.6727
1.66997
1.66719
1.6646
1.66194
1.65798
1.67043
1.68295
1.67839
1.67632
1.67355
1.67077
1.66796
1.66536
1.66254
1.65843
1.67232
1.68433
1.67972
1.67759
1.67485
1.67215
1.66941
1.66675
1.66373
1.65945
1.67444
1.68594
1.68128
1.67924
1.67669
1.67419
1.67153
1.66871
1.66539
1.66109
1.67682
1.68775
1.68308
1.68134
1.67911
1.67681
1.67413
1.67103
1.66732
1.66317
1.67933
1.68988
1.68528
1.68392
1.68197
1.67969
1.67681
1.67333
1.6693
1.66543
1.68195
1.69248
1.68803
1.68678
1.68479
1.68228
1.67917
1.67542
1.67138
1.6676
1.68502
1.69561
1.69122
1.6896
1.68718
1.68415
1.68075
1.6768
1.67321
1.67027
1.68903
1.69898
1.69442
1.69203
1.68914
1.6859
1.68258
1.67875
1.67564
1.67391
1.69472
1.7021
1.69766
1.69477
1.69145
1.68795
1.68447
1.68122
1.67959
1.67961
1.70288
1.70348
1.70036
1.69721
1.69399
1.69117
1.68828
1.68749
1.68712
1.68877
1.71021
1.70736
1.70456
1.70158
1.69917
1.69724
1.69658
1.69744
1.69789
1.6991
1.71759
1.71169
1.70957
1.70766
1.70738
1.70792
1.70921
1.7103
1.70975
1.70619
1.71975
1.71429
1.71558
1.71685
1.71919
1.72169
1.72333
1.72151
1.71668
1.70511
1.72436
1.72057
1.72348
1.72688
1.73101
1.73422
1.73263
1.72642
1.7126
1.68848
1.73755
1.7347
1.73777
1.74183
1.74233
1.73984
1.73262
1.71767
1.69135
1.65127
1.75604
1.75225
1.75318
1.75307
1.74888
1.73908
1.7204
1.6895
1.64868
1.60336
1.7754
1.77237
1.76977
1.76223
1.74675
1.72011
1.68312
1.63982
1.59825
1.56223
)
;

boundaryField
{
    inlet
    {
        type            fixedValue;
        value           uniform 1;
    }
    outlet
    {
        type            inletOutlet;
        inletValue      uniform 1;
        value           nonuniform List<scalar> 
100
(
1.30119
1.29191
1.28145
1.26798
1.25304
1.23698
1.21924
1.2007
1.18159
1.16282
1.14547
1.12854
1.11297
1.10112
1.09254
1.08613
1.08128
1.07794
1.07575
1.0744
1.36704
1.36129
1.35785
1.35563
1.35265
1.34853
1.34474
1.34186
1.33968
1.33724
1.33479
1.33212
1.32968
1.32704
1.32425
1.32084
1.31737
1.31369
1.31038
1.30707
1.36836
1.38495
1.40581
1.43098
1.46327
1.49595
1.52479
1.54956
1.56654
1.5709
1.57139
1.56046
1.5424
1.51398
1.47913
1.44565
1.41636
1.3919
1.37791
1.37308
1.30557
1.3082
1.31127
1.3148
1.31869
1.32266
1.32624
1.32886
1.33021
1.33127
1.33256
1.33446
1.33676
1.33886
1.34098
1.34414
1.34852
1.35308
1.35659
1.35959
1.07396
1.07499
1.07665
1.07936
1.08345
1.08907
1.09684
1.10803
1.12372
1.1433
1.16457
1.18809
1.21081
1.23054
1.24738
1.26127
1.27439
1.28604
1.29429
1.30138
)
;
    }
    triangle
    {
        type            zeroGradient;
    }
    top
    {
        type            symmetryPlane;
    }
    bottom
    {
        type            symmetryPlane;
    }
    defaultFaces
    {
        type            empty;
    }
}


// ************************************************************************* //
