/*--------------------------------*- C++ -*----------------------------------*\
  =========                 |
  \\      /  F ield         | OpenFOAM: The Open Source CFD Toolbox
   \\    /   O peration     | Website:  https://openfoam.org
    \\  /    A nd           | Version:  8
     \\/     M anipulation  |
\*---------------------------------------------------------------------------*/
FoamFile
{
    version     2.0;
    format      ascii;
    class       volVectorField;
    location    "3.7";
    object      U;
}
// * * * * * * * * * * * * * * * * * * * * * * * * * * * * * * * * * * * * * //

dimensions      [0 1 -1 0 0 0 0];

internalField   nonuniform List<vector> 
2600
(
(0.7761 0.0849369 0)
(1.31553 0.220743 0)
(1.56348 0.211585 0)
(1.69108 0.285049 0)
(1.73823 0.295995 0)
(1.4352 0.227657 0)
(1.28603 0.127604 0)
(1.33924 -0.00519815 0)
(1.45035 -0.00725576 0)
(1.53022 0.0157907 0)
(0.264683 -0.100447 0)
(0.900598 0.159861 0)
(1.32448 0.158896 0)
(1.61543 0.227612 0)
(1.74609 0.255188 0)
(1.42427 0.226529 0)
(1.27691 0.121334 0)
(1.30874 -0.00828951 0)
(1.42236 -0.0188594 0)
(1.52094 0.00737703 0)
(0.0165809 -0.0973703 0)
(0.461556 0.0993082 0)
(0.935933 0.112127 0)
(1.43223 0.151959 0)
(1.72368 0.224007 0)
(1.41578 0.232357 0)
(1.26881 0.114703 0)
(1.25434 0.00244702 0)
(1.35984 -0.00545742 0)
(1.49842 0.00794309 0)
(-0.0939533 -0.110886 0)
(0.139655 0.0470827 0)
(0.508003 0.0494301 0)
(1.13009 0.0708585 0)
(1.64891 0.222987 0)
(1.40908 0.235698 0)
(1.25536 0.123083 0)
(1.16361 0.000782139 0)
(1.25437 -0.0209083 0)
(1.45358 0.0126644 0)
(-0.159128 -0.0891433 0)
(-0.0722533 0.0333331 0)
(0.125202 0.0038101 0)
(0.739066 0.00258186 0)
(1.49875 0.17722 0)
(1.39524 0.247597 0)
(1.22475 0.128145 0)
(1.04692 -0.00513008 0)
(1.11896 -0.0277188 0)
(1.38173 -0.000156389 0)
(-0.211812 -0.0714027 0)
(-0.226531 0.0466668 0)
(-0.18755 -0.0197701 0)
(0.329612 -0.0781357 0)
(1.27463 0.102968 0)
(1.35912 0.244906 0)
(1.1631 0.132867 0)
(0.922526 0.0208675 0)
(0.988197 -0.0328815 0)
(1.28978 -0.00788297 0)
(-0.248054 -0.0389205 0)
(-0.36305 0.0562351 0)
(-0.415262 -0.0284121 0)
(-0.0233653 -0.177375 0)
(0.968405 0.0322283 0)
(1.28487 0.224258 0)
(1.06273 0.141087 0)
(0.809887 0.0126144 0)
(0.900126 -0.0324224 0)
(1.19602 -0.0227888 0)
(-0.264799 0.00236605 0)
(-0.470089 0.0727211 0)
(-0.545501 -0.0463492 0)
(-0.269513 -0.247236 0)
(0.606275 -0.0604959 0)
(1.15026 0.20528 0)
(0.923518 0.167757 0)
(0.735703 0.0333935 0)
(0.869389 -0.0528223 0)
(1.11717 -0.0296262 0)
(-0.28037 0.0453531 0)
(-0.528338 0.0901392 0)
(-0.594094 -0.0534327 0)
(-0.384895 -0.283914 0)
(0.257968 -0.133039 0)
(0.937922 0.168161 0)
(0.759895 0.183531 0)
(0.705311 0.0333047 0)
(0.871331 -0.0737807 0)
(1.07059 -0.0344819 0)
(-0.287362 0.0909533 0)
(-0.546151 0.115499 0)
(-0.59786 -0.0502479 0)
(-0.410797 -0.307051 0)
(0.0107942 -0.176231 0)
(0.660296 0.161877 0)
(0.614535 0.185481 0)
(0.706316 0.0265833 0)
(0.911662 -0.0797966 0)
(1.05694 -0.0421321 0)
(-0.28577 0.136196 0)
(-0.531211 0.138059 0)
(-0.538087 -0.0462366 0)
(-0.354244 -0.319784 0)
(-0.0921433 -0.206469 0)
(0.391908 0.105917 0)
(0.533972 0.205782 0)
(0.768528 0.0144245 0)
(0.994757 -0.0873692 0)
(1.06183 -0.0489577 0)
(-0.269624 0.180589 0)
(-0.470087 0.135091 0)
(-0.349283 -0.0503673 0)
(-0.129288 -0.30553 0)
(-0.0932039 -0.228663 0)
(0.221251 0.096675 0)
(0.510816 0.174009 0)
(0.907084 -0.0123581 0)
(1.09911 -0.0953952 0)
(1.09111 -0.0408465 0)
(-0.235836 0.218215 0)
(-0.350019 0.137245 0)
(-0.0459819 -0.0885884 0)
(0.252066 -0.344923 0)
(0.0275493 -0.240944 0)
(0.187928 0.0482146 0)
(0.536385 0.132335 0)
(1.06716 -0.0306226 0)
(1.20089 -0.0964725 0)
(1.14766 -0.0377753 0)
(-0.185787 0.229607 0)
(-0.187941 0.115894 0)
(0.299191 -0.115884 0)
(0.702007 -0.322143 0)
(0.304599 -0.209323 0)
(0.243094 0.0212005 0)
(0.637508 0.09375 0)
(1.19919 -0.0627871 0)
(1.28383 -0.103598 0)
(1.21836 -0.0379916 0)
(-0.129636 0.238198 0)
(-0.00669563 0.1026 0)
(0.623166 -0.199186 0)
(1.0997 -0.324562 0)
(0.663229 -0.197756 0)
(0.425096 0.0432512 0)
(0.826853 0.0518955 0)
(1.29678 -0.0739279 0)
(1.34226 -0.0955516 0)
(1.28881 -0.0231958 0)
(-0.069174 0.223245 0)
(0.182747 0.0469227 0)
(0.92963 -0.269445 0)
(1.37324 -0.342836 0)
(0.983636 -0.160904 0)
(0.72281 0.0138464 0)
(1.06238 0.00685262 0)
(1.36344 -0.08369 0)
(1.38031 -0.0930862 0)
(1.3513 -0.0218629 0)
(0.00160207 0.21446 0)
(0.420583 -0.00974802 0)
(1.21353 -0.367817 0)
(1.53224 -0.364925 0)
(1.19835 -0.142027 0)
(1.03513 0.0311647 0)
(1.27306 -0.0138437 0)
(1.40601 -0.0925884 0)
(1.40379 -0.0989868 0)
(1.39985 -0.0110596 0)
(0.074326 0.159982 0)
(0.745119 -0.103889 0)
(1.46729 -0.440306 0)
(1.60873 -0.378059 0)
(1.31237 -0.150256 0)
(1.26981 0.0266718 0)
(1.41294 -0.0418194 0)
(1.42976 -0.0934582 0)
(1.41843 -0.0962718 0)
(1.43452 -0.0169397 0)
(0.278395 0.139953 0)
(1.15705 -0.1943 0)
(1.64839 -0.506244 0)
(1.63649 -0.379338 0)
(1.3645 -0.164248 0)
(1.40279 0.0177777 0)
(1.48497 -0.0701362 0)
(1.44068 -0.087197 0)
(1.42545 -0.0846533 0)
(1.45733 -0.0121266 0)
(0.75552 -0.0543599 0)
(1.5311 -0.257059 0)
(1.7477 -0.532716 0)
(1.64049 -0.402605 0)
(1.38481 -0.177524 0)
(1.46548 -0.00223328 0)
(1.51403 -0.0759589 0)
(1.44663 -0.0912244 0)
(1.43018 -0.076758 0)
(1.47155 -0.00364296 0)
(1.35546 -0.0124421 0)
(1.75505 -0.289005 0)
(1.77821 -0.544649 0)
(1.6367 -0.426779 0)
(1.39792 -0.190457 0)
(1.49402 -0.0264002 0)
(1.52267 -0.0739165 0)
(1.4531 -0.096183 0)
(1.43601 -0.0773077 0)
(1.48118 -0.00545272 0)
(1.49514 0.114723 0)
(1.82559 -0.267734 0)
(1.77084 -0.524045 0)
(1.65937 -0.457707 0)
(1.4129 -0.215111 0)
(1.50433 -0.0578701 0)
(1.52521 -0.0844252 0)
(1.45964 -0.100249 0)
(1.44401 -0.0771361 0)
(1.48941 -0.00763779 0)
(1.49563 0.131975 0)
(1.79544 -0.253525 0)
(1.74844 -0.507522 0)
(1.66764 -0.484028 0)
(1.43425 -0.24526 0)
(1.50057 -0.089596 0)
(1.53126 -0.0912078 0)
(1.4658 -0.0999701 0)
(1.45394 -0.0746676 0)
(1.49771 -0.00660679 0)
(1.44494 0.160905 0)
(1.7318 -0.200066 0)
(1.73448 -0.471004 0)
(1.6792 -0.496188 0)
(1.48883 -0.269236 0)
(1.51895 -0.116651 0)
(1.53932 -0.0936223 0)
(1.47207 -0.0983154 0)
(1.46422 -0.0701547 0)
(1.50641 -0.00313188 0)
(1.40155 0.170621 0)
(1.67937 -0.173351 0)
(1.72064 -0.446002 0)
(1.68955 -0.4927 0)
(1.54094 -0.295968 0)
(1.54035 -0.144207 0)
(1.54798 -0.0962918 0)
(1.47815 -0.0959637 0)
(1.47315 -0.0661404 0)
(1.5142 -0.00103606 0)
(1.36979 0.174019 0)
(1.63317 -0.130845 0)
(1.70233 -0.405305 0)
(1.68707 -0.488778 0)
(1.57944 -0.326754 0)
(1.55722 -0.172852 0)
(1.55625 -0.102053 0)
(1.48426 -0.0942583 0)
(1.48002 -0.0637804 0)
(1.52027 -0.0010869 0)
(1.3459 0.175836 0)
(1.59653 -0.100088 0)
(1.70162 -0.383974 0)
(1.67256 -0.475003 0)
(1.61041 -0.355472 0)
(1.57554 -0.204691 0)
(1.56614 -0.109813 0)
(1.49043 -0.0919925 0)
(1.48483 -0.0610104 0)
(1.52446 -0.00115256 0)
(1.32794 0.172497 0)
(1.56267 -0.0704931 0)
(1.69228 -0.334938 0)
(1.6646 -0.457978 0)
(1.63678 -0.380099 0)
(1.59335 -0.237056 0)
(1.57853 -0.120464 0)
(1.49516 -0.0910632 0)
(1.48784 -0.0584284 0)
(1.52658 0.00028568 0)
(1.31308 0.170985 0)
(1.53673 -0.0519012 0)
(1.67286 -0.295499 0)
(1.66501 -0.438987 0)
(1.64694 -0.398714 0)
(1.60828 -0.266138 0)
(1.59272 -0.133782 0)
(1.49963 -0.089668 0)
(1.48968 -0.0557512 0)
(1.52754 0.00190859 0)
(1.29992 0.168373 0)
(1.51306 -0.0325842 0)
(1.64818 -0.261409 0)
(1.66142 -0.412051 0)
(1.65546 -0.405141 0)
(1.63264 -0.297412 0)
(1.60659 -0.150261 0)
(1.50232 -0.0901595 0)
(1.49126 -0.0556418 0)
(1.52818 0.00300526 0)
(1.28775 0.166508 0)
(1.49194 -0.0155416 0)
(1.62524 -0.233809 0)
(1.65484 -0.391299 0)
(1.66398 -0.403819 0)
(1.64782 -0.323002 0)
(1.61713 -0.169112 0)
(1.50166 -0.0940678 0)
(1.4923 -0.0575358 0)
(1.5281 0.00273597 0)
(1.27641 0.163976 0)
(1.47019 0.00127838 0)
(1.60494 -0.207249 0)
(1.64161 -0.369798 0)
(1.66589 -0.403257 0)
(1.65958 -0.349182 0)
(1.6271 -0.193341 0)
(1.5025 -0.0981459 0)
(1.49532 -0.0606661 0)
(1.52852 0.00217445 0)
(1.26571 0.161471 0)
(1.4507 0.0125573 0)
(1.58121 -0.175451 0)
(1.63315 -0.352613 0)
(1.66484 -0.401228 0)
(1.66684 -0.368716 0)
(1.63358 -0.218317 0)
(1.51004 -0.104711 0)
(1.50056 -0.0627493 0)
(1.53079 0.00272075 0)
(1.25582 0.159819 0)
(1.43174 0.0227775 0)
(1.56005 -0.151467 0)
(1.62532 -0.32677 0)
(1.66002 -0.397062 0)
(1.67388 -0.383214 0)
(1.64057 -0.24411 0)
(1.52275 -0.109981 0)
(1.50805 -0.0631173 0)
(1.53518 0.00388419 0)
(1.2469 0.158368 0)
(1.41454 0.0317946 0)
(1.53823 -0.129495 0)
(1.61411 -0.300106 0)
(1.65291 -0.391743 0)
(1.6787 -0.392362 0)
(1.64985 -0.269886 0)
(1.5389 -0.115063 0)
(1.51723 -0.0639911 0)
(1.54139 0.00460775 0)
(1.239 0.157703 0)
(1.39828 0.0408144 0)
(1.52049 -0.112825 0)
(1.59843 -0.273375 0)
(1.64491 -0.385231 0)
(1.68495 -0.399237 0)
(1.66034 -0.295798 0)
(1.5593 -0.123678 0)
(1.5266 -0.0641654 0)
(1.54781 0.00538949 0)
(1.23262 0.156512 0)
(1.38321 0.0485401 0)
(1.50203 -0.0950591 0)
(1.58486 -0.253333 0)
(1.63966 -0.375774 0)
(1.68521 -0.403419 0)
(1.67262 -0.323578 0)
(1.58098 -0.137717 0)
(1.53401 -0.0642076 0)
(1.55308 0.00650123 0)
(1.22764 0.156528 0)
(1.37024 0.0542359 0)
(1.48551 -0.0815874 0)
(1.57012 -0.231191 0)
(1.63202 -0.357341 0)
(1.6843 -0.405918 0)
(1.68352 -0.348858 0)
(1.60045 -0.155813 0)
(1.54057 -0.0653052 0)
(1.55748 0.007611 0)
(1.22429 0.15509 0)
(1.35832 0.0590866 0)
(1.4699 -0.0695072 0)
(1.55778 -0.213855 0)
(1.62403 -0.338902 0)
(1.68176 -0.405882 0)
(1.69207 -0.368879 0)
(1.61886 -0.179785 0)
(1.54611 -0.0673848 0)
(1.56027 0.00766073 0)
(1.22169 0.156112 0)
(1.34816 0.0623276 0)
(1.45691 -0.060311 0)
(1.54397 -0.195325 0)
(1.61658 -0.320259 0)
(1.67923 -0.403668 0)
(1.69824 -0.384007 0)
(1.63529 -0.208725 0)
(1.55108 -0.0700501 0)
(1.56323 0.00842875 0)
(0.380039 0.0947718 0)
(0.467607 0.145191 0)
(0.515944 0.216296 0)
(0.568592 0.265875 0)
(0.61286 0.306116 0)
(0.657566 0.337343 0)
(0.705986 0.367437 0)
(0.768396 0.396441 0)
(0.855755 0.439254 0)
(1.01497 0.478895 0)
(0.412431 0.135836 0)
(0.477064 0.164981 0)
(0.509288 0.219806 0)
(0.558821 0.263529 0)
(0.603474 0.303317 0)
(0.651207 0.334866 0)
(0.70289 0.365625 0)
(0.768093 0.395671 0)
(0.856492 0.434145 0)
(1.01046 0.464985 0)
(0.470299 0.121044 0)
(0.516689 0.144492 0)
(0.534719 0.189751 0)
(0.575071 0.228526 0)
(0.613465 0.268188 0)
(0.660275 0.301283 0)
(0.713478 0.334353 0)
(0.782358 0.365493 0)
(0.87803 0.404251 0)
(1.03682 0.417415 0)
(0.535518 0.139955 0)
(0.567858 0.159833 0)
(0.57911 0.194668 0)
(0.611445 0.2226 0)
(0.640259 0.255519 0)
(0.681138 0.284391 0)
(0.729832 0.315026 0)
(0.795657 0.341529 0)
(0.888829 0.372889 0)
(1.04035 0.372526 0)
(0.598942 0.144691 0)
(0.621332 0.165784 0)
(0.627904 0.198205 0)
(0.654249 0.221669 0)
(0.675513 0.250991 0)
(0.712316 0.273844 0)
(0.757131 0.299863 0)
(0.820399 0.32129 0)
(0.911657 0.348542 0)
(1.05774 0.34065 0)
(0.650279 0.164457 0)
(0.668472 0.179147 0)
(0.671675 0.203109 0)
(0.693102 0.221775 0)
(0.711689 0.248305 0)
(0.747515 0.269723 0)
(0.790961 0.294231 0)
(0.852923 0.31208 0)
(0.93953 0.329883 0)
(1.07678 0.319988 0)
(0.693136 0.175204 0)
(0.705394 0.191423 0)
(0.708316 0.215977 0)
(0.730529 0.230193 0)
(0.749441 0.249566 0)
(0.783755 0.261945 0)
(0.824404 0.281155 0)
(0.883649 0.295922 0)
(0.965598 0.31153 0)
(1.09079 0.300939 0)
(0.731312 0.182416 0)
(0.742359 0.19218 0)
(0.748442 0.209044 0)
(0.770645 0.222682 0)
(0.788306 0.244283 0)
(0.821045 0.259581 0)
(0.859661 0.276488 0)
(0.915224 0.287079 0)
(0.98935 0.295192 0)
(1.10044 0.283313 0)
(0.780644 0.193786 0)
(0.788888 0.203189 0)
(0.793002 0.219225 0)
(0.810898 0.230956 0)
(0.827457 0.246963 0)
(0.85757 0.256035 0)
(0.892936 0.270188 0)
(0.944352 0.278541 0)
(1.01158 0.283105 0)
(1.10996 0.270265 0)
(0.825553 0.207167 0)
(0.83249 0.214084 0)
(0.836191 0.225178 0)
(0.850686 0.234146 0)
(0.864715 0.247606 0)
(0.89106 0.256376 0)
(0.922387 0.264616 0)
(0.968798 0.270814 0)
(1.02851 0.27013 0)
(1.11527 0.25617 0)
(0.864723 0.21815 0)
(0.869786 0.223711 0)
(0.872355 0.2326 0)
(0.883485 0.239465 0)
(0.895822 0.248655 0)
(0.918627 0.253458 0)
(0.946574 0.261305 0)
(0.989099 0.263768 0)
(1.04274 0.259186 0)
(1.11986 0.244706 0)
(0.897731 0.232416 0)
(0.900541 0.235211 0)
(0.902023 0.240497 0)
(0.910048 0.245461 0)
(0.920984 0.251758 0)
(0.941055 0.254122 0)
(0.966191 0.254835 0)
(1.00448 0.253011 0)
(1.05324 0.246576 0)
(1.12251 0.233387 0)
(0.92346 0.243785 0)
(0.925077 0.244918 0)
(0.925996 0.247495 0)
(0.932277 0.248219 0)
(0.941912 0.249841 0)
(0.959312 0.24842 0)
(0.982114 0.245758 0)
(1.01767 0.243242 0)
(1.06239 0.236529 0)
(1.12438 0.223936 0)
(0.944334 0.25306 0)
(0.944061 0.251456 0)
(0.94378 0.249583 0)
(0.94889 0.247286 0)
(0.958253 0.243986 0)
(0.974251 0.239684 0)
(0.995938 0.236591 0)
(1.02887 0.233195 0)
(1.06991 0.226353 0)
(1.126 0.215777 0)
(0.964132 0.262558 0)
(0.961637 0.25698 0)
(0.959514 0.246491 0)
(0.961835 0.236074 0)
(0.971351 0.232192 0)
(0.988167 0.230685 0)
(1.00822 0.22671 0)
(1.03908 0.224419 0)
(1.07752 0.21998 0)
(1.12768 0.210248 0)
(0.991957 0.263411 0)
(0.985898 0.247408 0)
(0.981492 0.239016 0)
(0.982195 0.233993 0)
(0.988429 0.226687 0)
(1.00197 0.219979 0)
(1.02168 0.220274 0)
(1.04973 0.220102 0)
(1.08452 0.215269 0)
(1.1294 0.205544 0)
(1.01502 0.271604 0)
(1.01213 0.256786 0)
(1.00358 0.237997 0)
(1.00236 0.226083 0)
(1.00798 0.222261 0)
(1.02044 0.221706 0)
(1.03748 0.220149 0)
(1.06126 0.216827 0)
(1.092 0.211962 0)
(1.13185 0.202541 0)
(1.02947 0.273473 0)
(1.03231 0.266401 0)
(1.02605 0.249686 0)
(1.02521 0.237268 0)
(1.02819 0.229135 0)
(1.03801 0.223246 0)
(1.05273 0.219776 0)
(1.07356 0.217891 0)
(1.10045 0.211465 0)
(1.1355 0.201093 0)
(1.0465 0.269312 0)
(1.05106 0.268417 0)
(1.05123 0.263627 0)
(1.05266 0.25451 0)
(1.0532 0.240989 0)
(1.05742 0.231763 0)
(1.06802 0.224262 0)
(1.08521 0.217639 0)
(1.10997 0.212727 0)
(1.14054 0.200505 0)
(1.07894 0.285771 0)
(1.08273 0.277635 0)
(1.08244 0.274329 0)
(1.08398 0.269065 0)
(1.08261 0.256776 0)
(1.08211 0.244343 0)
(1.08743 0.232807 0)
(1.09803 0.221682 0)
(1.11897 0.211335 0)
(1.1467 0.201905 0)
(2.26748 1.24597e-07 0)
(2.25866 -4.7309e-07 0)
(2.249 9.93277e-07 0)
(2.23839 -2.19383e-06 0)
(2.2267 3.55232e-06 0)
(2.21402 -8.22206e-06 0)
(2.19859 1.20028e-05 0)
(2.18822 -2.39062e-05 0)
(1.62729 0.0161605 0)
(0.456155 0.0248062 0)
(2.26748 3.61272e-07 0)
(2.25866 -1.36814e-06 0)
(2.249 2.86825e-06 0)
(2.23839 -6.19808e-06 0)
(2.2267 1.0015e-05 0)
(2.21402 -2.22094e-05 0)
(2.19859 3.61182e-05 0)
(2.18823 -8.60603e-05 0)
(1.62924 0.0514594 0)
(0.490075 0.0630286 0)
(2.26748 5.96834e-07 0)
(2.25866 -2.25245e-06 0)
(2.249 4.7314e-06 0)
(2.23839 -1.01787e-05 0)
(2.22669 1.64251e-05 0)
(2.21402 -3.56341e-05 0)
(2.1986 5.62417e-05 0)
(2.18824 -0.000128732 0)
(1.6482 0.0878098 0)
(0.537895 0.094938 0)
(2.26748 8.28713e-07 0)
(2.25866 -3.11071e-06 0)
(2.249 6.54454e-06 0)
(2.23839 -1.39881e-05 0)
(2.22669 2.25919e-05 0)
(2.21402 -4.78269e-05 0)
(2.19861 7.56953e-05 0)
(2.18821 -0.000224575 0)
(1.68409 0.120428 0)
(0.592724 0.126361 0)
(2.26748 1.05489e-06 0)
(2.25866 -3.93298e-06 0)
(2.249 8.29343e-06 0)
(2.23839 -1.75974e-05 0)
(2.22669 2.84251e-05 0)
(2.21403 -5.84453e-05 0)
(2.19862 9.07121e-05 0)
(2.18809 -0.000303419 0)
(1.73473 0.1482 0)
(0.655216 0.144307 0)
(2.26748 1.27373e-06 0)
(2.25866 -4.71141e-06 0)
(2.249 9.96327e-06 0)
(2.23839 -2.09762e-05 0)
(2.22669 3.39448e-05 0)
(2.21403 -6.86405e-05 0)
(2.19861 0.000107176 0)
(2.18792 -0.000332688 0)
(1.79564 0.170432 0)
(0.717646 0.169697 0)
(2.26748 1.48367e-06 0)
(2.25866 -5.43987e-06 0)
(2.249 1.15424e-05 0)
(2.2384 -2.40966e-05 0)
(2.22669 3.9011e-05 0)
(2.21404 -7.70643e-05 0)
(2.19861 0.000123906 0)
(2.18776 -0.000378827 0)
(1.86249 0.184754 0)
(0.787249 0.183612 0)
(2.26748 1.68323e-06 0)
(2.25866 -6.11365e-06 0)
(2.249 1.3022e-05 0)
(2.2384 -2.6967e-05 0)
(2.22669 4.37582e-05 0)
(2.21404 -8.46475e-05 0)
(2.19862 0.000139269 0)
(2.18764 -0.000392085 0)
(1.92902 0.192213 0)
(0.855525 0.204056 0)
(2.26748 1.87107e-06 0)
(2.25866 -6.72913e-06 0)
(2.249 1.43919e-05 0)
(2.2384 -2.95708e-05 0)
(2.22669 4.81558e-05 0)
(2.21405 -9.15529e-05 0)
(2.19862 0.000154915 0)
(2.18754 -0.00039857 0)
(1.99351 0.19284 0)
(0.914652 0.220782 0)
(2.26748 2.04604e-06 0)
(2.25866 -7.28451e-06 0)
(2.249 1.56468e-05 0)
(2.2384 -3.19133e-05 0)
(2.22669 5.22443e-05 0)
(2.21405 -9.78113e-05 0)
(2.19863 0.000169209 0)
(2.18745 -0.000391137 0)
(2.05434 0.185357 0)
(0.965386 0.238567 0)
(2.26748 2.20728e-06 0)
(2.25866 -7.77916e-06 0)
(2.249 1.67814e-05 0)
(2.2384 -3.39921e-05 0)
(2.22669 5.60419e-05 0)
(2.21405 -0.000103843 0)
(2.19864 0.000183559 0)
(2.18736 -0.000376241 0)
(2.1142 0.170969 0)
(1.01264 0.253417 0)
(2.26748 2.35428e-06 0)
(2.25866 -8.21413e-06 0)
(2.249 1.77944e-05 0)
(2.2384 -3.58086e-05 0)
(2.22669 5.95343e-05 0)
(2.21406 -0.000109583 0)
(2.19866 0.000197573 0)
(2.18728 -0.000358436 0)
(2.17257 0.150038 0)
(1.05667 0.271542 0)
(2.26748 2.4869e-06 0)
(2.25866 -8.59182e-06 0)
(2.249 1.86874e-05 0)
(2.2384 -3.73696e-05 0)
(2.22669 6.27106e-05 0)
(2.21406 -0.000115037 0)
(2.19868 0.000210516 0)
(2.18721 -0.000345658 0)
(2.21694 0.121865 0)
(1.10129 0.28944 0)
(2.26748 2.60538e-06 0)
(2.25866 -8.91565e-06 0)
(2.249 1.94626e-05 0)
(2.23841 -3.86765e-05 0)
(2.22669 6.55101e-05 0)
(2.21406 -0.000119976 0)
(2.1987 0.00022225 0)
(2.18714 -0.000335635 0)
(2.24509 0.0931644 0)
(1.14551 0.310097 0)
(2.26748 2.7104e-06 0)
(2.25866 -9.19038e-06 0)
(2.249 2.0125e-05 0)
(2.23841 -3.97355e-05 0)
(2.2267 6.7893e-05 0)
(2.21406 -0.000124235 0)
(2.19872 0.000239474 0)
(2.18706 -0.000337624 0)
(2.25634 0.0690712 0)
(1.18875 0.331441 0)
(2.26748 2.80303e-06 0)
(2.25866 -9.42196e-06 0)
(2.249 2.06827e-05 0)
(2.23841 -4.05616e-05 0)
(2.2267 6.98402e-05 0)
(2.21406 -0.000127479 0)
(2.19876 0.000253712 0)
(2.18696 -0.000355953 0)
(2.25163 0.0500979 0)
(1.22415 0.350128 0)
(2.26748 2.88463e-06 0)
(2.25866 -9.61734e-06 0)
(2.249 2.11442e-05 0)
(2.23841 -4.11557e-05 0)
(2.2267 7.12462e-05 0)
(2.21406 -0.000129691 0)
(2.1988 0.000270241 0)
(2.18682 -0.000390686 0)
(2.23634 0.0334191 0)
(1.25296 0.35455 0)
(2.26748 2.95668e-06 0)
(2.25866 -9.78482e-06 0)
(2.249 2.15277e-05 0)
(2.23841 -4.15618e-05 0)
(2.2267 7.20168e-05 0)
(2.21406 -0.000127979 0)
(2.19886 0.000284819 0)
(2.18664 -0.000443401 0)
(2.2173 0.0210473 0)
(1.26948 0.344675 0)
(2.26748 3.02091e-06 0)
(2.25866 -9.93282e-06 0)
(2.249 2.18563e-05 0)
(2.23841 -4.18789e-05 0)
(2.2267 7.23959e-05 0)
(2.21405 -0.000123891 0)
(2.19894 0.000292653 0)
(2.18637 -0.000510109 0)
(2.20022 0.0128537 0)
(1.27991 0.32735 0)
(2.26748 3.07858e-06 0)
(2.25866 -1.00684e-05 0)
(2.249 2.21593e-05 0)
(2.23841 -4.22213e-05 0)
(2.2267 7.2865e-05 0)
(2.21404 -0.00011937 0)
(2.19903 0.000291264 0)
(2.18602 -0.00057692 0)
(2.1881 0.00731554 0)
(1.28025 0.295509 0)
(2.26748 -3.07866e-06 0)
(2.25866 1.00682e-05 0)
(2.249 -2.21583e-05 0)
(2.23841 4.22179e-05 0)
(2.2267 -7.28574e-05 0)
(2.21404 0.000119349 0)
(2.19903 -0.000291269 0)
(2.18602 0.000577247 0)
(2.18811 -0.00732867 0)
(1.2802 -0.295395 0)
(2.26748 -3.02101e-06 0)
(2.25866 9.93268e-06 0)
(2.249 -2.18555e-05 0)
(2.23841 4.18757e-05 0)
(2.2267 -7.23885e-05 0)
(2.21405 0.000123876 0)
(2.19894 -0.000292674 0)
(2.18637 0.000510373 0)
(2.20025 -0.0128776 0)
(1.28002 -0.327194 0)
(2.26748 -2.95682e-06 0)
(2.25866 9.78474e-06 0)
(2.249 -2.15269e-05 0)
(2.23841 4.15586e-05 0)
(2.2267 -7.20096e-05 0)
(2.21406 0.000127967 0)
(2.19886 -0.000284851 0)
(2.18664 0.000443611 0)
(2.21737 -0.0210832 0)
(1.26967 -0.344534 0)
(2.26748 -2.8848e-06 0)
(2.25866 9.61733e-06 0)
(2.249 -2.11436e-05 0)
(2.23841 4.11526e-05 0)
(2.2267 -7.12395e-05 0)
(2.21406 0.000129688 0)
(2.1988 -0.000270262 0)
(2.18683 0.000390873 0)
(2.23644 -0.0334764 0)
(1.25319 -0.354428 0)
(2.26748 -2.80323e-06 0)
(2.25866 9.42202e-06 0)
(2.249 -2.06822e-05 0)
(2.23841 4.05588e-05 0)
(2.2267 -6.98336e-05 0)
(2.21406 0.000127477 0)
(2.19876 -0.000253719 0)
(2.18696 0.000356146 0)
(2.25172 -0.0501788 0)
(1.22437 -0.350026 0)
(2.26748 -2.71064e-06 0)
(2.25866 9.19052e-06 0)
(2.249 -2.01246e-05 0)
(2.23841 3.97327e-05 0)
(2.2267 -6.78856e-05 0)
(2.21406 0.000124233 0)
(2.19872 -0.000239461 0)
(2.18706 0.000337801 0)
(2.25637 -0.0691769 0)
(1.18887 -0.331369 0)
(2.26748 -2.60566e-06 0)
(2.25866 8.91587e-06 0)
(2.249 -1.94623e-05 0)
(2.23841 3.86738e-05 0)
(2.22669 -6.55019e-05 0)
(2.21406 0.00011997 0)
(2.1987 -0.000222215 0)
(2.18714 0.000335842 0)
(2.24503 -0.0933025 0)
(1.14558 -0.310065 0)
(2.26748 -2.48721e-06 0)
(2.25866 8.59214e-06 0)
(2.249 -1.86873e-05 0)
(2.2384 3.73672e-05 0)
(2.22669 -6.27026e-05 0)
(2.21406 0.000115027 0)
(2.19868 -0.000210464 0)
(2.18721 0.00034584 0)
(2.21677 -0.121999 0)
(1.10136 -0.289433 0)
(2.26748 -2.35463e-06 0)
(2.25866 8.21454e-06 0)
(2.249 -1.77944e-05 0)
(2.2384 3.58062e-05 0)
(2.22669 -5.95255e-05 0)
(2.21406 0.000109569 0)
(2.19866 -0.0001975 0)
(2.18728 0.000358586 0)
(2.1723 -0.150126 0)
(1.05674 -0.271522 0)
(2.26748 -2.20766e-06 0)
(2.25866 7.77967e-06 0)
(2.249 -1.67816e-05 0)
(2.2384 3.39901e-05 0)
(2.22669 -5.60346e-05 0)
(2.21405 0.000103832 0)
(2.19864 -0.000183471 0)
(2.18736 0.000376423 0)
(2.11387 -0.171012 0)
(1.01269 -0.253423 0)
(2.26748 -2.04644e-06 0)
(2.25866 7.28512e-06 0)
(2.249 -1.56472e-05 0)
(2.2384 3.19114e-05 0)
(2.22669 -5.22368e-05 0)
(2.21405 9.77928e-05 0)
(2.19863 -0.000169108 0)
(2.18745 0.000391187 0)
(2.054 -0.185357 0)
(0.965469 -0.238562 0)
(2.26748 -1.87149e-06 0)
(2.25866 6.72983e-06 0)
(2.249 -1.43924e-05 0)
(2.2384 2.95692e-05 0)
(2.22669 -4.81495e-05 0)
(2.21405 9.15384e-05 0)
(2.19862 -0.000154824 0)
(2.18754 0.000398631 0)
(1.99321 -0.192795 0)
(0.914777 -0.220842 0)
(2.26748 -1.68368e-06 0)
(2.25866 6.11443e-06 0)
(2.249 -1.30226e-05 0)
(2.2384 2.69654e-05 0)
(2.22669 -4.3752e-05 0)
(2.21404 8.46271e-05 0)
(2.19862 -0.000139168 0)
(2.18764 0.000391931 0)
(1.92879 -0.192153 0)
(0.855783 -0.204034 0)
(2.26748 -1.48413e-06 0)
(2.25866 5.44073e-06 0)
(2.249 -1.1543e-05 0)
(2.2384 2.40951e-05 0)
(2.22669 -3.90057e-05 0)
(2.21404 7.70464e-05 0)
(2.19861 -0.00012384 0)
(2.18776 0.000378877 0)
(1.86233 -0.184674 0)
(0.78759 -0.183655 0)
(2.26748 -1.2742e-06 0)
(2.25866 4.71233e-06 0)
(2.249 -9.96389e-06 0)
(2.23839 2.09744e-05 0)
(2.22669 -3.39385e-05 0)
(2.21403 6.86178e-05 0)
(2.19861 -0.00010712 0)
(2.18792 0.000332044 0)
(1.79556 -0.170335 0)
(0.717932 -0.169681 0)
(2.26748 -1.05537e-06 0)
(2.25866 3.93396e-06 0)
(2.249 -8.29416e-06 0)
(2.23839 1.75962e-05 0)
(2.22669 -2.84218e-05 0)
(2.21403 5.84243e-05 0)
(2.19862 -9.06567e-05 0)
(2.18809 0.000304008 0)
(1.73467 -0.148107 0)
(0.65546 -0.144173 0)
(2.26748 -8.29203e-07 0)
(2.25866 3.11173e-06 0)
(2.249 -6.54517e-06 0)
(2.23839 1.39858e-05 0)
(2.22669 -2.25828e-05 0)
(2.21402 4.77779e-05 0)
(2.19861 -7.56973e-05 0)
(2.18821 0.000223754 0)
(1.68403 -0.120347 0)
(0.592897 -0.126369 0)
(2.26748 -5.9733e-07 0)
(2.25866 2.25352e-06 0)
(2.249 -4.73218e-06 0)
(2.23839 1.01777e-05 0)
(2.22669 -1.64275e-05 0)
(2.21402 3.56866e-05 0)
(2.1986 -5.6243e-05 0)
(2.18824 0.000128068 0)
(1.64816 -0.0877257 0)
(0.538032 -0.0949409 0)
(2.26748 -3.61771e-07 0)
(2.25866 1.36922e-06 0)
(2.249 -2.86889e-06 0)
(2.23839 6.19539e-06 0)
(2.2267 -1.00026e-05 0)
(2.21402 2.20922e-05 0)
(2.19859 -3.57719e-05 0)
(2.18822 8.70761e-05 0)
(1.62922 -0.0513806 0)
(0.490218 -0.0630478 0)
(2.26748 -1.25101e-07 0)
(2.25866 4.74201e-07 0)
(2.249 -9.94013e-07 0)
(2.23839 2.19209e-06 0)
(2.2267 -3.54985e-06 0)
(2.21402 8.26101e-06 0)
(2.19859 -1.23779e-05 0)
(2.18823 2.43608e-05 0)
(1.62733 -0.016086 0)
(0.456234 -0.0248812 0)
(1.07941 -0.285171 0)
(1.08331 -0.277193 0)
(1.08313 -0.274045 0)
(1.08472 -0.268868 0)
(1.08337 -0.256599 0)
(1.08283 -0.244175 0)
(1.08819 -0.232712 0)
(1.09857 -0.221604 0)
(1.11929 -0.21141 0)
(1.14677 -0.202139 0)
(1.04687 -0.268974 0)
(1.05153 -0.268122 0)
(1.05184 -0.263405 0)
(1.05335 -0.254359 0)
(1.05389 -0.240897 0)
(1.05807 -0.231678 0)
(1.06863 -0.224208 0)
(1.08558 -0.217726 0)
(1.11023 -0.21289 0)
(1.14042 -0.200867 0)
(1.02987 -0.273323 0)
(1.03277 -0.266195 0)
(1.02655 -0.249481 0)
(1.02579 -0.23713 0)
(1.0288 -0.229078 0)
(1.03855 -0.223232 0)
(1.05321 -0.21983 0)
(1.07391 -0.217973 0)
(1.10062 -0.211741 0)
(1.13518 -0.201612 0)
(1.01536 -0.271427 0)
(1.01252 -0.256602 0)
(1.00401 -0.237809 0)
(1.00283 -0.225955 0)
(1.00851 -0.222233 0)
(1.02091 -0.221723 0)
(1.03789 -0.22024 0)
(1.06151 -0.217089 0)
(1.09202 -0.212363 0)
(1.13129 -0.203164 0)
(0.992218 -0.263326 0)
(0.986261 -0.247418 0)
(0.981914 -0.23909 0)
(0.982621 -0.234036 0)
(0.988882 -0.22669 0)
(1.00237 -0.219997 0)
(1.02201 -0.220464 0)
(1.04982 -0.220417 0)
(1.08434 -0.215816 0)
(1.12856 -0.206381 0)
(0.964434 -0.262621 0)
(0.962018 -0.257032 0)
(0.959938 -0.246487 0)
(0.962259 -0.236094 0)
(0.971787 -0.232321 0)
(0.988495 -0.230819 0)
(1.00842 -0.226935 0)
(1.03899 -0.224793 0)
(1.07711 -0.220691 0)
(1.12655 -0.211283 0)
(0.94476 -0.253093 0)
(0.94452 -0.25154 0)
(0.944247 -0.24969 0)
(0.949317 -0.247386 0)
(0.958633 -0.244102 0)
(0.97446 -0.239792 0)
(0.996019 -0.236918 0)
(1.02857 -0.233624 0)
(1.0692 -0.227204 0)
(1.12459 -0.216985 0)
(0.923738 -0.243684 0)
(0.925457 -0.244926 0)
(0.926416 -0.247541 0)
(0.932665 -0.248314 0)
(0.942218 -0.24998 0)
(0.959413 -0.24856 0)
(0.982012 -0.24609 0)
(1.01711 -0.243688 0)
(1.06136 -0.237495 0)
(1.12271 -0.225208 0)
(0.898004 -0.232388 0)
(0.90087 -0.235243 0)
(0.902375 -0.240554 0)
(0.910402 -0.245521 0)
(0.921204 -0.251886 0)
(0.941054 -0.254263 0)
(0.965933 -0.25534 0)
(1.00364 -0.253511 0)
(1.05189 -0.247598 0)
(1.12063 -0.23469 0)
(0.865058 -0.218247 0)
(0.870132 -0.223809 0)
(0.8727 -0.232688 0)
(0.883779 -0.239611 0)
(0.895976 -0.248868 0)
(0.918549 -0.253601 0)
(0.946079 -0.261575 0)
(0.988029 -0.264205 0)
(1.04113 -0.260157 0)
(1.11771 -0.24596 0)
(0.825912 -0.207207 0)
(0.832865 -0.214127 0)
(0.83654 -0.225228 0)
(0.850948 -0.234288 0)
(0.8648 -0.247804 0)
(0.890869 -0.256507 0)
(0.921769 -0.265437 0)
(0.967537 -0.27119 0)
(1.02671 -0.270973 0)
(1.11289 -0.257401 0)
(0.780992 -0.193907 0)
(0.789217 -0.203338 0)
(0.79329 -0.219351 0)
(0.811115 -0.231036 0)
(0.827441 -0.247084 0)
(0.857243 -0.256211 0)
(0.892041 -0.270478 0)
(0.942927 -0.27895 0)
(1.00958 -0.283862 0)
(1.1073 -0.271353 0)
(0.731624 -0.182308 0)
(0.742688 -0.192029 0)
(0.748719 -0.208896 0)
(0.770703 -0.222875 0)
(0.788135 -0.244542 0)
(0.820545 -0.259713 0)
(0.858598 -0.276989 0)
(0.913608 -0.287399 0)
(0.987141 -0.29585 0)
(1.0977 -0.284208 0)
(0.693118 -0.175314 0)
(0.705339 -0.191593 0)
(0.708266 -0.216126 0)
(0.7304 -0.230002 0)
(0.749089 -0.249324 0)
(0.783114 -0.261788 0)
(0.823211 -0.281254 0)
(0.881869 -0.295962 0)
(0.963243 -0.312102 0)
(1.0881 -0.301724 0)
(0.650314 -0.164401 0)
(0.668436 -0.179094 0)
(0.671516 -0.203089 0)
(0.692856 -0.221967 0)
(0.711288 -0.248637 0)
(0.746905 -0.269928 0)
(0.789772 -0.29453 0)
(0.85111 -0.312111 0)
(0.937105 -0.330213 0)
(1.07433 -0.320918 0)
(0.599095 -0.144726 0)
(0.621427 -0.165929 0)
(0.62793 -0.198301 0)
(0.654112 -0.221765 0)
(0.675138 -0.251069 0)
(0.711686 -0.273749 0)
(0.755927 -0.299839 0)
(0.818579 -0.321008 0)
(0.90921 -0.348542 0)
(1.05545 -0.341518 0)
(0.53575 -0.139945 0)
(0.568099 -0.15983 0)
(0.579239 -0.194772 0)
(0.611439 -0.22275 0)
(0.639972 -0.255704 0)
(0.6806 -0.284406 0)
(0.728769 -0.315004 0)
(0.793981 -0.341179 0)
(0.886432 -0.372585 0)
(1.03825 -0.372968 0)
(0.4705 -0.121098 0)
(0.51691 -0.144589 0)
(0.534899 -0.189865 0)
(0.575185 -0.228627 0)
(0.613316 -0.268326 0)
(0.659877 -0.301262 0)
(0.712614 -0.334271 0)
(0.780964 -0.365104 0)
(0.876007 -0.403885 0)
(1.03432 -0.417661 0)
(0.412609 -0.135894 0)
(0.477261 -0.165066 0)
(0.509456 -0.219919 0)
(0.558956 -0.263664 0)
(0.603423 -0.303485 0)
(0.650944 -0.334907 0)
(0.702213 -0.365586 0)
(0.766874 -0.395272 0)
(0.85448 -0.433562 0)
(1.00761 -0.464756 0)
(0.380193 -0.0948255 0)
(0.4678 -0.145256 0)
(0.516117 -0.216391 0)
(0.568768 -0.265968 0)
(0.612876 -0.306252 0)
(0.657384 -0.337372 0)
(0.705395 -0.367413 0)
(0.767266 -0.396057 0)
(0.853765 -0.43893 0)
(1.01138 -0.476769 0)
(1.2207 -0.15719 0)
(1.34354 -0.0673632 0)
(1.45285 0.0478505 0)
(1.55233 0.186979 0)
(1.63445 0.323979 0)
(1.67142 0.411605 0)
(1.67939 0.37991 0)
(1.60107 0.198509 0)
(1.55746 0.0558831 0)
(1.57919 -0.00982907 0)
(1.22304 -0.156246 0)
(1.35285 -0.0645193 0)
(1.46578 0.0562984 0)
(1.56434 0.200074 0)
(1.64721 0.344467 0)
(1.6755 0.421087 0)
(1.671 0.373327 0)
(1.5808 0.18078 0)
(1.55248 0.0533005 0)
(1.57638 -0.00822211 0)
(1.22611 -0.158028 0)
(1.36388 -0.0604474 0)
(1.47959 0.0661542 0)
(1.57853 0.216142 0)
(1.65803 0.361422 0)
(1.67679 0.426742 0)
(1.66104 0.364146 0)
(1.55678 0.164691 0)
(1.54675 0.0499591 0)
(1.5741 -0.00751152 0)
(1.23073 -0.158363 0)
(1.37615 -0.0552641 0)
(1.49527 0.0788169 0)
(1.59312 0.232528 0)
(1.67204 0.383938 0)
(1.6779 0.433585 0)
(1.6498 0.352304 0)
(1.53214 0.151391 0)
(1.53942 0.0468724 0)
(1.57096 -0.00614219 0)
(1.23677 -0.159819 0)
(1.39006 -0.0485705 0)
(1.5115 0.0929627 0)
(1.60822 0.250132 0)
(1.68449 0.403308 0)
(1.67701 0.439474 0)
(1.6372 0.338078 0)
(1.50776 0.140377 0)
(1.53168 0.0428621 0)
(1.56771 -0.00519519 0)
(1.24427 -0.160576 0)
(1.40533 -0.0402085 0)
(1.52816 0.108319 0)
(1.62527 0.272421 0)
(1.69818 0.427275 0)
(1.67602 0.444688 0)
(1.62183 0.321195 0)
(1.49202 0.130497 0)
(1.52762 0.0378609 0)
(1.56421 -0.00405264 0)
(1.2529 -0.161737 0)
(1.42162 -0.0307988 0)
(1.54567 0.125633 0)
(1.64185 0.297032 0)
(1.70298 0.440113 0)
(1.68267 0.451946 0)
(1.60191 0.300548 0)
(1.47481 0.119983 0)
(1.52202 0.0339841 0)
(1.56089 -0.00317501 0)
(1.26268 -0.162927 0)
(1.43911 -0.0201099 0)
(1.56527 0.149062 0)
(1.65842 0.320719 0)
(1.70781 0.459265 0)
(1.68511 0.456299 0)
(1.57822 0.27819 0)
(1.46682 0.110987 0)
(1.51979 0.0303395 0)
(1.55857 -0.00138845 0)
(1.27335 -0.165176 0)
(1.45843 -0.00634083 0)
(1.58139 0.170664 0)
(1.67597 0.342985 0)
(1.70872 0.471207 0)
(1.68162 0.456677 0)
(1.5479 0.253907 0)
(1.46572 0.10302 0)
(1.51698 0.0284264 0)
(1.55675 0.00144222 0)
(1.28486 -0.167646 0)
(1.47785 0.00906154 0)
(1.59962 0.197297 0)
(1.69251 0.362826 0)
(1.71307 0.48563 0)
(1.67774 0.446154 0)
(1.51549 0.230402 0)
(1.46698 0.0942207 0)