/*--------------------------------*- C++ -*----------------------------------*\
  =========                 |
  \\      /  F ield         | OpenFOAM: The Open Source CFD Toolbox
   \\    /   O peration     | Website:  https://openfoam.org
    \\  /    A nd           | Version:  8
     \\/     M anipulation  |
\*---------------------------------------------------------------------------*/
FoamFile
{
    version     2.0;
    format      ascii;
    class       volVectorField;
    location    "0.2";
    object      U;
}
// * * * * * * * * * * * * * * * * * * * * * * * * * * * * * * * * * * * * * //

dimensions      [0 1 -1 0 0 0 0];

internalField   nonuniform List<vector> 
325
(
(2.09345 1.1371e-06 0)
(2.04946 5.91476e-06 0)
(1.9887 -0.000103492 0)
(3 2.50378e-14 0)
(2.99997 -5.59078e-14 0)
(2.99751 -1.84263e-10 0)
(2.91819 4.44782e-08 0)
(2.44183 -1.01427e-06 0)
(2.09346 4.98169e-06 0)
(2.04943 -6.65501e-07 0)
(1.98901 -6.18489e-05 0)
(3 -2.11058e-14 0)
(2.99997 -4.19632e-12 0)
(2.99751 5.92451e-10 0)
(2.91819 2.19656e-09 0)
(2.44183 -5.76788e-07 0)
(2.09348 5.98701e-06 0)
(2.04938 8.19172e-06 0)
(1.98983 -0.000171345 0)
(3 9.33003e-15 0)
(2.99997 -1.14685e-11 0)
(2.99751 2.21183e-09 0)
(2.91819 -8.84409e-08 0)
(2.44182 -3.16464e-07 0)
(2.0935 5.42114e-06 0)
(2.04931 2.63893e-05 0)
(1.99074 -0.000359415 0)
(3 7.09555e-15 0)
(2.99997 -1.98294e-11 0)
(2.99751 4.16746e-09 0)
(2.91819 -2.25166e-07 0)
(2.44182 9.29259e-07 0)
(2.09353 3.00232e-06 0)
(2.04925 5.08798e-05 0)
(1.99145 -0.000442996 0)
(3 -1.48356e-14 0)
(2.99997 -2.38772e-11 0)
(2.99751 5.22072e-09 0)
(2.91819 -3.14865e-07 0)
(2.44182 2.07734e-06 0)
(2.09354 -1.23554e-06 0)
(2.04921 6.42915e-05 0)
(1.99163 -0.000340486 0)
(3 -3.81294e-14 0)
(2.99997 -2.22876e-11 0)
(2.99751 4.99049e-09 0)
(2.91819 -3.22492e-07 0)
(2.44182 2.31433e-06 0)
(2.09354 -3.42363e-06 0)
(2.04921 3.85379e-05 0)
(1.9915 0.000310345 0)
(3 -5.84016e-15 0)
(2.99997 -1.71922e-11 0)
(2.99751 3.8775e-09 0)
(2.91819 -2.66858e-07 0)
(2.44182 2.08959e-06 0)
(2.09354 -4.0296e-06 0)
(2.04922 5.10976e-07 0)
(1.99127 0.00100044 0)
(3 7.36984e-15 0)
(2.99997 -1.01093e-11 0)
(2.99751 2.25606e-09 0)
(2.91819 -1.74441e-07 0)
(2.44183 1.76116e-06 0)
(2.09352 -4.01504e-06 0)
(2.04925 -4.24533e-05 0)
(1.99088 0.00194912 0)
(3 -2.08256e-15 0)
(2.99997 -3.61227e-12 0)
(2.99751 8.18756e-10 0)
(2.91819 -8.13478e-08 0)
(2.44183 1.07939e-06 0)
(2.0935 -2.98525e-06 0)
(2.04928 -8.67994e-05 0)
(1.99063 0.00250329 0)
(3 3.30363e-14 0)
(2.99997 8.09493e-13 0)
(2.99751 -2.02762e-10 0)
(2.91819 -9.84315e-09 0)
(2.44183 4.08121e-07 0)
(2.09349 -1.33363e-06 0)
(2.0493 -0.000108267 0)
(1.99055 0.00239048 0)
(3 5.17168e-14 0)
(2.99997 3.10997e-12 0)
(2.99751 -7.7121e-10 0)
(2.91819 3.98715e-08 0)
(2.44183 -7.46495e-08 0)
(2.09349 -2.2983e-07 0)
(2.04931 -0.000102173 0)
(1.99047 0.00207597 0)
(3 2.43684e-15 0)
(2.99997 3.66022e-12 0)
(2.99751 -9.03198e-10 0)
(2.91819 5.69239e-08 0)
(2.44183 -3.73428e-07 0)
(2.09349 1.74236e-07 0)
(2.04932 -8.90279e-05 0)
(1.99036 0.0017443 0)
(3 -5.23367e-14 0)
(2.99997 3.4275e-12 0)
(2.99751 -8.48038e-10 0)
(2.91819 5.53199e-08 0)
(2.44183 -4.19918e-07 0)
(2.09349 3.50556e-07 0)
(2.04932 -7.4423e-05 0)
(1.99032 0.00143085 0)
(3 6.31049e-15 0)
(2.99997 3.0899e-12 0)
(2.99751 -7.4739e-10 0)
(2.91819 5.00527e-08 0)
(2.44183 -3.97683e-07 0)
(2.09349 4.65942e-07 0)
(2.04932 -5.96575e-05 0)
(1.99036 0.00113445 0)
(3 -8.69365e-15 0)
(2.99997 2.49532e-12 0)
(2.99751 -6.06802e-10 0)
(2.91819 4.13286e-08 0)
(2.44183 -3.27662e-07 0)
(2.09349 4.68946e-07 0)
(2.04932 -4.75208e-05 0)
(1.99036 0.000906252 0)
(3 -1.21173e-14 0)
(2.99997 1.67474e-12 0)
(2.99751 -4.52524e-10 0)
(2.91819 3.21139e-08 0)
(2.44183 -2.61856e-07 0)
(2.09349 5.32014e-07 0)
(2.04932 -3.51834e-05 0)
(1.99043 0.000656923 0)
(3 2.51413e-15 0)
(2.99997 1.04357e-12 0)
(2.99751 -2.96381e-10 0)
(2.91819 2.23397e-08 0)
(2.44183 -1.92499e-07 0)
(2.09349 4.75109e-07 0)
(2.04931 -2.37849e-05 0)
(1.99047 0.000429321 0)
(3 -2.12377e-14 0)
(2.99997 6.1872e-13 0)
(2.99751 -1.60034e-10 0)
(2.91819 1.33232e-08 0)
(2.44183 -1.39518e-07 0)
(2.09349 3.59609e-07 0)
(2.04931 -1.31042e-05 0)
(1.99051 0.000214197 0)
(3 -1.86216e-14 0)
(2.99997 2.38602e-13 0)
(2.99751 -6.56974e-11 0)
(2.91819 6.1647e-09 0)
(2.44183 -6.89269e-08 0)
(2.09349 1.73129e-07 0)
(2.04931 -4.85711e-06 0)
(1.99053 6.16532e-05 0)
(3 4.52086e-14 0)
(2.99997 7.26929e-14 0)
(2.99751 -1.50283e-11 0)
(2.91819 1.64613e-09 0)
(2.44183 -2.19808e-08 0)
(2.0935 3.9722e-08 0)
(2.04931 -8.68431e-07 0)
(1.99053 8.71124e-06 0)
(3 4.80392e-14 0)
(2.99997 7.48008e-14 0)
(2.99751 -1.33074e-12 0)
(2.91819 1.43235e-10 0)
(2.44183 -2.88213e-09 0)
(2.0935 2.94073e-09 0)
(2.04931 -8.15506e-08 0)
(1.99053 1.38745e-06 0)
(3 6.81655e-16 0)
(2.99997 4.93614e-16 0)
(2.99751 -2.05351e-13 0)
(2.91819 2.11355e-11 0)
(2.44183 -1.85723e-10 0)
(2.0935 2.30491e-10 0)
(2.04931 -3.15167e-08 0)
(1.99053 7.58184e-07 0)
(3 1.24591e-14 0)
(2.99997 -1.40163e-14 0)
(2.99751 -1.2337e-13 0)
(2.91819 1.22456e-11 0)
(2.44183 -9.67911e-11 0)
(2.0935 1.47265e-10 0)
(2.04931 -1.72313e-08 0)
(1.99053 3.99338e-07 0)
(3 -1.33464e-15 0)
(2.99997 3.14951e-14 0)
(2.99751 -1.24093e-13 0)
(2.91819 6.71952e-12 0)
(2.44183 -5.90586e-11 0)
(2.0935 9.45939e-11 0)
(2.04931 -8.47366e-09 0)
(1.99053 1.74893e-07 0)
(3 2.48929e-14 0)
(2.99997 3.26505e-14 0)
(2.99751 -9.04177e-14 0)
(2.91819 2.46768e-12 0)
(2.44183 -2.26414e-11 0)
(2.0935 5.11189e-11 0)
(2.04931 -2.86407e-09 0)
(1.99053 5.02304e-08 0)
(3 3.82089e-14 0)
(2.99997 -6.64592e-15 0)
(2.99751 -4.17454e-14 0)
(2.91819 4.18337e-14 0)
(2.44183 -5.08711e-12 0)
(2.0935 4.79025e-11 0)
(2.04931 -5.40735e-11 0)
(1.99053 1.57758e-09 0)
(3 -4.22245e-14 0)
(2.99997 -7.20971e-14 0)
(2.99751 3.43858e-15 0)
(2.91819 -1.62846e-12 0)
(2.44183 5.95773e-12 0)
(2.0935 4.66228e-11 0)
(2.04931 1.34475e-09 0)
(1.99053 -2.02262e-08 0)
(3 -4.92376e-14 0)
(2.99997 -7.24688e-14 0)
(2.99751 1.15862e-14 0)
(2.91819 -2.98445e-12 0)
(2.44183 1.65341e-11 0)
(2.0935 1.94572e-11 0)
(2.04931 2.54124e-09 0)
(1.99053 -4.32775e-08 0)
(3 -1.79675e-14 0)
(2.99997 5.75154e-14 0)
(2.99751 1.04506e-13 0)
(2.91819 -4.0343e-12 0)
(2.44183 3.27899e-11 0)
(2.0935 -3.39568e-11 0)
(2.04931 3.341e-09 0)
(1.99053 -5.99125e-08 0)
(3 1.56867e-15 0)
(2.99997 4.0859e-14 0)
(2.99751 1.244e-13 0)
(2.91819 -4.47068e-12 0)
(2.44183 3.9125e-11 0)
(2.0935 -6.17668e-11 0)
(2.04931 3.87383e-09 0)
(1.99053 -7.47302e-08 0)
(1.75258 8.0053e-07 0)
(3 -1.27302e-14 0)
(2.99997 -5.60162e-14 0)
(2.99751 -5.92666e-16 0)
(2.91819 -5.43182e-12 0)
(2.44183 4.98093e-11 0)
(2.0935 -9.2776e-11 0)
(2.04931 4.70511e-09 0)
(1.99053 -9.28275e-08 0)
(1.75258 1.02169e-06 0)
(3 -6.21199e-14 0)
(2.99997 -7.57837e-14 0)
(2.99751 -3.60924e-14 0)
(2.91819 -5.66458e-12 0)
(2.44183 4.92099e-11 0)
(2.0935 -8.00552e-11 0)
(2.04931 4.84037e-09 0)
(1.99053 -9.52155e-08 0)
(1.75258 1.0113e-06 0)
(3 1.19642e-14 0)
(2.99997 1.34983e-14 0)
(2.99751 1.47384e-13 0)
(2.91819 -5.39192e-12 0)
(2.44183 4.52534e-11 0)
(2.0935 -5.40608e-11 0)
(2.04931 4.48244e-09 0)
(1.99053 -8.18433e-08 0)
(1.75258 8.2587e-07 0)
(3 8.51334e-14 0)
(2.99997 1.08294e-13 0)
(2.99751 2.3094e-13 0)
(2.91819 -5.27698e-12 0)
(2.44183 4.18003e-11 0)
(2.0935 -2.69416e-11 0)
(2.04931 4.71247e-09 0)
(1.99053 -8.42457e-08 0)
(1.75258 8.33684e-07 0)
(3 2.20003e-14 0)
(2.99997 1.69208e-14 0)
(2.99751 1.22412e-13 0)
(2.91819 -5.40378e-12 0)
(2.44183 3.87553e-11 0)
(2.0935 -3.76982e-12 0)
(2.04931 4.62515e-09 0)
(1.99053 -8.22815e-08 0)
(1.75258 7.87666e-07 0)
(3 -2.29046e-14 0)
(2.99997 -7.07878e-14 0)
(2.99751 1.53408e-14 0)
(2.91819 -5.89368e-12 0)
(2.44183 4.38811e-11 0)
(2.0935 -1.52442e-11 0)
(2.04931 4.9861e-09 0)
(1.99053 -8.90246e-08 0)
(1.75258 8.75097e-07 0)
(3 -7.17018e-14 0)
(2.99997 -1.00153e-13 0)
(2.99751 -2.70809e-14 0)
(2.91819 -5.80632e-12 0)
(2.44183 4.69775e-11 0)
(2.0935 -3.9152e-11 0)
(2.04931 4.80688e-09 0)
(1.99053 -8.87682e-08 0)
(1.75258 8.98625e-07 0)
(3 -3.97789e-14 0)
(2.99997 -6.67567e-14 0)
(2.99751 2.76957e-14 0)
(2.91819 -4.38838e-12 0)
(2.44183 3.5878e-11 0)
(2.0935 -3.65873e-11 0)
(2.04931 3.67867e-09 0)
(1.99053 -7.10296e-08 0)
(1.75258 7.48329e-07 0)
(3 8.27591e-15 0)
(2.99997 -7.17296e-15 0)
(2.99751 3.48924e-14 0)
(2.91819 -1.80673e-12 0)
(2.44183 1.62808e-11 0)
(2.0935 -1.98678e-11 0)
(2.04931 1.5429e-09 0)
(1.99053 -3.09258e-08 0)
(1.75258 3.32124e-07 0)
)
;

boundaryField
{
    inlet
    {
        type            fixedValue;
        value           uniform (3 0 0);
    }
    outlet
    {
        type            inletOutlet;
        inletValue      nonuniform List<vector> 0();
        value           nonuniform List<vector> 0();
    }
    triangle
    {
        type            slip;
    }
    top
    {
        type            symmetryPlane;
    }
    bottom
    {
        type            symmetryPlane;
    }
    defaultFaces
    {
        type            empty;
    }
    procBoundary4to0
    {
        type            processor;
        value           nonuniform List<vector> 9((3 1.21669e-14 0) (2.99997 6.41869e-15 0) (2.99751 -2.77209e-11 0) (2.91819 9.17131e-09 0) (2.44183 -2.56632e-07 0) (2.44183 -2.56632e-07 0) (2.09345 -1.13708e-06 0) (2.04946 -5.91489e-06 0) (1.9887 0.000103491 0));
    }
    procBoundary4to1
    {
        type            processor;
        value           nonuniform List<vector> 2((1.77466 0.000109747 0) (1.77205 -0.000809757 0));
    }
    procBoundary4to5
    {
        type            processor;
        value           nonuniform List<vector> 
39
(
(1.76661 -0.00349162 0)
(1.75928 -0.00410033 0)
(1.7527 -0.006676 0)
(1.74911 -0.00999482 0)
(1.74944 -0.0166937 0)
(1.75152 -0.0243505 0)
(1.7542 -0.0300994 0)
(1.75579 -0.0293055 0)
(1.75774 -0.0254768 0)
(1.75891 -0.0206359 0)
(1.7572 -0.0155984 0)
(1.75615 -0.0124087 0)
(1.75515 -0.0099276 0)
(1.75464 -0.00808844 0)
(1.75384 -0.00587211 0)
(1.7532 -0.00363672 0)
(1.75277 -0.00153353 0)
(1.75261 -0.000310465 0)
(1.75258 -4.97105e-05 0)
(1.75258 -1.73215e-05 0)
(1.75258 -1.06802e-05 0)
(1.75258 -4.9838e-06 0)
(1.75258 -1.75726e-06 0)
(1.75258 -4.40457e-07 0)
(1.75258 -3.70203e-08 0)
(1.75258 1.32328e-07 0)
(1.75258 3.92074e-07 0)
(1.75258 6.04042e-07 0)
(1.75258 6.04042e-07 0)
(1.34541 -3.51255e-06 0)
(1.34541 -4.4778e-06 0)
(1.3454 -4.26747e-06 0)
(1.3454 -3.78861e-06 0)
(1.34541 -3.76363e-06 0)
(1.34541 -3.44749e-06 0)
(1.34541 -3.94438e-06 0)
(1.34541 -4.04743e-06 0)
(1.34541 -3.21978e-06 0)
(1.34541 -1.35306e-06 0)
)
;
    }
}


// ************************************************************************* //
