/*--------------------------------*- C++ -*----------------------------------*\
  =========                 |
  \\      /  F ield         | OpenFOAM: The Open Source CFD Toolbox
   \\    /   O peration     | Website:  https://openfoam.org
    \\  /    A nd           | Version:  7
     \\/     M anipulation  |
\*---------------------------------------------------------------------------*/
FoamFile
{
    version     2.0;
    format      ascii;
    class       volScalarField;
    location    "0.5";
    object      p;
}
// * * * * * * * * * * * * * * * * * * * * * * * * * * * * * * * * * * * * * //

dimensions      [1 -1 -2 0 0 0 0];

internalField   nonuniform List<scalar> 
325
(
1.95677
0.98256
1.05132
1.5014
1.93021
1.03184
1.02834
1.44982
1.85804
1.07403
0.985812
1.3736
1.79294
1.04435
0.957251
1.30083
1.70221
0.918586
0.958197
1.21039
1.59551
0.780014
0.932805
1.07961
1.42362
1.89591
0.979858
0.895219
1.07891
2.72692
1.15696
0.951384
0.811108
3.34668
1.45396
1.0405
0.820245
3.80448
1.7599
1.25117
0.906879
4.16308
2.08985
1.43664
0.984572
4.48551
2.37525
1.62693
1.09707
4.76387
2.66514
1.83089
1.24969
5.00915
2.93048
2.00525
1.40645
5.23224
3.17955
2.20033
1.57218
5.4228
3.41765
2.38119
1.72751
5.59596
3.63955
2.56528
1.88122
5.75692
3.84265
2.74502
2.03039
5.89485
4.04161
2.91584
2.16767
6.02453
4.22421
3.084
2.31356
6.14209
4.3969
3.24
2.44929
6.24751
4.56266
3.39337
2.58696
6.34837
4.71798
3.53932
2.72826
6.445
4.86561
3.67911
2.86086
6.53626
5.00022
3.8115
2.99279
6.61479
5.12497
3.93869
3.11705
9.55052
9.17944
8.61221
7.92041
9.29245
8.90754
8.31243
7.39128
9.29636
8.90502
8.31626
7.37287
9.17603
8.78856
8.20502
7.29925
9.11313
8.74585
8.16433
7.31398
9.03836
8.70013
8.12016
7.3482
8.98598
8.6684
8.1028
7.40062
8.97262
8.67371
8.10839
7.45512
8.95565
8.64674
8.13507
7.51481
8.92245
8.62825
8.16851
7.57719
8.89641
8.62058
8.19266
7.62574
8.86502
8.60835
8.20292
7.6513
8.86284
8.60258
8.19645
7.66595
8.86512
8.58448
8.18789
7.6851
8.83137
8.54384
8.16412
7.69692
8.76983
8.49372
8.15177
7.71005
8.68371
8.43931
8.14152
7.72821
8.67219
8.40154
8.13727
7.74889
8.23328
8.35851
8.14852
7.76602
8.41131
8.16955
7.76266
6.71241
5.28924
4.13094
3.29693
6.87265
5.50066
4.36586
3.5363
6.90198
5.73156
4.61482
3.76119
6.80174
5.93213
4.86983
3.9842
6.42437
5.95742
5.0963
4.20092
5.69064
5.99152
5.31306
4.43758
4.80954
5.84868
5.43833
4.67049
3.97972
5.57946
5.42185
4.89502
3.45656
5.12443
5.36498
5.00245
3.25573
4.45364
5.25157
4.98517
3.20637
3.82911
4.96405
4.90531
3.1912
3.46268
4.46039
4.74472
3.18389
3.31911
3.96528
4.457
3.17971
3.26992
3.65995
4.10853
3.17977
3.24858
3.52055
3.8388
3.18062
3.23697
3.44216
3.71436
3.18346
3.23012
3.38496
3.6729
3.18671
3.22702
3.3431
3.65338
3.18986
3.22592
3.31571
3.63734
3.19239
3.22559
3.29974
3.6203
4.76822
7.42202
7.94582
7.73333
4.96937
7.26664
7.72091
3.71723
5.26467
7.30159
3.54253
3.85656
5.87445
3.56872
3.53971
4.17352
3.57396
3.45489
3.45573
3.527
3.36291
3.25609
3.39338
3.26599
3.22133
3.28826
3.23243
3.21162
3.27668
3.21885
3.2025
3.28388
3.20537
3.18996
3.29986
3.19595
3.17684
3.31848
3.19541
3.17059
3.337
3.19803
3.16898
3.33961
3.19965
3.17036
3.34204
3.20411
3.17441
3.33982
3.20909
3.18036
3.33518
3.21112
3.18518
3.33194
3.2107
3.18747
3.32998
3.20998
3.18849
)
;

boundaryField
{
    inlet
    {
        type            fixedValue;
        value           nonuniform 0();
    }
    outlet
    {
        type            zeroGradient;
    }
    triangle
    {
        type            zeroGradient;
    }
    top
    {
        type            symmetryPlane;
    }
    bottom
    {
        type            symmetryPlane;
    }
    defaultFaces
    {
        type            empty;
    }
    procBoundary6to2
    {
        type            processor;
        value           nonuniform List<scalar> 5(1.98279 1.01834 1.05934 1.51651 1.51651);
    }
    procBoundary6to5
    {
        type            processor;
        value           nonuniform List<scalar> 
43
(
9.8553
9.57063
9.56796
9.43535
9.3547
9.2705
9.20936
9.18538
9.17309
9.1495
9.14746
9.09188
9.07069
9.03329
8.9714
8.92656
8.63913
7.66362
5.747
6.96099
6.96099
6.96099
3.71896
3.72525
3.72525
3.58865
3.57903
3.64068
3.67538
3.65705
3.60446
3.51155
3.48951
3.50671
3.52394
3.53997
3.56086
3.57121
3.5729
3.56973
3.56392
3.55951
3.55812
)
;
    }
    procBoundary6to7
    {
        type            processor;
        value           nonuniform List<scalar> 
47
(
2.13856
2.16715
2.16537
2.15346
2.11764
2.04432
1.94778
1.73159
1.22811
0.931147
0.932128
0.960477
1.03718
1.09529
1.13417
1.20838
1.28816
1.37039
1.46821
1.55912
1.65773
1.75342
1.86311
1.96708
2.0775
2.19059
2.30891
2.49332
2.72881
2.96272
3.18375
3.40657
3.62914
3.86057
4.09743
4.30271
4.46868
4.51856
4.51602
4.40883
4.17059
3.92345
3.80336
3.8622
3.91362
3.96487
4.00694
)
;
    }
}


// ************************************************************************* //
