/*--------------------------------*- C++ -*----------------------------------*\
  =========                 |
  \\      /  F ield         | OpenFOAM: The Open Source CFD Toolbox
   \\    /   O peration     | Website:  https://openfoam.org
    \\  /    A nd           | Version:  7
     \\/     M anipulation  |
\*---------------------------------------------------------------------------*/
FoamFile
{
    version     2.0;
    format      ascii;
    class       volVectorField;
    location    "0.6";
    object      U;
}
// * * * * * * * * * * * * * * * * * * * * * * * * * * * * * * * * * * * * * //

dimensions      [0 1 -1 0 0 0 0];

internalField   nonuniform List<vector> 
325
(
(1.42004 0.0243461 0)
(1.51675 0.0738079 0)
(1.61577 0.0567694 0)
(1.71664 0.0268707 0)
(0.920999 0.0855366 0)
(1.09238 0.0552676 0)
(1.04381 0.0155885 0)
(1.03531 0.00554515 0)
(1.21044 0.0478417 0)
(1.45212 0.0574623 0)
(1.64774 0.0255166 0)
(0.426 0.0625311 0)
(0.682052 0.0487217 0)
(0.748019 0.0143462 0)
(0.797099 0.000465913 0)
(1.00719 0.032826 0)
(1.33762 0.0374828 0)
(1.5952 0.0149302 0)
(0.230024 0.0292973 0)
(0.52392 0.0226143 0)
(0.644224 0.00599965 0)
(0.716821 0.00558632 0)
(0.929535 0.0152426 0)
(1.2863 0.0152369 0)
(1.57056 0.00648926 0)
(0.523885 -0.0225249 0)
(0.644083 -0.00693805 0)
(0.717617 0.000935084 0)
(0.929616 -0.0136526 0)
(1.28628 -0.0149621 0)
(1.57061 -0.00625043 0)
(0.681983 -0.0488547 0)
(0.748298 -0.0131433 0)
(0.797452 -0.00682994 0)
(1.00677 -0.0345203 0)
(1.33762 -0.0377112 0)
(1.59523 -0.0151462 0)
(1.09237 -0.0553349 0)
(1.04398 -0.0153443 0)
(1.03514 -0.00768262 0)
(1.21023 -0.0483658 0)
(1.45218 -0.0574991 0)
(1.64774 -0.0255302 0)
(1.61154 -0.0543775 0)
(1.4857 -0.0143387 0)
(1.41967 -0.0243665 0)
(1.51666 -0.0736594 0)
(1.61579 -0.0567831 0)
(1.71663 -0.0268976 0)
(1.98199 -0.0545557 0)
(1.89236 -0.00838223 0)
(1.82339 -0.0130242 0)
(1.8243 -0.0755266 0)
(1.77373 -0.0678263 0)
(1.78088 -0.0377694 0)
(2.12841 -0.0734857 0)
(2.11438 -0.0244335 0)
(2.08892 -0.0225997 0)
(2.01513 -0.082099 0)
(1.86916 -0.0522634 0)
(1.83222 -0.0350778 0)
(2.1508 -0.066193 0)
(2.18149 -0.0369675 0)
(2.18694 -0.0347066 0)
(2.07122 -0.0797967 0)
(1.90152 -0.0455471 0)
(1.86469 -0.0438912 0)
(2.15376 -0.0916472 0)
(2.18516 -0.0271058 0)
(2.19363 -0.0230429 0)
(2.06008 -0.0693057 0)
(1.90435 -0.0324997 0)
(1.88183 -0.0438576 0)
(2.1737 -0.128666 0)
(2.18492 -0.0465489 0)
(2.17607 -0.0120512 0)
(2.03729 -0.0604781 0)
(1.90734 -0.0220145 0)
(1.89215 -0.0438375 0)
(2.19868 -0.177021 0)
(2.20134 -0.0520289 0)
(2.16558 -0.0235559 0)
(2.02514 -0.0621708 0)
(1.91664 -0.023757 0)
(1.90307 -0.0472596 0)
(2.23053 -0.238438 0)
(2.21482 -0.0728326 0)
(2.1622 -0.0342037 0)
(2.02132 -0.065151 0)
(1.93079 -0.0295555 0)
(1.91787 -0.0509729 0)
(2.27815 -0.324662 0)
(2.22262 -0.100418 0)
(2.16184 -0.0382695 0)
(2.02442 -0.0652312 0)
(1.95059 -0.0339316 0)
(1.93583 -0.0523964 0)
(2.34822 -0.442141 0)
(2.24565 -0.139033 0)
(2.16319 -0.0432481 0)
(2.0328 -0.0626168 0)
(1.9734 -0.0355204 0)
(1.95329 -0.051987 0)
(2.39251 -0.558835 0)
(2.3188 -0.212827 0)
(2.17136 -0.0409134 0)
(2.04039 -0.0592317 0)
(1.99401 -0.0387433 0)
(1.96743 -0.0531046 0)
(2.42187 -0.644169 0)
(2.36916 -0.28921 0)
(2.17465 -0.0412696 0)
(2.04574 -0.0583697 0)
(2.00922 -0.0422035 0)
(1.97746 -0.0558159 0)
(2.43345 -0.667049 0)
(2.40139 -0.41688 0)
(2.17105 -0.0789172 0)
(2.05337 -0.0527188 0)
(2.01988 -0.0428416 0)
(1.98413 -0.0587438 0)
(2.42434 -0.665201 0)
(2.41658 -0.532573 0)
(2.18579 -0.139994 0)
(2.06476 -0.0539213 0)
(2.02607 -0.0430438 0)
(1.98852 -0.0607699 0)
(2.41668 -0.640237 0)
(2.42661 -0.60221 0)
(2.22669 -0.215442 0)
(2.08136 -0.0503359 0)
(2.02859 -0.0444286 0)
(1.99041 -0.0635816 0)
(2.40381 -0.577137 0)
(2.433 -0.618145 0)
(2.29118 -0.316531 0)
(2.11035 -0.0587658 0)
(2.02894 -0.0469803 0)
(1.98861 -0.0672541 0)
(2.39259 -0.539463 0)
(2.43325 -0.60971 0)
(2.34996 -0.414398 0)
(2.13916 -0.0779667 0)
(2.0277 -0.0517569 0)
(1.98337 -0.0709212 0)
(2.37285 -0.462624 0)
(2.43139 -0.587825 0)
(2.38415 -0.485617 0)
(2.15854 -0.103516 0)
(2.02312 -0.0564065 0)
(1.97406 -0.0743526 0)
(2.36186 -0.430802 0)
(2.42436 -0.544676 0)
(2.40035 -0.539191 0)
(2.1857 -0.154049 0)
(2.01819 -0.0597424 0)
(1.96333 -0.0782493 0)
(2.34176 -0.366634 0)
(2.41992 -0.507463 0)
(2.40531 -0.545742 0)
(2.20996 -0.205295 0)
(2.01887 -0.0671903 0)
(1.95663 -0.0826349 0)
(2.32955 -0.337004 0)
(2.41771 -0.466559 0)
(2.40328 -0.539355 0)
(2.24304 -0.279623 0)
(2.0257 -0.0760029 0)
(1.95566 -0.0851946 0)
(2.31301 -0.290778 0)
(2.40478 -0.414657 0)
(2.39119 -0.518593 0)
(2.26955 -0.344457 0)
(2.03506 -0.0884093 0)
(1.9575 -0.0881089 0)
(2.2985 -0.253891 0)
(2.39984 -0.376805 0)
(2.38097 -0.509274 0)
(2.29678 -0.401452 0)
(2.05323 -0.113353 0)
(1.96266 -0.0974561 0)
(2.28105 -0.213586 0)
(2.38568 -0.334311 0)
(2.37679 -0.487713 0)
(2.3158 -0.437966 0)
(2.0751 -0.140354 0)
(1.96612 -0.107015 0)
(2.26716 -0.180497 0)
(2.36968 -0.297361 0)
(2.37171 -0.465437 0)
(2.32499 -0.461959 0)
(2.10169 -0.169874 0)
(1.97099 -0.11608 0)
(2.25117 -0.144988 0)
(2.35335 -0.259593 0)
(2.36775 -0.446952 0)
(2.32886 -0.478724 0)
(2.14004 -0.21043 0)
(1.98023 -0.127745 0)
(2.23339 -0.110407 0)
(2.33923 -0.2247 0)
(2.36119 -0.419813 0)
(2.33022 -0.478249 0)
(2.1666 -0.250428 0)
(1.98557 -0.131926 0)
(2.21242 -0.0677734 0)
(2.31984 -0.178901 0)
(2.34143 -0.357921 0)
(2.32209 -0.4493 0)
(2.18388 -0.322918 0)
(2.00668 -0.176524 0)
(2.18158 -0.00799416 0)
(2.29173 -0.126009 0)
(2.33267 -0.298729 0)
(2.31236 -0.419385 0)
(2.19389 -0.353617 0)
(2.02757 -0.238356 0)
(2.15098 0.0433867 0)
(2.26471 -0.0851814 0)
(2.31817 -0.236908 0)
(2.28841 -0.363393 0)
(2.19896 -0.342026 0)
(2.04943 -0.261259 0)
(2.1173 0.0874995 0)
(2.23491 -0.0461109 0)
(2.30297 -0.191419 0)
(2.27309 -0.326504 0)
(2.20009 -0.327371 0)
(2.07203 -0.26895 0)
(2.08198 0.125739 0)
(2.20408 -0.00821498 0)
(2.28322 -0.146463 0)
(2.25245 -0.285918 0)
(2.19661 -0.304681 0)
(2.08663 -0.263464 0)
(2.05026 0.158708 0)
(2.17613 0.0271553 0)
(2.26184 -0.107088 0)
(2.23085 -0.253099 0)
(2.19256 -0.28659 0)
(2.09699 -0.254802 0)
(2.02017 0.192863 0)
(2.14921 0.0644421 0)
(2.24093 -0.0742302 0)
(2.21168 -0.230097 0)
(2.18658 -0.267486 0)
(2.10545 -0.238055 0)
(2.00116 0.218666 0)
(2.12808 0.0946275 0)
(2.21734 -0.042132 0)
(2.1907 -0.201037 0)
(2.18054 -0.248566 0)
(2.11353 -0.222591 0)
(1.98582 0.243669 0)
(2.10602 0.125033 0)
(2.19373 -0.0180761 0)
(2.17501 -0.183733 0)
(2.17433 -0.223917 0)
(2.11961 -0.196496 0)
(1.9751 0.262496 0)
(2.08643 0.146847 0)
(2.16775 0.00381623 0)
(2.16226 -0.156582 0)
(2.16982 -0.198572 0)
(2.12586 -0.170843 0)
(1.95616 0.285045 0)
(2.06214 0.169965 0)
(2.13968 0.0212636 0)
(2.15632 -0.133781 0)
(2.16522 -0.169165 0)
(2.12209 -0.137317 0)
(1.93812 0.302796 0)
(2.0389 0.1867 0)
(2.11137 0.0381782 0)
(2.15056 -0.100913 0)
(2.16082 -0.139029 0)
(2.12655 -0.108619 0)
(1.92014 0.320861 0)
(2.01409 0.206069 0)
(2.08724 0.0572582 0)
(2.14493 -0.0721193 0)
(2.1515 -0.1036 0)
(2.12636 -0.0724541 0)
(1.89892 0.333137 0)
(1.98847 0.225892 0)
(2.06935 0.0790687 0)
(2.12611 -0.03436 0)
(2.14526 -0.0675666 0)
(2.13186 -0.0362227 0)
(1.88021 0.339459 0)
(1.96489 0.241578 0)
(2.04935 0.10855 0)
(2.11561 -0.00415673 0)
(2.14301 -0.0328546 0)
(2.13968 0.00206733 0)
(1.87631 0.335616 0)
(1.94428 0.255602 0)
(2.03234 0.130371 0)
(2.10616 0.0248152 0)
(2.14476 -0.0018619 0)
(2.13773 0.0363169 0)
(1.87782 0.314508 0)
(1.92899 0.245284 0)
(2.01074 0.139564 0)
(2.09365 0.0483426 0)
(2.14784 0.022586 0)
(2.14041 0.0561462 0)
(1.86361 0.272775 0)
(1.90965 0.193252 0)
(1.98535 0.107239 0)
(2.07895 0.050955 0)
(2.14838 0.036552 0)
(2.14383 0.0607579 0)
(1.85732 0.200961 0)
(1.8928 0.11371 0)
(1.96017 0.0506664 0)
(2.06225 0.012681 0)
(2.14929 0.0172793 0)
(2.15064 0.047464 0)
(1.81555 0.0842776 0)
(1.90416 0.0608358 0)
(1.96436 0.0518187 0)
(2.06591 0.0389113 0)
(2.16035 0.0263378 0)
(2.15296 0.0185215 0)
)
;

boundaryField
{
    inlet
    {
        type            fixedValue;
        value           nonuniform 0();
    }
    outlet
    {
        type            inletOutlet;
        inletValue      uniform (3 0 0);
        value           nonuniform List<vector> 
54
(
(2.00668 -0.176524 0)
(2.02757 -0.238356 0)
(2.04943 -0.261259 0)
(2.07203 -0.26895 0)
(2.08663 -0.263464 0)
(2.09699 -0.254802 0)
(2.10545 -0.238055 0)
(2.11353 -0.222591 0)
(2.11961 -0.196496 0)
(2.12586 -0.170843 0)
(2.12209 -0.137317 0)
(2.12655 -0.108619 0)
(2.12636 -0.0724541 0)
(2.13186 -0.0362227 0)
(2.13968 0.00206733 0)
(2.13773 0.0363169 0)
(2.14041 0.0561462 0)
(2.14383 0.0607579 0)
(2.15064 0.047464 0)
(2.15296 0.0185215 0)
(1.91787 -0.0509729 0)
(1.93583 -0.0523964 0)
(1.95329 -0.051987 0)
(1.96743 -0.0531046 0)
(1.97746 -0.0558159 0)
(1.98413 -0.0587438 0)
(1.98852 -0.0607699 0)
(1.99041 -0.0635816 0)
(1.98861 -0.0672541 0)
(1.98337 -0.0709212 0)
(1.97406 -0.0743526 0)
(1.96333 -0.0782493 0)
(1.95663 -0.0826349 0)
(1.95566 -0.0851946 0)
(1.9575 -0.0881089 0)
(1.96266 -0.0974561 0)
(1.96612 -0.107015 0)
(1.97099 -0.11608 0)
(1.98023 -0.127745 0)
(1.98557 -0.131926 0)
(1.71664 0.0268707 0)
(1.64774 0.0255166 0)
(1.5952 0.0149302 0)
(1.57056 0.00648926 0)
(1.57061 -0.00625043 0)
(1.59523 -0.0151462 0)
(1.64774 -0.0255302 0)
(1.71663 -0.0268976 0)
(1.78088 -0.0377694 0)
(1.83222 -0.0350778 0)
(1.86469 -0.0438912 0)
(1.88183 -0.0438576 0)
(1.89215 -0.0438375 0)
(1.90307 -0.0472596 0)
)
;
    }
    triangle
    {
        type            slip;
    }
    top
    {
        type            symmetryPlane;
    }
    bottom
    {
        type            symmetryPlane;
    }
    defaultFaces
    {
        type            empty;
    }
    procBoundary7to2
    {
        type            processor;
        value           nonuniform List<vector> 7((0.416516 0.0948443 0) (-0.0359969 0.0605582 0) (-0.208027 0.0267092 0) (0.230039 -0.0292687 0) (0.230039 -0.0292687 0) (0.426009 -0.0625526 0) (0.92098 -0.0855323 0));
    }
    procBoundary7to3
    {
        type            processor;
        value           nonuniform List<vector> 8((1.82385 0.0136421 0) (1.82443 0.0759623 0) (1.77376 0.06783 0) (1.78088 0.0377792 0) (1.52331 0.132146 0) (1.61153 0.0544663 0) (1.48566 0.0140986 0) (1.48566 0.0140986 0));
    }
    procBoundary7to6
    {
        type            processor;
        value           nonuniform List<vector> 
47
(
(1.52329 -0.132172 0)
(1.96455 -0.180974 0)
(2.19776 -0.214749 0)
(2.28974 -0.259226 0)
(2.30059 -0.328161 0)
(2.29945 -0.391633 0)
(2.33443 -0.479975 0)
(2.34963 -0.578019 0)
(2.36171 -0.679036 0)
(2.35643 -0.707042 0)
(2.35607 -0.702266 0)
(2.34672 -0.661615 0)
(2.35196 -0.629383 0)
(2.34394 -0.521472 0)
(2.33796 -0.461233 0)
(2.31964 -0.372177 0)
(2.31115 -0.318172 0)
(2.29268 -0.251538 0)
(2.27699 -0.200864 0)
(2.26415 -0.158622 0)
(2.2411 -0.105275 0)
(2.22576 -0.0699097 0)
(2.20502 -0.0295751 0)
(2.18646 0.00312546 0)
(2.16536 0.0358256 0)
(2.14379 0.06481 0)
(2.12181 0.0921623 0)
(2.08981 0.130647 0)
(2.05252 0.174925 0)
(2.01733 0.211693 0)
(1.98075 0.239563 0)
(1.94821 0.257838 0)
(1.91126 0.277607 0)
(1.87605 0.296436 0)
(1.84998 0.312999 0)
(1.83822 0.326153 0)
(1.83311 0.338441 0)
(1.82905 0.350636 0)
(1.82144 0.363715 0)
(1.81517 0.376909 0)
(1.82117 0.378306 0)
(1.83695 0.376755 0)
(1.84981 0.365719 0)
(1.86544 0.344468 0)
(1.89936 0.294483 0)
(1.95401 0.195085 0)
(1.9693 0.051349 0)
)
;
    }
}


// ************************************************************************* //
