/*--------------------------------*- C++ -*----------------------------------*\
  =========                 |
  \\      /  F ield         | OpenFOAM: The Open Source CFD Toolbox
   \\    /   O peration     | Website:  https://openfoam.org
    \\  /    A nd           | Version:  8
     \\/     M anipulation  |
\*---------------------------------------------------------------------------*/
FoamFile
{
    version     2.0;
    format      ascii;
    class       volVectorField;
    location    "0.6";
    object      U;
}
// * * * * * * * * * * * * * * * * * * * * * * * * * * * * * * * * * * * * * //

dimensions      [0 1 -1 0 0 0 0];

internalField   nonuniform List<vector> 
325
(
(1.41995 0.024523 0)
(1.51674 0.0737028 0)
(1.6158 0.0567726 0)
(1.71663 0.0268913 0)
(0.920963 0.0855246 0)
(1.09235 0.0554185 0)
(1.04403 0.0152404 0)
(1.03553 0.00754707 0)
(1.21037 0.0484793 0)
(1.45219 0.0575232 0)
(1.64773 0.0255274 0)
(0.42602 0.0625443 0)
(0.681939 0.0490547 0)
(0.748315 0.0126319 0)
(0.797656 0.00752068 0)
(1.00689 0.0349569 0)
(1.3376 0.0378712 0)
(1.59523 0.0151347 0)
(0.230056 0.0292707 0)
(0.523823 0.0223511 0)
(0.643919 0.00738701 0)
(0.717672 -0.00196996 0)
(0.929512 0.0131077 0)
(1.28623 0.0147881 0)
(1.57061 0.00626728 0)
(0.523896 -0.0228022 0)
(0.644146 -0.00510484 0)
(0.716744 -0.00634412 0)
(0.929497 -0.0157169 0)
(1.28625 -0.0153545 0)
(1.57058 -0.00647435 0)
(0.682093 -0.048488 0)
(0.748058 -0.0149837 0)
(0.796805 -3.11259e-05 0)
(1.00711 -0.0324317 0)
(1.33768 -0.0373155 0)
(1.59521 -0.0149457 0)
(1.09242 -0.0552412 0)
(1.04392 -0.0156436 0)
(1.03503 -0.00541457 0)
(1.21043 -0.0476783 0)
(1.45217 -0.0574413 0)
(1.64774 -0.0255179 0)
(1.61152 -0.0544516 0)
(1.48573 -0.0141987 0)
(1.41985 -0.0242062 0)
(1.51672 -0.0737694 0)
(1.61577 -0.0568022 0)
(1.71664 -0.0268763 0)
(1.982 -0.0547555 0)
(1.89235 -0.00835995 0)
(1.82375 -0.0132993 0)
(1.82441 -0.0758663 0)
(1.77375 -0.0678329 0)
(1.78088 -0.0377783 0)
(2.12844 -0.0734238 0)
(2.11442 -0.0243412 0)
(2.08943 -0.0232015 0)
(2.01525 -0.0823338 0)
(1.86918 -0.0523623 0)
(1.83223 -0.0350839 0)
(2.15081 -0.0659935 0)
(2.18151 -0.0371794 0)
(2.18711 -0.035785 0)
(2.07126 -0.0801713 0)
(1.90151 -0.045551 0)
(1.86469 -0.0438851 0)
(2.15374 -0.0916572 0)
(2.18507 -0.0272797 0)
(2.19358 -0.0231772 0)
(2.06004 -0.0692321 0)
(1.90434 -0.0324445 0)
(1.88183 -0.0438462 0)
(2.17373 -0.128755 0)
(2.1849 -0.0464032 0)
(2.176 -0.0117974 0)
(2.03726 -0.0603289 0)
(1.90735 -0.0219888 0)
(1.89215 -0.0438378 0)
(2.1987 -0.177093 0)
(2.20136 -0.0519377 0)
(2.16565 -0.0231924 0)
(2.02517 -0.0620367 0)
(1.91664 -0.0237596 0)
(1.90307 -0.047264 0)
(2.23051 -0.23846 0)
(2.21483 -0.0728208 0)
(2.16215 -0.034103 0)
(2.02132 -0.065124 0)
(1.93079 -0.029558 0)
(1.91787 -0.0509748 0)
(2.27815 -0.324648 0)
(2.2226 -0.10041 0)
(2.16185 -0.0382756 0)
(2.02441 -0.0652348 0)
(1.95059 -0.033933 0)
(1.93583 -0.0523959 0)
(2.34822 -0.442124 0)
(2.24566 -0.139047 0)
(2.16318 -0.0432699 0)
(2.03279 -0.062629 0)
(1.9734 -0.0355208 0)
(1.95329 -0.0519866 0)
(2.39251 -0.558835 0)
(2.3188 -0.21284 0)
(2.17136 -0.0409329 0)
(2.04039 -0.0592381 0)
(1.99401 -0.038743 0)
(1.96743 -0.0531043 0)
(2.42187 -0.644172 0)
(2.36916 -0.289213 0)
(2.17465 -0.0412681 0)
(2.04574 -0.0583681 0)
(2.00922 -0.0422033 0)
(1.97746 -0.055816 0)
(2.43345 -0.667049 0)
(2.40139 -0.416876 0)
(2.17105 -0.0789154 0)
(2.05337 -0.0527173 0)
(2.01988 -0.0428415 0)
(1.98413 -0.0587439 0)
(2.42434 -0.665201 0)
(2.41658 -0.532572 0)
(2.18579 -0.139988 0)
(2.06476 -0.0539202 0)
(2.02607 -0.0430438 0)
(1.98852 -0.0607699 0)
(2.41668 -0.640236 0)
(2.42661 -0.60221 0)
(2.22669 -0.215443 0)
(2.08136 -0.0503362 0)
(2.02859 -0.0444287 0)
(1.99041 -0.0635816 0)
(2.40381 -0.577136 0)
(2.433 -0.618145 0)
(2.29118 -0.316533 0)
(2.11035 -0.0587665 0)
(2.02894 -0.0469805 0)
(1.98861 -0.0672541 0)
(2.39259 -0.539461 0)
(2.43325 -0.609709 0)
(2.34996 -0.414399 0)
(2.13916 -0.0779674 0)
(2.0277 -0.0517571 0)
(1.98337 -0.0709213 0)
(2.37285 -0.462623 0)
(2.43139 -0.587825 0)
(2.38415 -0.485617 0)
(2.15854 -0.103516 0)
(2.02312 -0.0564066 0)
(1.97406 -0.0743526 0)
(2.36186 -0.4308 0)
(2.42436 -0.544676 0)
(2.40035 -0.539191 0)
(2.1857 -0.154049 0)
(2.01819 -0.0597424 0)
(1.96333 -0.0782493 0)
(2.34176 -0.366633 0)
(2.41992 -0.507463 0)
(2.40531 -0.545742 0)
(2.20996 -0.205295 0)
(2.01887 -0.0671903 0)
(1.95663 -0.0826348 0)
(2.32955 -0.337003 0)
(2.41771 -0.466559 0)
(2.40328 -0.539355 0)
(2.24304 -0.279624 0)
(2.0257 -0.0760032 0)
(1.95566 -0.0851947 0)
(2.31301 -0.290777 0)
(2.40478 -0.414657 0)
(2.39119 -0.518593 0)
(2.26955 -0.344458 0)
(2.03506 -0.0884098 0)
(1.9575 -0.0881092 0)
(2.2985 -0.25389 0)
(2.39984 -0.376804 0)
(2.38097 -0.509274 0)
(2.29678 -0.401453 0)
(2.05323 -0.113354 0)
(1.96266 -0.0974565 0)
(2.28105 -0.213586 0)
(2.38568 -0.334311 0)
(2.37679 -0.487714 0)
(2.3158 -0.437967 0)
(2.0751 -0.140354 0)
(1.96612 -0.107015 0)
(2.26716 -0.180497 0)
(2.36968 -0.297361 0)
(2.37171 -0.465437 0)
(2.32499 -0.46196 0)
(2.10169 -0.169874 0)
(1.97099 -0.11608 0)
(2.25117 -0.144988 0)
(2.35335 -0.259593 0)
(2.36775 -0.446952 0)
(2.32886 -0.478725 0)
(2.14004 -0.210431 0)
(1.98023 -0.127745 0)
(2.23339 -0.110407 0)
(2.33923 -0.224699 0)
(2.36119 -0.419814 0)
(2.33022 -0.47825 0)
(2.1666 -0.250429 0)
(1.98557 -0.131926 0)
(2.21242 -0.0677729 0)
(2.31983 -0.178901 0)
(2.34143 -0.357921 0)
(2.32209 -0.4493 0)
(2.18388 -0.322919 0)
(2.00668 -0.176524 0)
(2.18158 -0.00799359 0)
(2.29173 -0.126009 0)
(2.33267 -0.29873 0)
(2.31236 -0.419386 0)
(2.19389 -0.353618 0)
(2.02757 -0.238356 0)
(2.15098 0.0433875 0)
(2.26471 -0.0851815 0)
(2.31816 -0.236909 0)
(2.28841 -0.363394 0)
(2.19896 -0.342027 0)
(2.04943 -0.26126 0)
(2.1173 0.0875002 0)
(2.23491 -0.0461114 0)
(2.30296 -0.191421 0)
(2.27309 -0.326505 0)
(2.20009 -0.327371 0)
(2.07203 -0.26895 0)
(2.08198 0.12574 0)
(2.20408 -0.00821594 0)
(2.28322 -0.146464 0)
(2.25245 -0.285919 0)
(2.19661 -0.304682 0)
(2.08663 -0.263464 0)
(2.05026 0.15871 0)
(2.17613 0.0271541 0)
(2.26184 -0.10709 0)
(2.23085 -0.2531 0)
(2.19256 -0.28659 0)
(2.09699 -0.254802 0)
(2.02016 0.192865 0)
(2.14921 0.0644408 0)
(2.24093 -0.0742317 0)
(2.21168 -0.230098 0)
(2.18658 -0.267486 0)
(2.10545 -0.238055 0)
(2.00116 0.218669 0)
(2.12808 0.0946261 0)
(2.21734 -0.0421336 0)
(2.1907 -0.201038 0)
(2.18054 -0.248566 0)
(2.11353 -0.222591 0)
(1.98582 0.243673 0)
(2.10602 0.125032 0)
(2.19373 -0.0180779 0)
(2.17501 -0.183735 0)
(2.17433 -0.223917 0)
(2.11961 -0.196496 0)
(1.9751 0.2625 0)
(2.08643 0.146846 0)
(2.16775 0.00381402 0)
(2.16226 -0.156584 0)
(2.16982 -0.198572 0)
(2.12586 -0.170843 0)
(1.95616 0.285052 0)
(2.06213 0.169965 0)
(2.13968 0.0212611 0)
(2.15632 -0.133783 0)
(2.16523 -0.169166 0)
(2.12209 -0.137317 0)
(1.93812 0.302802 0)
(2.03889 0.186701 0)
(2.11137 0.0381757 0)
(2.15056 -0.100915 0)
(2.16082 -0.139029 0)
(2.12655 -0.108619 0)
(1.92013 0.320867 0)
(2.01408 0.206071 0)
(2.08724 0.0572557 0)
(2.14494 -0.0721217 0)
(2.1515 -0.1036 0)
(2.12636 -0.0724545 0)
(1.89892 0.333143 0)
(1.98846 0.225894 0)
(2.06935 0.0790664 0)
(2.12611 -0.0343623 0)
(2.14526 -0.0675676 0)
(2.13186 -0.0362232 0)
(1.8802 0.339466 0)
(1.96489 0.241581 0)
(2.04935 0.108548 0)
(2.11561 -0.00415882 0)
(2.14301 -0.0328555 0)
(2.13968 0.0020668 0)
(1.87631 0.335622 0)
(1.94427 0.255605 0)
(2.03234 0.13037 0)
(2.10616 0.0248137 0)
(2.14477 -0.00186292 0)
(2.13773 0.0363162 0)
(1.87781 0.314514 0)
(1.92899 0.245288 0)
(2.01074 0.139564 0)
(2.09365 0.0483418 0)
(2.14784 0.0225851 0)
(2.14041 0.0561456 0)
(1.86361 0.272775 0)
(1.90965 0.193255 0)
(1.98535 0.107241 0)
(2.07895 0.050955 0)
(2.14838 0.0365511 0)
(2.14383 0.0607572 0)
(1.85732 0.20096 0)
(1.8928 0.113711 0)
(1.96016 0.0506671 0)
(2.06225 0.0126817 0)
(2.14929 0.0172787 0)
(2.15065 0.0474633 0)
(1.81557 0.0842781 0)
(1.90416 0.0608366 0)
(1.96436 0.0518188 0)
(2.06591 0.0389111 0)
(2.16035 0.0263375 0)
(2.15297 0.0185213 0)
)
;

boundaryField
{
    inlet
    {
        type            fixedValue;
        value           nonuniform List<vector> 0();
    }
    outlet
    {
        type            inletOutlet;
        inletValue      uniform (3 0 0);
        value           nonuniform List<vector> 
54
(
(2.00668 -0.176524 0)
(2.02757 -0.238356 0)
(2.04943 -0.26126 0)
(2.07203 -0.26895 0)
(2.08663 -0.263464 0)
(2.09699 -0.254802 0)
(2.10545 -0.238055 0)
(2.11353 -0.222591 0)
(2.11961 -0.196496 0)
(2.12586 -0.170843 0)
(2.12209 -0.137317 0)
(2.12655 -0.108619 0)
(2.12636 -0.0724545 0)
(2.13186 -0.0362232 0)
(2.13968 0.0020668 0)
(2.13773 0.0363162 0)
(2.14041 0.0561456 0)
(2.14383 0.0607572 0)
(2.15065 0.0474633 0)
(2.15297 0.0185213 0)
(1.91787 -0.0509748 0)
(1.93583 -0.0523959 0)
(1.95329 -0.0519866 0)
(1.96743 -0.0531043 0)
(1.97746 -0.055816 0)
(1.98413 -0.0587439 0)
(1.98852 -0.0607699 0)
(1.99041 -0.0635816 0)
(1.98861 -0.0672541 0)
(1.98337 -0.0709213 0)
(1.97406 -0.0743526 0)
(1.96333 -0.0782493 0)
(1.95663 -0.0826348 0)
(1.95566 -0.0851947 0)
(1.9575 -0.0881092 0)
(1.96266 -0.0974565 0)
(1.96612 -0.107015 0)
(1.97099 -0.11608 0)
(1.98023 -0.127745 0)
(1.98557 -0.131926 0)
(1.71663 0.0268913 0)
(1.64773 0.0255274 0)
(1.59523 0.0151347 0)
(1.57061 0.00626728 0)
(1.57058 -0.00647435 0)
(1.59521 -0.0149457 0)
(1.64774 -0.0255179 0)
(1.71664 -0.0268763 0)
(1.78088 -0.0377783 0)
(1.83223 -0.0350839 0)
(1.86469 -0.0438851 0)
(1.88183 -0.0438462 0)
(1.89215 -0.0438378 0)
(1.90307 -0.047264 0)
)
;
    }
    triangle
    {
        type            slip;
    }
    top
    {
        type            symmetryPlane;
    }
    bottom
    {
        type            symmetryPlane;
    }
    defaultFaces
    {
        type            empty;
    }
    procBoundary7to2
    {
        type            processor;
        value           nonuniform List<vector> 7((0.416531 0.0948495 0) (-0.0359925 0.0605525 0) (-0.208029 0.0267217 0) (0.230015 -0.0292751 0) (0.230015 -0.0292751 0) (0.425981 -0.0625268 0) (0.920995 -0.0855514 0));
    }
    procBoundary7to3
    {
        type            processor;
        value           nonuniform List<vector> 8((1.82353 0.0133269 0) (1.82433 0.0755946 0) (1.77374 0.067811 0) (1.78088 0.0377682 0) (1.52327 0.132197 0) (1.61156 0.0543329 0) (1.48574 0.0142853 0) (1.48574 0.0142853 0));
    }
    procBoundary7to6
    {
        type            processor;
        value           nonuniform List<vector> 
47
(
(1.52331 -0.132121 0)
(1.96456 -0.180913 0)
(2.19776 -0.21484 0)
(2.28973 -0.259256 0)
(2.30059 -0.328144 0)
(2.29945 -0.391611 0)
(2.33442 -0.47995 0)
(2.34962 -0.578018 0)
(2.3617 -0.67904 0)
(2.35642 -0.707044 0)
(2.35607 -0.702266 0)
(2.34672 -0.66162 0)
(2.35195 -0.629386 0)
(2.34394 -0.52148 0)
(2.33795 -0.461238 0)
(2.31963 -0.372183 0)
(2.31114 -0.318176 0)
(2.29267 -0.251541 0)
(2.27699 -0.200865 0)
(2.26415 -0.158622 0)
(2.24111 -0.105274 0)
(2.22576 -0.069909 0)
(2.20503 -0.0295746 0)
(2.18646 0.00312568 0)
(2.16536 0.0358257 0)
(2.14379 0.06481 0)
(2.12181 0.0921625 0)
(2.08981 0.130648 0)
(2.05252 0.174926 0)
(2.01733 0.211695 0)
(1.98075 0.239565 0)
(1.94821 0.257841 0)
(1.91126 0.277612 0)
(1.87605 0.296442 0)
(1.84998 0.313005 0)
(1.83822 0.326159 0)
(1.83311 0.338447 0)
(1.82905 0.350643 0)
(1.82144 0.363721 0)
(1.81517 0.376916 0)
(1.82116 0.37831 0)
(1.83695 0.376762 0)
(1.84981 0.365726 0)
(1.86544 0.34447 0)
(1.89936 0.294487 0)
(1.95401 0.195092 0)
(1.9693 0.0513532 0)
)
;
    }
}


// ************************************************************************* //
