/*--------------------------------*- C++ -*----------------------------------*\
  =========                 |
  \\      /  F ield         | OpenFOAM: The Open Source CFD Toolbox
   \\    /   O peration     | Website:  https://openfoam.org
    \\  /    A nd           | Version:  8
     \\/     M anipulation  |
\*---------------------------------------------------------------------------*/
FoamFile
{
    version     2.0;
    format      ascii;
    class       volVectorField;
    location    "1.2";
    object      U;
}
// * * * * * * * * * * * * * * * * * * * * * * * * * * * * * * * * * * * * * //

dimensions      [0 1 -1 0 0 0 0];

internalField   nonuniform List<vector> 
325
(
(0.603193 0.00245081 0)
(0.271511 -0.0651277 0)
(0.239852 0.00128749 0)
(0.737803 0.0520092 0)
(-0.0388236 -0.00452019 0)
(0.127375 0.00782495 0)
(0.270941 0.0104494 0)
(0.235376 0.00881203 0)
(0.023545 -0.0317496 0)
(0.0128715 0.00364902 0)
(0.537713 0.0337114 0)
(-0.201604 -0.0172762 0)
(-0.0916905 -0.00834138 0)
(0.0325173 0.00871368 0)
(0.0586837 0.013603 0)
(-0.100522 -0.0288452 0)
(-0.103965 -0.000430962 0)
(0.409103 0.022707 0)
(-0.2489 -0.0109773 0)
(-0.156544 -0.00352049 0)
(-0.0378008 0.00542426 0)
(0.00981664 0.0100028 0)
(-0.14204 -0.00961183 0)
(-0.138018 -0.00154182 0)
(0.361724 0.00891162 0)
(-0.157508 -0.000642883 0)
(-0.0383325 -0.00492775 0)
(0.0096369 0.00268509 0)
(-0.142037 0.0132451 0)
(-0.137599 -0.00164822 0)
(0.361734 -0.0102583 0)
(-0.0967178 0.00188013 0)
(0.0279068 -0.0106983 0)
(0.0569897 -0.00266881 0)
(-0.0999782 0.0321897 0)
(-0.1021 -0.000376871 0)
(0.409263 -0.0240788 0)
(0.116666 -0.00786267 0)
(0.257336 -0.0060126 0)
(0.229993 1.60184e-05 0)
(0.0259164 0.0343778 0)
(0.0171118 -0.00860038 0)
(0.538388 -0.0349299 0)
(0.532724 -0.0193786 0)
(0.70398 -0.0259723 0)
(0.593083 0.00347721 0)
(0.27699 0.0675592 0)
(0.247501 -0.0027382 0)
(0.739164 -0.0534824 0)
(1.11082 -0.0496591 0)
(1.31838 -0.00840211 0)
(1.12966 0.021972 0)
(0.674993 0.0556018 0)
(0.580786 -0.0220308 0)
(0.958452 -0.0689652 0)
(1.72557 -0.0752004 0)
(1.93142 -0.0453015 0)
(1.71841 0.0333181 0)
(1.18279 0.123481 0)
(0.979519 -0.0183509 0)
(1.14516 -0.0878224 0)
(2.22811 -0.111119 0)
(2.37562 -0.0441325 0)
(2.18964 0.036983 0)
(1.70955 0.110459 0)
(1.38288 -0.0351313 0)
(1.28612 -0.100535 0)
(2.53015 -0.125148 0)
(2.60656 -0.0665792 0)
(2.47519 0.0391616 0)
(2.11852 0.152107 0)
(1.70694 -0.0273648 0)
(1.39291 -0.106374 0)
(2.66017 -0.153829 0)
(2.68965 -0.0867392 0)
(2.60854 0.0205316 0)
(2.37254 0.14027 0)
(1.90239 -0.0456282 0)
(1.4789 -0.105423 0)
(2.70313 -0.154975 0)
(2.70761 -0.0985876 0)
(2.64446 0.0176111 0)
(2.49976 0.150053 0)
(2.00278 -0.0503143 0)
(1.55639 -0.102726 0)
(2.71867 -0.166986 0)
(2.70691 -0.117123 0)
(2.64705 -0.00699299 0)
(2.55428 0.145141 0)
(2.06719 -0.0711176 0)
(1.64275 -0.0968621 0)
(2.72326 -0.201178 0)
(2.70724 -0.133153 0)
(2.65182 -0.0332302 0)
(2.57612 0.132298 0)
(2.11915 -0.0930985 0)
(1.73839 -0.0986061 0)
(2.72025 -0.224411 0)
(2.70885 -0.148309 0)
(2.65123 -0.0537251 0)
(2.58538 0.100854 0)
(2.15459 -0.131971 0)
(1.82631 -0.0915454 0)
(2.73681 -0.237695 0)
(2.72363 -0.160741 0)
(2.66248 -0.0699361 0)
(2.60217 0.069778 0)
(2.18327 -0.168016 0)
(1.89476 -0.102608 0)
(2.76156 -0.241784 0)
(2.73829 -0.173756 0)
(2.67461 -0.082818 0)
(2.62325 0.0416836 0)
(2.2033 -0.211928 0)
(1.93715 -0.098795 0)
(2.76746 -0.232735 0)
(2.74841 -0.184813 0)
(2.68668 -0.0965132 0)
(2.64589 0.0214281 0)
(2.20553 -0.26056 0)
(1.95772 -0.10786 0)
(2.769 -0.22756 0)
(2.76053 -0.198263 0)
(2.70165 -0.111894 0)
(2.66333 0.000560065 0)
(2.20672 -0.303166 0)
(1.9678 -0.126462 0)
(2.76753 -0.216858 0)
(2.76323 -0.206113 0)
(2.71305 -0.128281 0)
(2.67466 -0.0170711 0)
(2.19948 -0.343077 0)
(1.97853 -0.144462 0)
(2.7681 -0.208662 0)
(2.76546 -0.210926 0)
(2.72546 -0.149356 0)
(2.67231 -0.0419397 0)
(2.21121 -0.378178 0)
(2.00224 -0.169629 0)
(2.77225 -0.196025 0)
(2.7682 -0.20807 0)
(2.7351 -0.166972 0)
(2.659 -0.0711296 0)
(2.20939 -0.406314 0)
(2.02114 -0.19532 0)
(2.76048 -0.161008 0)
(2.7681 -0.206512 0)
(2.74474 -0.183184 0)
(2.63843 -0.101607 0)
(2.21317 -0.4306 0)
(2.03862 -0.222689 0)
(2.75289 -0.16478 0)
(2.7692 -0.196471 0)
(2.74905 -0.190552 0)
(2.61953 -0.131582 0)
(2.22418 -0.452174 0)
(2.05126 -0.248378 0)
(2.73286 -0.111087 0)
(2.76753 -0.178092 0)
(2.75041 -0.193578 0)
(2.60177 -0.165455 0)
(2.23305 -0.474007 0)
(2.05503 -0.27024 0)
(2.71487 -0.092353 0)
(2.77353 -0.165833 0)
(2.75177 -0.195277 0)
(2.57751 -0.195887 0)
(2.24279 -0.494837 0)
(2.05262 -0.290424 0)
(2.69021 -0.0459665 0)
(2.76865 -0.134904 0)
(2.74614 -0.189345 0)
(2.57277 -0.23409 0)
(2.26728 -0.522145 0)
(2.04695 -0.308867 0)
(2.67179 -0.00965174 0)
(2.76927 -0.111697 0)
(2.73525 -0.195016 0)
(2.55369 -0.260812 0)
(2.27105 -0.549599 0)
(2.04001 -0.326111 0)
(2.65256 0.0346412 0)
(2.75331 -0.0700668 0)
(2.71602 -0.181918 0)
(2.5458 -0.290896 0)
(2.28247 -0.572929 0)
(2.03631 -0.342504 0)
(2.63611 0.0726323 0)
(2.7535 -0.0373082 0)
(2.696 -0.182393 0)
(2.5224 -0.319015 0)
(2.28119 -0.59171 0)
(2.03519 -0.353979 0)
(2.6137 0.116609 0)
(2.7578 0.0101103 0)
(2.66848 -0.18306 0)
(2.49452 -0.343564 0)
(2.28686 -0.607939 0)
(2.03836 -0.36219 0)
(2.58657 0.157835 0)
(2.76733 0.0402648 0)
(2.63762 -0.181018 0)
(2.46319 -0.364576 0)
(2.28961 -0.617396 0)
(2.04502 -0.365663 0)
(2.54556 0.21751 0)
(2.74163 0.107862 0)
(2.60511 -0.147564 0)
(2.42635 -0.387183 0)
(2.28253 -0.632681 0)
(2.06478 -0.372963 0)
(2.50312 0.299655 0)
(2.70403 0.187578 0)
(2.56471 -0.105869 0)
(2.39809 -0.416552 0)
(2.27824 -0.638134 0)
(2.10337 -0.392671 0)
(2.48702 0.369901 0)
(2.66741 0.263525 0)
(2.52037 -0.0538699 0)
(2.38993 -0.417703 0)
(2.26127 -0.622593 0)
(2.14838 -0.419934 0)
(2.462 0.452196 0)
(2.6287 0.338849 0)
(2.47578 -0.0130453 0)
(2.38385 -0.431251 0)
(2.23001 -0.611877 0)
(2.19222 -0.440737 0)
(2.45854 0.508194 0)
(2.60171 0.402348 0)
(2.4395 0.0250716 0)
(2.37413 -0.395928 0)
(2.20446 -0.577682 0)
(2.22378 -0.447104 0)
(2.46918 0.56612 0)
(2.5803 0.460858 0)
(2.41548 0.0590964 0)
(2.3405 -0.37286 0)
(2.19968 -0.552628 0)
(2.2417 -0.441933 0)
(2.45546 0.626673 0)
(2.53064 0.508472 0)
(2.40653 0.0939977 0)
(2.29612 -0.339735 0)
(2.19046 -0.503077 0)
(2.24094 -0.426633 0)
(2.46152 0.654281 0)
(2.48881 0.521739 0)
(2.38902 0.110959 0)
(2.25422 -0.313221 0)
(2.17384 -0.465488 0)
(2.23531 -0.40093 0)
(2.48621 0.654355 0)
(2.47261 0.526333 0)
(2.33335 0.129017 0)
(2.21026 -0.271561 0)
(2.14978 -0.409122 0)
(2.23625 -0.373545 0)
(2.4959 0.681021 0)
(2.43502 0.555691 0)
(2.2418 0.14278 0)
(2.16218 -0.230744 0)
(2.13336 -0.360316 0)
(2.24754 -0.348643 0)
(2.57154 0.725031 0)
(2.40393 0.564816 0)
(2.14081 0.125395 0)
(2.10526 -0.180945 0)
(2.12588 -0.309717 0)
(2.26432 -0.318503 0)
(2.69618 0.76392 0)
(2.38796 0.551962 0)
(2.08068 0.109894 0)
(2.07232 -0.146144 0)
(2.12998 -0.266401 0)
(2.28536 -0.289296 0)
(2.80284 0.725634 0)
(2.39738 0.504119 0)
(2.05896 0.0795397 0)
(2.06074 -0.116684 0)
(2.1382 -0.222817 0)
(2.30467 -0.253795 0)
(2.86271 0.558658 0)
(2.42328 0.472972 0)
(2.03929 0.0734959 0)
(2.05142 -0.0896509 0)
(2.14482 -0.183921 0)
(2.32314 -0.219604 0)
(2.89115 0.360651 0)
(2.41506 0.397762 0)
(1.98722 0.0575922 0)
(2.02541 -0.0578057 0)
(2.13062 -0.137591 0)
(2.32428 -0.177959 0)
(2.91604 0.212382 0)
(2.33986 0.290585 0)
(1.92699 0.0436163 0)
(1.99672 -0.0194201 0)
(2.12996 -0.0939137 0)
(2.33763 -0.141313 0)
(2.94564 0.117552 0)
(2.17829 0.162286 0)
(1.83112 0.0128475 0)
(1.93192 0.00754767 0)
(2.09094 -0.0486923 0)
(2.3199 -0.104498 0)
(2.96806 0.0600532 0)
(1.95775 0.0787267 0)
(1.66696 0.0443707 0)
(1.80381 0.0230191 0)
(2.00076 -0.0257657 0)
(2.29571 -0.0689989 0)
(2.98067 0.0265505 0)
(1.79636 0.043817 0)
(1.51114 -0.000657271 0)
(1.69303 0.00835268 0)
(1.92574 -0.0132694 0)
(2.27282 -0.0405043 0)
(2.98408 0.00562779 0)
(1.73488 0.00744041 0)
(1.43853 0.0173512 0)
(1.6516 0.0144694 0)
(1.89637 0.00240613 0)
(2.27174 -0.0102867 0)
)
;

boundaryField
{
    inlet
    {
        type            fixedValue;
        value           nonuniform List<vector> 0();
    }
    outlet
    {
        type            inletOutlet;
        inletValue      uniform (3 0 0);
        value           nonuniform List<vector> 
54
(
(2.06478 -0.372963 0)
(2.10337 -0.392671 0)
(2.14838 -0.419934 0)
(2.19222 -0.440737 0)
(2.22378 -0.447104 0)
(2.2417 -0.441933 0)
(2.24094 -0.426633 0)
(2.23531 -0.40093 0)
(2.23625 -0.373545 0)
(2.24754 -0.348643 0)
(2.26432 -0.318503 0)
(2.28536 -0.289296 0)
(2.30467 -0.253795 0)
(2.32314 -0.219604 0)
(2.32428 -0.177959 0)
(2.33763 -0.141313 0)
(2.3199 -0.104498 0)
(2.29571 -0.0689989 0)
(2.27282 -0.0405043 0)
(2.27174 -0.0102867 0)
(1.64275 -0.0968621 0)
(1.73839 -0.0986061 0)
(1.82631 -0.0915454 0)
(1.89476 -0.102608 0)
(1.93715 -0.098795 0)
(1.95772 -0.10786 0)
(1.9678 -0.126462 0)
(1.97853 -0.144462 0)
(2.00224 -0.169629 0)
(2.02114 -0.19532 0)
(2.03862 -0.222689 0)
(2.05126 -0.248378 0)
(2.05503 -0.27024 0)
(2.05262 -0.290424 0)
(2.04695 -0.308867 0)
(2.04001 -0.326111 0)
(2.03631 -0.342504 0)
(2.03519 -0.353979 0)
(2.03836 -0.36219 0)
(2.04502 -0.365663 0)
(0.737803 0.0520092 0)
(0.537713 0.0337114 0)
(0.409103 0.022707 0)
(0.361724 0.00891162 0)
(0.361734 -0.0102583 0)
(0.409263 -0.0240788 0)
(0.538388 -0.0349299 0)
(0.739164 -0.0534824 0)
(0.958452 -0.0689652 0)
(1.14516 -0.0878224 0)
(1.28612 -0.100535 0)
(1.39291 -0.106374 0)
(1.4789 -0.105423 0)
(1.55639 -0.102726 0)
)
;
    }
    triangle
    {
        type            slip;
    }
    top
    {
        type            symmetryPlane;
    }
    bottom
    {
        type            symmetryPlane;
    }
    defaultFaces
    {
        type            empty;
    }
    procBoundary7to2
    {
        type            processor;
        value           nonuniform List<vector> 7((-0.164505 0.021116 0) (-0.264155 0.00572765 0) (-0.295034 -0.00326896 0) (-0.248958 0.00155367 0) (-0.248958 0.00155367 0) (-0.201375 0.00881047 0) (-0.0370817 -0.00398657 0));
    }
    procBoundary7to3
    {
        type            processor;
        value           nonuniform List<vector> 8((1.14275 -0.0171423 0) (0.665269 -0.053432 0) (0.569826 0.0188158 0) (0.956398 0.0680985 0) (0.293743 0.0208354 0) (0.550149 0.0094777 0) (0.728544 0.0245467 0) (0.728544 0.0245467 0));
    }
    procBoundary7to6
    {
        type            processor;
        value           nonuniform List<vector> 
47
(
(0.299105 -0.0245761 0)
(0.808126 -0.0639315 0)
(1.4246 -0.0879192 0)
(2.00592 -0.134618 0)
(2.41404 -0.148738 0)
(2.63024 -0.187597 0)
(2.71932 -0.170092 0)
(2.75048 -0.225391 0)
(2.76557 -0.274856 0)
(2.76493 -0.305272 0)
(2.73413 -0.319738 0)
(2.7115 -0.304598 0)
(2.72051 -0.292807 0)
(2.7205 -0.231326 0)
(2.72597 -0.192793 0)
(2.69222 -0.0973402 0)
(2.68928 -0.0552543 0)
(2.6519 0.0435537 0)
(2.63744 0.0917372 0)
(2.59876 0.162811 0)
(2.56815 0.211265 0)
(2.53571 0.26214 0)
(2.51334 0.30089 0)
(2.49674 0.334435 0)
(2.46717 0.37812 0)
(2.44774 0.398036 0)
(2.4106 0.438669 0)
(2.37389 0.474866 0)
(2.33509 0.545378 0)
(2.34067 0.593711 0)
(2.33484 0.656437 0)
(2.36799 0.674284 0)
(2.40389 0.661231 0)
(2.42364 0.679355 0)
(2.47345 0.668982 0)
(2.55295 0.611004 0)
(2.68432 0.485097 0)
(2.85007 0.339988 0)
(3.00561 0.181041 0)
(3.04684 0.0583089 0)
(3.01369 0.0147322 0)
(3.00072 0.00309658 0)
(2.99973 0.000678237 0)
(2.99983 0.000255117 0)
(2.9999 0.000137237 0)
(2.99993 7.16867e-05 0)
(2.99992 8.04942e-05 0)
)
;
    }
}


// ************************************************************************* //
