/*--------------------------------*- C++ -*----------------------------------*\
  =========                 |
  \\      /  F ield         | OpenFOAM: The Open Source CFD Toolbox
   \\    /   O peration     | Website:  https://openfoam.org
    \\  /    A nd           | Version:  8
     \\/     M anipulation  |
\*---------------------------------------------------------------------------*/
FoamFile
{
    version     2.0;
    format      ascii;
    class       volVectorField;
    location    "0.8";
    object      U;
}
// * * * * * * * * * * * * * * * * * * * * * * * * * * * * * * * * * * * * * //

dimensions      [0 1 -1 0 0 0 0];

internalField   nonuniform List<vector> 
325
(
(0.780321 0.379233 0)
(0.805737 0.426441 0)
(0.832212 0.452828 0)
(0.864697 0.467394 0)
(0.780213 0.34645 0)
(0.716406 0.395549 0)
(0.757333 0.417794 0)
(0.786511 0.442561 0)
(0.823268 0.45617 0)
(0.863908 0.467699 0)
(0.985472 0.437221 0)
(0.846945 0.426289 0)
(0.856689 0.41663 0)
(0.860052 0.408565 0)
(0.877747 0.413637 0)
(0.906194 0.425397 0)
(1.30239 0.617991 0)
(1.06591 0.591385 0)
(1.03776 0.548811 0)
(0.993413 0.527402 0)
(0.976367 0.504767 0)
(0.986231 0.488877 0)
(1.83535 0.684204 0)
(1.305 0.774271 0)
(1.24496 0.715018 0)
(1.21916 0.649805 0)
(1.18798 0.595862 0)
(1.17391 0.551236 0)
(2.43733 0.508715 0)
(1.84586 0.779458 0)
(1.3783 0.847216 0)
(1.38538 0.800577 0)
(1.37303 0.746437 0)
(1.35026 0.699691 0)
(2.71801 0.312785 0)
(2.58873 0.464473 0)
(1.74126 0.857199 0)
(1.48405 0.85234 0)
(1.49982 0.827225 0)
(1.49799 0.792779 0)
(2.80825 0.226774 0)
(2.79983 0.246609 0)
(2.39322 0.606523 0)
(1.61763 0.87041 0)
(1.54947 0.865779 0)
(1.57519 0.844846 0)
(2.85799 0.17491 0)
(2.85195 0.188909 0)
(2.83478 0.222297 0)
(2.01938 0.747728 0)
(1.59497 0.878265 0)
(1.59841 0.876406 0)
(2.87831 0.172373 0)
(2.87561 0.174164 0)
(2.87071 0.185916 0)
(2.75668 0.319285 0)
(1.80276 0.826963 0)
(1.61145 0.880415 0)
(2.92101 0.117229 0)
(2.91717 0.124601 0)
(2.91306 0.134181 0)
(2.90864 0.147508 0)
(2.32775 0.608301 0)
(1.66475 0.878569 0)
(2.93959 0.0949134 0)
(2.93467 0.105607 0)
(2.93247 0.109261 0)
(2.9265 0.122859 0)
(2.89329 0.179035 0)
(1.95117 0.778723 0)
(2.9492 0.0880852 0)
(2.94715 0.0910902 0)
(2.94493 0.097216 0)
(2.9422 0.101482 0)
(2.93906 0.110426 0)
(2.60925 0.466598 0)
(2.96903 0.0607028 0)
(2.96737 0.0629959 0)
(2.96305 0.0719985 0)
(2.96118 0.0746114 0)
(2.95707 0.084062 0)
(2.95555 0.110811 0)
(2.97755 0.0438829 0)
(2.97518 0.0495268 0)
(2.97338 0.0520044 0)
(2.96925 0.0611423 0)
(2.96671 0.0644656 0)
(2.96086 0.0784503 0)
(2.98316 0.0329198 0)
(2.98164 0.0360398 0)
(2.98061 0.0381554 0)
(2.97757 0.0447753 0)
(2.9758 0.047786 0)
(2.97196 0.0583491 0)
(2.98534 0.0292848 0)
(2.98464 0.0307571 0)
(2.98354 0.0337878 0)
(2.98245 0.0356318 0)
(2.98066 0.0398001 0)
(2.97846 0.0430966 0)
(2.99007 0.0209198 0)
(2.98941 0.0219388 0)
(2.98765 0.0256961 0)
(2.98693 0.0268339 0)
(2.98458 0.0319183 0)
(2.98311 0.0337328 0)
(2.99291 0.0147386 0)
(2.99211 0.0163781 0)
(2.99096 0.0184845 0)
(2.98981 0.0208849 0)
(2.9882 0.0240619 0)
(2.98743 0.0256096 0)
(2.99495 0.0104181 0)
(2.99428 0.0119159 0)
(2.9937 0.0128814 0)
(2.9923 0.0162078 0)
(2.99168 0.0169971 0)
(2.98953 0.0223197 0)
(2.98872 0.0233527 0)
(2.07265 0.179804 0)
(3.00007 -9.20474e-06 0)
(2.23728 0.269194 0)
(3.00006 -1.50683e-05 0)
(2.47003 0.29462 0)
(3.00005 -1.61809e-05 0)
(2.65147 0.274115 0)
(3.00004 -1.83847e-05 0)
(2.74233 0.232903 0)
(3.00004 -1.92573e-05 0)
(2.80936 0.197304 0)
(3.00004 -2.01401e-05 0)
(2.8602 0.161686 0)
(3.00003 -2.07762e-05 0)
(2.88853 0.136881 0)
(3.00003 -2.10476e-05 0)
(2.92646 0.0969088 0)
(3.00003 -2.107e-05 0)
(2.94402 0.0844929 0)
(3.00002 -2.09059e-05 0)
(2.95499 0.0702342 0)
(3.00002 -2.06928e-05 0)
(2.97436 0.0439609 0)
(3.00002 -2.032e-05 0)
(2.98064 0.03973 0)
(3.00002 -1.9916e-05 0)
(2.98432 0.0321962 0)
(3.00002 -1.92721e-05 0)
(2.98929 0.020698 0)
(3.00002 -1.85624e-05 0)
(2.99272 0.0142483 0)
(3.00001 -1.7687e-05 0)
(2.99451 0.011808 0)
(3.00001 -1.66223e-05 0)
(2.99591 0.00861581 0)
(3.00001 -1.55281e-05 0)
(2.99706 0.00613741 0)
(2.99674 0.00661512 0)
(2.9962 0.00787852 0)
(2.99588 0.00844139 0)
(2.99487 0.0106948 0)
(2.99433 0.0116316 0)
(2.99276 0.0152307 0)
(2.99797 0.00416438 0)
(2.99774 0.00462336 0)
(2.99751 0.00511591 0)
(2.99704 0.00610617 0)
(2.99673 0.00671796 0)
(2.99578 0.00881885 0)
(2.99547 0.00945014 0)
(2.99871 0.00264673 0)
(2.99863 0.00278332 0)
(2.99842 0.00333057 0)
(2.99832 0.00344906 0)
(2.99793 0.00445155 0)
(2.99779 0.00453418 0)
(2.99707 0.00635446 0)
(2.9992 0.00149044 0)
(2.99914 0.00158734 0)
(2.99901 0.00187228 0)
(2.99892 0.00201054 0)
(2.99874 0.00241971 0)
(2.99862 0.00258559 0)
(2.99827 0.00338496 0)
(2.99947 0.000782373 0)
(2.99943 0.000828741 0)
(2.99934 0.00100668 0)
(2.99928 0.00105761 0)
(2.99914 0.00134745 0)
(2.99907 0.0014061 0)
(2.99885 0.00184942 0)
(2.99962 0.00039826 0)
(2.99958 0.000422046 0)
(2.99952 0.000522777 0)
(2.99947 0.000546079 0)
(2.99937 0.000706988 0)
(2.99931 0.000715289 0)
(2.99916 0.000992683 0)
(2.9997 0.000198096 0)
(2.99967 0.000203879 0)
(2.99962 0.000268167 0)
(2.99958 0.000269677 0)
(2.9995 0.000372593 0)
(2.99944 0.000366116 0)
(2.99933 0.000532291 0)
(2.99975 9.57394e-05 0)
(2.99972 9.56359e-05 0)
(2.99968 0.000136893 0)
(2.99964 0.000130841 0)
(2.99958 0.000200064 0)
(2.99951 0.000185068 0)
(2.99942 0.000298938 0)
(2.99978 4.34753e-05 0)
(2.99976 4.01053e-05 0)
(2.99972 6.83028e-05 0)
(2.99968 5.83682e-05 0)
(2.99963 0.000106441 0)
(2.99957 8.91057e-05 0)
(2.99948 0.000171176 0)
(2.9998 1.84034e-05 0)
(2.99978 1.42956e-05 0)
(2.99975 3.4782e-05 0)
(2.99971 2.47492e-05 0)
(2.99966 5.81533e-05 0)
(2.9996 4.53874e-05 0)
(2.99952 9.39728e-05 0)
(2.99981 1.38997e-05 0)
(2.99979 1.43631e-05 0)
(2.99976 2.27926e-05 0)
(2.99973 2.70848e-05 0)
(2.99968 3.1342e-05 0)
(2.99962 5.22266e-05 0)
(2.99954 4.03428e-05 0)
(2.99982 -4.81681e-06 0)
(2.9998 2.98129e-06 0)
(2.99977 -3.75726e-06 0)
(2.99973 1.30455e-05 0)
(2.99969 3.51682e-06 0)
(2.99963 3.02661e-05 0)
(2.99956 9.59579e-06 0)
(2.99982 -8.32769e-06 0)
(2.9998 -2.53436e-06 0)
(2.99977 -1.15425e-05 0)
(2.99974 -2.47072e-06 0)
(2.99969 -9.59824e-06 0)
(2.99964 -3.2103e-06 0)
(2.99956 -8.41443e-06 0)
(2.99982 -1.89418e-05 0)
(2.9998 -1.59702e-05 0)
(2.99977 -2.94592e-05 0)
(2.99973 -2.6663e-05 0)
(2.99968 -4.15527e-05 0)
(2.99963 -4.55282e-05 0)
(2.99955 -6.09375e-05 0)
(2.9998 -3.42927e-05 0)
(2.99978 -3.24648e-05 0)
(2.99975 -5.0741e-05 0)
(2.99971 -4.79414e-05 0)
(2.99966 -7.17918e-05 0)
(2.9996 -6.94443e-05 0)
(2.99953 -9.88572e-05 0)
(2.99978 -5.05559e-05 0)
(2.99976 -4.76417e-05 0)
(2.99972 -7.24149e-05 0)
(2.99968 -6.31388e-05 0)
(2.99963 -9.71251e-05 0)
(2.99957 -7.90671e-05 0)
(2.99949 -0.000123295 0)
(2.99975 -4.29687e-05 0)
(2.99973 -3.83051e-05 0)
(2.9997 -5.93945e-05 0)
(2.99966 -4.62664e-05 0)
(2.99961 -7.7906e-05 0)
(2.99955 -5.31809e-05 0)
(2.99946 -0.000103802 0)
(2.99974 -1.33877e-05 0)
(2.99972 -6.39113e-06 0)
(2.99968 -1.58562e-05 0)
(2.99964 -3.28965e-06 0)
(2.99959 -2.35758e-05 0)
(2.99952 -2.52105e-06 0)
(2.99943 -4.53351e-05 0)
(2.99975 1.82214e-05 0)
(2.99972 1.35828e-05 0)
(2.99968 2.40662e-05 0)
(2.99964 1.56771e-05 0)
(2.99958 2.5206e-05 0)
(2.9995 1.33072e-05 0)
(2.99941 1.55575e-05 0)
(2.99975 1.02218e-05 0)
(2.99972 2.51027e-06 0)
(2.99968 2.27746e-05 0)
(2.99964 2.26194e-06 0)
(2.99957 3.63424e-05 0)
(2.9995 -1.45469e-06 0)
(2.9994 5.15688e-05 0)
(3.00001 -1.38333e-05 0)
(2.99798 0.00425742 0)
(3.00001 -1.18079e-05 0)
(2.99874 0.00261403 0)
(3 -9.65363e-06 0)
(2.9993 0.00138789 0)
(3 -7.72833e-06 0)
(2.99956 0.000783111 0)
(3 -5.98833e-06 0)
(2.99971 0.000406523 0)
(3 -4.65191e-06 0)
(2.99979 0.000181707 0)
(3 -3.5581e-06 0)
(2.99983 7.69264e-05 0)
(3 -2.66658e-06 0)
(2.99986 2.45118e-05 0)
(3 -1.91948e-06 0)
(2.99988 -7.2363e-07 0)
(3 -1.14371e-06 0)
(2.99989 -1.01686e-05 0)
(2.99989 -2.18292e-06 0)
(2.99989 -1.05867e-06 0)
(2.9999 4.4392e-06 0)
(2.99989 3.78085e-06 0)
(2.99989 -1.33449e-06 0)
(2.99988 -5.60884e-06 0)
(2.99986 6.78333e-06 0)
(2.99985 1.72736e-08 0)
(2.99985 -5.2195e-06 0)
(2.99986 -1.13678e-05 0)
)
;

boundaryField
{
    inlet
    {
        type            fixedValue;
        value           nonuniform List<vector> 0();
    }
    outlet
    {
        type            inletOutlet;
        inletValue      nonuniform List<vector> 0();
        value           nonuniform List<vector> 0();
    }
    triangle
    {
        type            slip;
    }
    top
    {
        type            symmetryPlane;
    }
    bottom
    {
        type            symmetryPlane;
    }
    defaultFaces
    {
        type            empty;
    }
    procBoundary5to1
    {
        type            processor;
        value           nonuniform List<vector> 6((0.740159 0.234194 0) (0.712004 0.323926 0) (0.712004 0.323926 0) (2.00952 0.0513381 0) (3.00008 -9.92781e-06 0) (3.00008 -9.92781e-06 0));
    }
    procBoundary5to4
    {
        type            processor;
        value           nonuniform List<vector> 
39
(
(3 -2.04585e-08 0)
(3 -1.43837e-08 0)
(3 -5.09612e-09 0)
(3 1.90282e-08 0)
(3 4.18649e-08 0)
(3 6.11032e-08 0)
(3 7.88225e-08 0)
(3 1.04034e-07 0)
(3 1.38529e-07 0)
(3 1.70237e-07 0)
(3 2.04514e-07 0)
(3 2.34537e-07 0)
(3 2.47551e-07 0)
(3 2.51223e-07 0)
(3 2.45153e-07 0)
(3 2.32026e-07 0)
(3 2.12818e-07 0)
(3 1.98303e-07 0)
(3 1.70624e-07 0)
(3 1.52418e-07 0)
(3 1.36043e-07 0)
(3 1.17376e-07 0)
(3 1.01419e-07 0)
(3 6.30267e-08 0)
(3 2.36317e-08 0)
(3 -6.45677e-09 0)
(3 -1.76213e-08 0)
(3 -2.01455e-08 0)
(3 -4.64832e-07 0)
(3 -4.64832e-07 0)
(3 7.13459e-08 0)
(3 2.42596e-07 0)
(3 2.57367e-07 0)
(3 2.99202e-07 0)
(3 2.61619e-07 0)
(3 1.98199e-07 0)
(3 1.54507e-07 0)
(3 8.55332e-08 0)
(3 7.63548e-08 0)
)
;
    }
    procBoundary5to6
    {
        type            processor;
        value           nonuniform List<vector> 
43
(
(0.911583 0.488854 0)
(0.915018 0.485684 0)
(0.951186 0.446771 0)
(1.01522 0.490386 0)
(1.16599 0.537729 0)
(1.32239 0.666397 0)
(1.48015 0.757913 0)
(1.58223 0.824924 0)
(1.62975 0.8595 0)
(1.63247 0.878345 0)
(1.64775 0.879515 0)
(1.66291 0.885222 0)
(1.70697 0.871197 0)
(2.03897 0.72545 0)
(2.71865 0.400826 0)
(2.98703 0.0827545 0)
(2.97443 0.0534289 0)
(2.98081 0.0406958 0)
(2.98519 0.0309681 0)
(2.98519 0.0309681 0)
(2.98494 0.030746 0)
(2.99221 0.0160023 0)
(2.99221 0.0160023 0)
(2.99221 0.0160023 0)
(2.99345 0.0132529 0)
(2.99667 0.00661982 0)
(2.99814 0.00350102 0)
(2.99874 0.00194727 0)
(2.99911 0.000938292 0)
(2.99925 0.000487755 0)
(2.99933 0.000252259 0)
(2.99938 0.000135054 0)
(2.99942 8.95942e-05 0)
(2.99945 9.23839e-05 0)
(2.99946 5.94645e-05 0)
(2.99946 2.96629e-07 0)
(2.99945 -6.62096e-05 0)
(2.99942 -9.3484e-05 0)
(2.99939 -9.56836e-05 0)
(2.99936 -5.56914e-05 0)
(2.99933 -1.00624e-05 0)
(2.99929 -2.86602e-06 0)
(2.99928 -1.35623e-05 0)
)
;
    }
}


// ************************************************************************* //
