/*--------------------------------*- C++ -*----------------------------------*\
  =========                 |
  \\      /  F ield         | OpenFOAM: The Open Source CFD Toolbox
   \\    /   O peration     | Website:  https://openfoam.org
    \\  /    A nd           | Version:  8
     \\/     M anipulation  |
\*---------------------------------------------------------------------------*/
FoamFile
{
    version     2.0;
    format      ascii;
    class       volScalarField;
    location    "0.4";
    object      p;
}
// * * * * * * * * * * * * * * * * * * * * * * * * * * * * * * * * * * * * * //

dimensions      [1 -1 -2 0 0 0 0];

internalField   nonuniform List<scalar> 
325
(
0.695098
1.61586
1.77128
1.31243
1.0263
0.971421
0.963122
0.948647
1.69585
1.77998
1.29311
1.02562
0.972265
0.963507
1.36416
1.92128
1.80963
1.27171
1.02419
0.972747
0.963729
1.59186
2.07543
1.85531
1.25314
1.02239
0.973497
0.964106
1.76758
2.17435
1.89891
1.23826
1.02123
0.973874
0.964485
1.78083
2.23968
1.93172
1.22485
1.02073
0.974289
0.964864
1.70756
2.32517
1.95128
3.07668
2.67628
2.37456
1.44441
0.975226
0.941658
0.955472
2.9421
2.55519
2.29961
1.44771
0.979335
0.942429
0.955506
2.80734
2.43975
2.23306
1.45042
0.98411
0.944049
0.955464
2.66306
2.32089
2.16602
1.45063
0.989169
0.946233
0.955527
2.51471
2.2168
2.114
1.45482
0.993917
0.948484
0.955863
2.36273
2.10942
2.0558
1.45445
0.998788
0.950524
0.956439
2.21087
2.01674
2.00703
1.45511
1.00405
0.952395
0.956954
2.05176
1.92802
1.96262
1.44733
1.00879
0.95422
0.957434
1.89298
1.84776
1.93377
1.4441
1.01218
0.95603
0.957891
1.74097
1.77357
1.91594
1.44033
1.0151
0.957733
0.958326
1.5916
1.69952
1.90438
1.43979
1.01724
0.959242
0.958763
1.45716
1.64077
1.90489
1.43884
1.01878
0.960541
0.959209
1.33216
1.57144
1.89212
1.43859
1.02052
0.961723
0.959674
1.23417
1.51831
1.87674
1.43416
1.02246
0.962909
0.960172
1.14211
1.47767
1.85344
1.42213
1.02454
0.964155
0.960704
1.05899
1.45574
1.83356
1.40728
1.02634
0.965432
0.961215
0.958036
1.45167
1.81686
1.39135
1.02731
0.966687
0.961703
0.842838
1.47227
1.80899
1.37547
1.02752
0.967917
0.962212
0.767422
1.50931
1.79642
1.3565
1.02727
0.969196
0.96251
0.715327
1.55429
1.78129
1.33517
1.02684
0.970455
0.963007
3.29446
3.27899
2.74095
1.56061
1.05358
1.00245
1.00177
3.35554
3.31623
2.726
1.56534
1.07532
1.01094
1.00265
3.43622
3.35952
2.70846
1.55892
1.08919
1.02219
1.00473
3.52462
3.40093
2.70412
1.55798
1.09411
1.03106
1.00797
3.59679
3.42395
2.6726
1.53112
1.09251
1.03466
1.01122
3.64479
3.42745
2.61994
1.48042
1.07611
1.03478
1.01354
3.67437
3.40381
2.5684
1.43853
1.04654
1.0268
1.01426
3.68557
3.35661
2.51819
1.41014
1.02033
1.00982
1.01196
3.66566
3.28268
2.4619
1.38687
1.00024
0.992698
1.00506
3.61931
3.18964
2.39753
1.36394
0.981665
0.97686
0.998
3.56975
3.09939
2.33255
1.33933
0.96347
0.962731
0.991568
3.50951
3.00847
2.26859
1.31298
0.944558
0.94822
0.984734
3.43803
2.91504
2.20137
1.28106
0.925102
0.934623
0.97816
3.37215
2.82751
2.12932
1.2477
0.908911
0.923101
0.971613
3.33094
2.76941
2.07124
1.21753
0.896833
0.915059
0.965151
3.41308
2.75435
2.04485
1.20741
0.897753
0.914474
0.959506
3.6436
2.85281
2.05065
1.20333
0.902727
0.916946
0.954478
3.74302
2.97937
2.16319
1.24725
0.926772
0.92615
0.951951
3.67265
2.99373
2.34714
1.35228
0.951941
0.935688
0.952608
3.35668
2.88418
2.41698
1.41979
0.967441
0.940013
0.954618
)
;

boundaryField
{
    inlet
    {
        type            fixedValue;
        value           nonuniform List<scalar> 0();
    }
    outlet
    {
        type            zeroGradient;
    }
    triangle
    {
        type            zeroGradient;
    }
    top
    {
        type            symmetryPlane;
    }
    bottom
    {
        type            symmetryPlane;
    }
    defaultFaces
    {
        type            empty;
    }
    procBoundary3to2
    {
        type            processor;
        value           nonuniform List<scalar> 
47
(
0.475772
0.787246
1.10288
1.25675
1.18197
1.16422
1.17012
4.03808
3.89141
3.7529
3.60514
3.44694
3.28396
3.10743
2.92373
2.73133
2.52581
2.31836
2.09329
1.87176
1.6361
1.39995
1.18501
1.00888
0.831826
0.700756
0.594219
3.2857
3.30492
3.34879
3.42686
3.53256
3.63776
3.71469
3.76098
3.7938
3.81484
3.83926
3.8561
3.841
3.81968
3.82761
3.99638
4.37456
4.58433
4.55064
4.30046
)
;
    }
    procBoundary3to7
    {
        type            processor;
        value           nonuniform List<scalar> 8(1.20974 1.02107 0.974489 0.965198 1.69191 2.4775 1.20974 1.96765);
    }
}


// ************************************************************************* //
