/*--------------------------------*- C++ -*----------------------------------*\
  =========                 |
  \\      /  F ield         | OpenFOAM: The Open Source CFD Toolbox
   \\    /   O peration     | Website:  https://openfoam.org
    \\  /    A nd           | Version:  8
     \\/     M anipulation  |
\*---------------------------------------------------------------------------*/
FoamFile
{
    version     2.0;
    format      ascii;
    class       volScalarField;
    location    "0.4";
    object      p;
}
// * * * * * * * * * * * * * * * * * * * * * * * * * * * * * * * * * * * * * //

dimensions      [1 -1 -2 0 0 0 0];

internalField   nonuniform List<scalar> 
2600
(
0.435777
0.37052
0.414832
0.562158
0.874698
0.978788
1.00814
1.01208
0.97661
0.964443
0.437098
0.365139
0.407063
0.570678
0.877794
0.981248
1.00962
1.01409
0.977184
0.964703
0.44017
0.359545
0.406405
0.572782
0.879313
0.985471
1.01153
1.01612
0.976849
0.964795
0.445291
0.358445
0.40545
0.581437
0.886079
0.99183
1.01414
1.01785
0.977688
0.96493
0.450397
0.358334
0.40095
0.584922
0.891294
0.996497
1.01716
1.01872
0.977933
0.965069
0.457244
0.358674
0.399265
0.588169
0.894712
0.999007
1.01903
1.02106
0.978336
0.96523
0.461501
0.35967
0.40494
0.596228
0.900454
1.00228
1.02128
1.02309
0.978702
0.965337
0.465419
0.363005
0.406311
0.602949
0.90347
1.00524
1.02308
1.02512
0.978908
0.965578
0.467394
0.368504
0.408315
0.601723
0.908486
1.00756
1.02289
1.02634
0.978943
0.965723
0.469233
0.373775
0.413444
0.601461
0.906966
1.00858
1.02388
1.02767
0.979129
0.965903
0.469233
0.373775
0.413444
0.601461
0.906966
1.00858
1.02388
1.02767
0.979129
0.965903
0.467394
0.368504
0.408315
0.601723
0.908486
1.00756
1.02289
1.02634
0.978943
0.965723
0.465419
0.363005
0.406311
0.602949
0.90347
1.00524
1.02308
1.02512
0.978908
0.965578
0.461501
0.35967
0.40494
0.596228
0.900454
1.00228
1.02128
1.02309
0.978702
0.965337
0.457244
0.358674
0.399265
0.588169
0.894712
0.999007
1.01903
1.02106
0.978336
0.96523
0.450397
0.358334
0.40095
0.584922
0.891294
0.996497
1.01716
1.01872
0.977933
0.965069
0.445291
0.358445
0.40545
0.581437
0.886079
0.99183
1.01414
1.01785
0.977688
0.96493
0.44017
0.359545
0.406405
0.572782
0.879313
0.985471
1.01153
1.01612
0.976849
0.964795
0.437098
0.365139
0.407063
0.570678
0.877794
0.981248
1.00962
1.01409
0.977184
0.964703
0.435777
0.37052
0.414832
0.562158
0.874698
0.978788
1.00814
1.01208
0.97661
0.964443
0.523556
0.380462
0.412511
0.548554
0.864936
0.971788
1.00509
1.00951
0.975715
0.964419
0.626026
0.387108
0.407101
0.5377
0.857092
0.964342
1.00061
1.00651
0.974432
0.96405
0.712697
0.412234
0.409172
0.526833
0.851528
0.959231
0.996241
1.00337
0.973026
0.96385
0.783064
0.458936
0.411822
0.516218
0.841064
0.954994
0.992752
1.00004
0.971629
0.963481
0.844507
0.509518
0.416555
0.502508
0.824896
0.95026
0.990214
0.996677
0.970139
0.963071
0.895214
0.564055
0.428387
0.502112
0.803274
0.942967
0.988015
0.993391
0.968577
0.962585
0.942339
0.614432
0.443595
0.505556
0.782455
0.933646
0.985439
0.990327
0.967069
0.962051
0.983337
0.661905
0.466242
0.515684
0.763907
0.925178
0.982456
0.98765
0.965758
0.961551
1.0203
0.704453
0.496105
0.529921
0.746838
0.917847
0.979618
0.985393
0.964632
0.961086
1.05236
0.742532
0.534413
0.539784
0.73056
0.910719
0.97667
0.983056
0.963477
0.960639
1.07963
0.779043
0.570086
0.550609
0.715162
0.902572
0.972921
0.980001
0.962034
0.960209
1.10389
0.813229
0.604518
0.563305
0.703914
0.892929
0.968125
0.976352
0.96023
0.959771
1.12378
0.845113
0.637256
0.5785
0.699764
0.884943
0.962995
0.972528
0.958179
0.959305
1.1426
0.874619
0.668839
0.594616
0.700976
0.879592
0.958551
0.968864
0.956136
0.958775
1.15874
0.901763
0.699069
0.612294
0.706221
0.876629
0.9547
0.965552
0.954146
0.95814
1.17438
0.927079
0.727166
0.630585
0.716135
0.876635
0.950897
0.962243
0.952022
0.957363
1.18927
0.950831
0.754096
0.648921
0.72749
0.877509
0.947236
0.958234
0.949413
0.956852
1.2027
0.973479
0.779185
0.666032
0.740128
0.880861
0.94444
0.954297
0.946572
0.956712
1.21504
0.994592
0.804022
0.682289
0.751071
0.885206
0.942051
0.952374
0.945425
0.956753
1.22628
1.0146
0.828207
0.695726
0.75986
0.888327
0.940405
0.950254
0.945333
0.956489
2.30437
2.19406
2.1138
2.03723
1.96328
1.89158
1.81624
1.72956
1.60844
1.47158
2.15207
2.05136
2.0031
1.9491
1.89397
1.83267
1.76139
1.67166
1.54581
1.37103
2.10023
2.0261
1.98642
1.93399
1.88163
1.82217
1.75172
1.66176
1.53697
1.37034
2.04126
1.98588
1.95173
1.90349
1.8555
1.79669
1.7267
1.63675
1.51545
1.34621
1.99323
1.94904
1.92011
1.8754
1.82943
1.77129
1.70318
1.61499
1.49741
1.33431
1.95048
1.91268
1.88703
1.84604
1.80345
1.74701
1.68116
1.5956
1.48292
1.32967
1.91502
1.88149
1.85806
1.81956
1.77931
1.72459
1.66157
1.57994
1.47238
1.32969
1.8843
1.85286
1.83027
1.79356
1.75555
1.70337
1.64352
1.56611
1.46389
1.33241
1.85824
1.82753
1.80542
1.77068
1.73484
1.68505
1.62776
1.55436
1.45718
1.33612
1.83581
1.80499
1.783
1.74986
1.71572
1.66838
1.61371
1.54396
1.45162
1.33976
1.81703
1.78509
1.76276
1.73098
1.69832
1.65354
1.60136
1.53497
1.44701
1.34293
1.79852
1.76569
1.74337
1.71319
1.68175
1.6394
1.58984
1.52734
1.4435
1.34574
1.77894
1.74698
1.72515
1.69648
1.66622
1.62634
1.57961
1.5207
1.44124
1.34831
1.7592
1.72917
1.70827
1.68096
1.65172
1.61379
1.5695
1.51383
1.44011
1.35096
1.73937
1.71187
1.69177
1.66528
1.6372
1.60136
1.55985
1.50707
1.43937
1.35422
1.71926
1.69458
1.67569
1.65062
1.62412
1.59007
1.55132
1.50025
1.43815
1.35779
1.69946
1.67792
1.65995
1.63641
1.61099
1.57948
1.5434
1.49382
1.43605
1.36117
1.676
1.65914
1.64134
1.62198
1.59839
1.5701
1.53589
1.48961
1.43427
1.3644
1.64788
1.64213
1.62409
1.60881
1.58674
1.56109
1.52892
1.48635
1.43255
1.36616
1.61677
1.62309
1.60796
1.59569
1.57653
1.55173
1.52125
1.4824
1.43278
1.37153
1.03661
1.07555
1.07682
1.07223
1.06488
1.05746
1.04856
1.04283
1.10598
1.70719
1.03661
1.07555
1.07682
1.07223
1.06488
1.05746
1.0486
1.04234
1.10416
1.69925
1.03661
1.07555
1.07682
1.07223
1.06488
1.05746
1.04865
1.04147
1.10144
1.68746
1.03661
1.07555
1.07682
1.07223
1.06489
1.05745
1.04873
1.04028
1.09783
1.67248
1.03661
1.07555
1.07682
1.07223
1.06489
1.05744
1.04881
1.03932
1.09335
1.656
1.03661
1.07555
1.07682
1.07223
1.06489
1.05742
1.04889
1.03853
1.08794
1.63742
1.03661
1.07555
1.07682
1.07223
1.0649
1.05739
1.04898
1.03837
1.08166
1.61766
1.03661
1.07555
1.07682
1.07223
1.06491
1.05736
1.04908
1.03827
1.07496
1.59645
1.03661
1.07555
1.07682
1.07222
1.06492
1.05732
1.04919
1.03816
1.06815
1.57436
1.03661
1.07555
1.07682
1.07222
1.06493
1.05728
1.04932
1.03792
1.06134
1.55122
1.03661
1.07555
1.07682
1.07222
1.06494
1.05724
1.04948
1.03743
1.05467
1.52748
1.03661
1.07555
1.07682
1.07222
1.06495
1.05719
1.04962
1.03705
1.04833
1.50359
1.03661
1.07555
1.07682
1.07222
1.06496
1.05716
1.04974
1.03705
1.04248
1.47924
1.03661
1.07555
1.07682
1.07221
1.06496
1.05713
1.04982
1.03731
1.03732
1.45399
1.03661
1.07555
1.07682
1.07221
1.06497
1.05711
1.04985
1.03783
1.03305
1.42801
1.03661
1.07555
1.07682
1.07221
1.06497
1.05711
1.04982
1.03849
1.03016
1.40073
1.03661
1.07555
1.07682
1.07221
1.06497
1.05711
1.04976
1.03914
1.02862
1.37245
1.03661
1.07555
1.07682
1.07221
1.06497
1.05713
1.04967
1.03969
1.02776
1.34424
1.03661
1.07555
1.07682
1.07221
1.06497
1.05715
1.04957
1.04011
1.02721
1.31574
1.03661
1.07555
1.07682
1.07221
1.06496
1.05718
1.04946
1.04043
1.02701
1.28704
1.03661
1.07555
1.07682
1.07221
1.06496
1.05718
1.04946
1.04043
1.02701
1.28704
1.03661
1.07555
1.07682
1.07221
1.06497
1.05715
1.04957
1.04011
1.02721
1.31574
1.03661
1.07555
1.07682
1.07221
1.06497
1.05713
1.04967
1.03969
1.02776
1.34424
1.03661
1.07555
1.07682
1.07221
1.06497
1.05711
1.04976
1.03914
1.02862
1.37245
1.03661
1.07555
1.07682
1.07221
1.06497
1.05711
1.04982
1.03849
1.03016
1.40073
1.03661
1.07555
1.07682
1.07221
1.06497
1.05711
1.04985
1.03783
1.03305
1.42801
1.03661
1.07555
1.07682
1.07221
1.06496
1.05713
1.04982
1.03731
1.03732
1.45399
1.03661
1.07555
1.07682
1.07222
1.06496
1.05716
1.04974
1.03705
1.04248
1.47924
1.03661
1.07555
1.07682
1.07222
1.06495
1.05719
1.04962
1.03705
1.04833
1.50359
1.03661
1.07555
1.07682
1.07222
1.06494
1.05724
1.04948
1.03743
1.05467
1.52748
1.03661
1.07555
1.07682
1.07222
1.06493
1.05728
1.04932
1.03792
1.06134
1.55122
1.03661
1.07555
1.07682
1.07222
1.06492
1.05732
1.04919
1.03816
1.06815
1.57436
1.03661
1.07555
1.07682
1.07223
1.06491
1.05736
1.04908
1.03827
1.07496
1.59645
1.03661
1.07555
1.07682
1.07223
1.0649
1.05739
1.04898
1.03837
1.08166
1.61766
1.03661
1.07555
1.07682
1.07223
1.06489
1.05742
1.04889
1.03853
1.08794
1.63742
1.03661
1.07555
1.07682
1.07223
1.06489
1.05744
1.04881
1.03932
1.09335
1.656
1.03661
1.07555
1.07682
1.07223
1.06489
1.05745
1.04873
1.04028
1.09783
1.67248
1.03661
1.07555
1.07682
1.07223
1.06488
1.05746
1.04865
1.04147
1.10144
1.68746
1.03661
1.07555
1.07682
1.07223
1.06488
1.05746
1.0486
1.04234
1.10416
1.69925
1.03661
1.07555
1.07682
1.07223
1.06488
1.05746
1.04856
1.04283
1.10598
1.70719
1.61677
1.62309
1.60796
1.59569
1.57653
1.55173
1.52125
1.4824
1.43278
1.37153
1.64788
1.64213
1.62409
1.60881
1.58674
1.56109
1.52892
1.48635
1.43255
1.36616
1.676
1.65914
1.64134
1.62198
1.59839
1.5701
1.53589
1.48961
1.43427
1.3644
1.69946
1.67792
1.65995
1.63641
1.61099
1.57948
1.5434
1.49382
1.43605
1.36117
1.71926
1.69458
1.67569
1.65062
1.62412
1.59007
1.55132
1.50025
1.43815
1.35779
1.73937
1.71187
1.69177
1.66528
1.6372
1.60136
1.55985
1.50707
1.43937
1.35422
1.7592
1.72917
1.70827
1.68096
1.65172
1.61379
1.5695
1.51383
1.44011
1.35096
1.77894
1.74698
1.72515
1.69648
1.66622
1.62634
1.57961
1.5207
1.44124
1.34831
1.79852
1.76569
1.74337
1.71319
1.68175
1.6394
1.58984
1.52734
1.4435
1.34574
1.81703
1.78509
1.76276
1.73098
1.69832
1.65354
1.60136
1.53497
1.44701
1.34293
1.83581
1.80499
1.783
1.74986
1.71572
1.66838
1.61371
1.54396
1.45162
1.33976
1.85824
1.82753
1.80542
1.77068
1.73484
1.68505
1.62776
1.55436
1.45718
1.33612
1.8843
1.85286
1.83027
1.79356
1.75555
1.70337
1.64352
1.56611
1.46389
1.33241
1.91502
1.88149
1.85806
1.81956
1.77931
1.72459
1.66157
1.57994
1.47238
1.32969
1.95048
1.91268
1.88703
1.84604
1.80345
1.74701
1.68116
1.5956
1.48292
1.32967
1.99323
1.94904
1.92011
1.8754
1.82943
1.77129
1.70318
1.61499
1.49741
1.33431
2.04126
1.98588
1.95173
1.90349
1.8555
1.79669
1.7267
1.63675
1.51545
1.34621
2.10023
2.0261
1.98642
1.93399
1.88163
1.82217
1.75172
1.66176
1.53697
1.37034
2.15207
2.05136
2.0031
1.9491
1.89397
1.83267
1.76139
1.67166
1.54581
1.37103
2.30437
2.19406
2.1138
2.03723
1.96328
1.89158
1.81624
1.72956
1.60844
1.47158
1.22628
1.0146
0.828207
0.695726
0.75986
0.888327
0.940405
0.950254
0.945333
0.956489
1.21504
0.994592
0.804022
0.682289
0.751071
0.885206
0.942051
0.952374
0.945425
0.956753
1.2027
0.973479
0.779185
0.666032
0.740128
0.880861
0.94444
0.954297
0.946572
0.956712
1.18927
0.950831
0.754096
0.648921
0.72749
0.877509
0.947236
0.958234
0.949413
0.956852
1.17438
0.927079
0.727166
0.630585
0.716135
0.876635
0.950897
0.962243
0.952022
0.957363
1.15874
0.901763
0.699069
0.612294
0.706221
0.876629
0.9547
0.965552
0.954146
0.95814
1.1426
0.874619
0.668839
0.594616
0.700976
0.879592
0.958551
0.968864
0.956136
0.958775
1.12378
0.845113
0.637256
0.5785
0.699764
0.884943
0.962995
0.972528
0.958179
0.959305
1.10389
0.813229
0.604518
0.563305
0.703914
0.892929
0.968125
0.976352
0.96023
0.959771
1.07963
0.779043
0.570086
0.550609
0.715162
0.902572
0.972921
0.980001
0.962034
0.960209
1.05236
0.742532
0.534413
0.539784
0.73056
0.910719
0.97667
0.983056
0.963477
0.960639
1.0203
0.704453
0.496105
0.529921
0.746838
0.917847
0.979618
0.985393
0.964632
0.961086
0.983337
0.661905
0.466242
0.515684
0.763907
0.925178
0.982456
0.98765
0.965758
0.961551
0.942339
0.614432
0.443595
0.505556
0.782455
0.933646
0.985439
0.990327
0.967069
0.962051
0.895214
0.564055
0.428387
0.502112
0.803274
0.942967
0.988015
0.993391
0.968577
0.962585
0.844507
0.509518
0.416555
0.502508
0.824896
0.95026
0.990214
0.996677
0.970139
0.963071
0.783064
0.458936
0.411822
0.516218
0.841064
0.954994
0.992752
1.00004
0.971629
0.963481
0.712697
0.412234
0.409172
0.526833
0.851528
0.959231
0.996241
1.00337
0.973026
0.96385
0.626026
0.387108
0.407101
0.5377
0.857092
0.964342
1.00061
1.00651
0.974432
0.96405
0.523556
0.380462
0.412511
0.548554
0.864936
0.971788
1.00509
1.00951
0.975715
0.964419
1.00287
1.0003
1.00495
1.0505
1.1247
1.13703
1.10582
1.04414
1.0056
1.00207
1.00267
1.00174
1.03042
1.10709
1.14841
1.14276
1.11242
1.06464
1.01721
1.00294
1.00233
1.0121
1.09115
1.16143
1.16133
1.14281
1.11337
1.07605
1.03108
1.00532
1.00311
1.04906
1.1646
1.18872
1.16608
1.14095
1.11164
1.07835
1.04088
1.009
1.00975
1.12155
1.21393
1.19564
1.16266
1.11846
1.09182
1.07458
1.04436
1.01301
1.03895
1.20498
1.23354
1.19255
1.1407
1.07883
1.05184
1.05145
1.04329
1.01625
1.11189
1.26212
1.23661
1.181
1.11112
1.0445
1.01677
1.02285
1.02988
1.01733
1.21503
1.28581
1.23207
1.15438
1.07971
1.01758
0.99105
0.998425
1.01138
1.01427
1.30394
1.29066
1.21737
1.12655
1.05019
0.994186
0.971008
0.978432
0.994569
1.00662
1.35132
1.28667
1.19331
1.09794
1.0228
0.972255
0.952196
0.959798
0.978118
0.999407
1.3645
1.27566
1.16913
1.07175
0.996856
0.950009
0.932976
0.941924
0.963166
0.992822
1.36138
1.25374
1.14333
1.04548
0.97156
0.92823
0.912657
0.923079
0.948299
0.985933
1.35238
1.23296
1.11774
1.01839
0.945911
0.904775
0.889778
0.903436
0.934626
0.979325
1.339
1.21214
1.09159
0.989041
0.917185
0.878147
0.866594
0.886529
0.92295
0.972856
1.32517
1.19061
1.06326
0.956661
0.883514
0.848016
0.845987
0.874357
0.914355
0.966439
1.31108
1.16732
1.03235
0.919516
0.842786
0.82293
0.83815
0.875825
0.913212
0.960475
1.29615
1.14143
0.997658
0.875286
0.80145
0.811176
0.839328
0.882225
0.915003
0.954912
1.28034
1.11272
0.958278
0.822954
0.772666
0.815165
0.868024
0.91117
0.925121
0.952042
1.26336
1.07964
0.914708
0.767607
0.759474
0.847028
0.917778
0.938909
0.938847
0.952636
1.24267
1.04376
0.866388
0.718548
0.758541
0.877717
0.938632
0.94989
0.944097
0.955214
1.24267
1.04376
0.866388
0.718548
0.758541
0.877717
0.938632
0.94989
0.944097
0.955214
1.26336
1.07964
0.914708
0.767607
0.759474
0.847028
0.917778
0.938909
0.938847
0.952636
1.28034
1.11272
0.958278
0.822954
0.772666
0.815165
0.868024
0.91117
0.925121
0.952042
1.29615
1.14143
0.997658
0.875286
0.80145
0.811176
0.839328
0.882225
0.915003
0.954912
1.31108
1.16732
1.03235
0.919516
0.842786
0.82293
0.83815
0.875825
0.913212
0.960475
1.32517
1.19061
1.06326
0.956661
0.883514
0.848016
0.845987
0.874357
0.914355
0.966439
1.339
1.21214
1.09159
0.989041
0.917185
0.878147
0.866594
0.886529
0.92295
0.972856
1.35238
1.23296
1.11774
1.01839
0.945911
0.904775
0.889778
0.903436
0.934626
0.979325
1.36138
1.25374
1.14333
1.04548
0.97156
0.92823
0.912657
0.923079
0.948299
0.985933
1.3645
1.27566
1.16913
1.07175
0.996856
0.950009
0.932976
0.941924
0.963166
0.992822
1.35132
1.28667
1.19331
1.09794
1.0228
0.972255
0.952196
0.959798
0.978118
0.999407
1.30394
1.29066
1.21737
1.12655
1.05019
0.994186
0.971008
0.978432
0.994569
1.00662
1.21503
1.28581
1.23207
1.15438
1.07971
1.01758
0.99105
0.998425
1.01138
1.01427
1.11189
1.26212
1.23661
1.181
1.11112
1.0445
1.01677
1.02285
1.02988
1.01733
1.03895
1.20498
1.23354
1.19255
1.1407
1.07883
1.05184
1.05145
1.04329
1.01625
1.00975
1.12155
1.21393
1.19564
1.16266
1.11846
1.09182
1.07458
1.04436
1.01301
1.00311
1.04906
1.1646
1.18872
1.16608
1.14095
1.11164
1.07835
1.04088
1.009
1.00233
1.0121
1.09115
1.16143
1.16133
1.14281
1.11337
1.07605
1.03108
1.00532
1.00267
1.00174
1.03042
1.10709
1.14841
1.14276
1.11242
1.06464
1.01721
1.00294
1.00287
1.0003
1.00495
1.0505
1.1247
1.13703
1.10582
1.04414
1.0056
1.00207
1.56746
1.59556
1.59075
1.57975
1.56344
1.54149
1.51329
1.47851
1.43264
1.3772
1.49046
1.56435
1.57463
1.56608
1.54997
1.53031
1.50375
1.47198
1.4322
1.38453
1.38078
1.51559
1.56102
1.56353
1.54567
1.52365
1.49631
1.46618
1.43306
1.3906
1.24541
1.39874
1.51628
1.55611
1.55011
1.52421
1.49659
1.4684
1.43701
1.39704
1.13806
1.21693
1.38894
1.50674
1.53931
1.52719
1.50184
1.47312
1.44128
1.40404
1.07704
1.09561
1.18306
1.35807
1.47439
1.51828
1.5064
1.47898
1.44683
1.41097
1.04718
1.04982
1.06581
1.14397
1.30586
1.44702
1.4944
1.47942
1.45204
1.41946
1.0324
1.03317
1.0338
1.04461
1.10596
1.26145
1.4025
1.46143
1.45678
1.42687
1.02364
1.02403
1.02363
1.02301
1.02968
1.07682
1.20859
1.35913
1.4315
1.4283
1.01777
1.01776
1.01759
1.01682
1.01555
1.01942
1.05274
1.16645
1.31901
1.39816
1.01501
1.01448
1.01401
1.01347
1.01247
1.01125
1.01286
1.03635
1.13168
1.28876
1.01435
1.01359
1.01281
1.01202
1.0112
1.01011
1.00908
1.00895
1.02535
1.11949
1.01435
1.01356
1.01271
1.01181
1.01087
1.00986
1.00879
1.00777
1.00685
1.02221
1.01437
1.01357
1.01272
1.01181
1.01085
1.00984
1.00875
1.00768
1.00653
1.00578
1.01438
1.01358
1.01272
1.01182
1.01085
1.00984
1.00874
1.0077
1.00647
1.00493
1.01438
1.01358
1.01273
1.01182
1.01085
1.00983
1.00876
1.00764
1.00656
1.00485
1.01438
1.01358
1.01273
1.01182
1.01085
1.00983
1.00878
1.00761
1.00658
1.00517
1.01438
1.01358
1.01273
1.01182
1.01085
1.00983
1.00877
1.00763
1.00653
1.00535
1.01438
1.01358
1.01272
1.01182
1.01085
1.00983
1.00876
1.00765
1.0065
1.00535
1.01438
1.01358
1.01272
1.01182
1.01085
1.00983
1.00876
1.00765
1.0065
1.00535
1.03661
1.07555
1.07682
1.07221
1.06495
1.05722
1.04932
1.04069
1.02701
1.25046
1.03661
1.07555
1.07682
1.07222
1.06494
1.05726
1.04921
1.0408
1.0272
1.20524
1.03661
1.07555
1.07682
1.07222
1.06493
1.05729
1.04915
1.04084
1.02745
1.15819
1.03661
1.07555
1.07682
1.07222
1.06493
1.0573
1.04913
1.04084
1.02762
1.11435
1.03661
1.07555
1.07682
1.07222
1.06493
1.05731
1.04912
1.04084
1.02784
1.07942
1.03661
1.07555
1.07682
1.07222
1.06492
1.05731
1.0491
1.04087
1.02805
1.0546
1.03661
1.07555
1.07682
1.07222
1.06492
1.05732
1.04908
1.04098
1.0276
1.0388
1.03661
1.07555
1.07682
1.07222
1.06492
1.05732
1.04905
1.04107
1.02749
1.0292
1.03661
1.07555
1.07682
1.07222
1.06492
1.05732
1.04904
1.04114
1.02797
1.02344
1.03661
1.07555
1.07682
1.07222
1.06492
1.05732
1.04904
1.04109
1.02887
1.02036
1.03661
1.07555
1.07682
1.07222
1.06492
1.05732
1.04907
1.04097
1.02974
1.01998
1.03661
1.07555
1.07682
1.07222
1.06492
1.05731
1.04911
1.0408
1.03038
1.02003
1.03661
1.07555
1.07682
1.07222
1.06493
1.0573
1.04915
1.04065
1.0307
1.02014
1.03661
1.07555
1.07682
1.07222
1.06493
1.0573
1.04917
1.04059
1.03077
1.02021
1.03661
1.07555
1.07682
1.07222
1.06493
1.05729
1.04918
1.04058
1.03078
1.02022
1.03661
1.07555
1.07682
1.07222
1.06493
1.05729
1.04918
1.04058
1.03078
1.02023
1.03661
1.07555
1.07682
1.07222
1.06493
1.05729
1.04918
1.04058
1.03078
1.02023
1.03661
1.07555
1.07682
1.07222
1.06493
1.05729
1.04918
1.04058
1.03078
1.02023
1.03661
1.07555
1.07682
1.07222
1.06493
1.05729
1.04918
1.04058
1.03078
1.02023
1.03661
1.07555
1.07682
1.07222
1.06493
1.05729
1.04918
1.04058
1.03078
1.02023
1.03661
1.07555
1.07682
1.07222
1.06493
1.05729
1.04918
1.04058
1.03078
1.02023
1.03661
1.07555
1.07682
1.07222
1.06493
1.05729
1.04918
1.04058
1.03078
1.02023
1.03661
1.07555
1.07682
1.07222
1.06493
1.05729
1.04918
1.04058
1.03078
1.02023
1.03661
1.07555
1.07682
1.07222
1.06493
1.05729
1.04918
1.04058
1.03078
1.02023
1.03661
1.07555
1.07682
1.07222
1.06493
1.05729
1.04918
1.04058
1.03078
1.02023
1.03661
1.07555
1.07682
1.07222
1.06493
1.05729
1.04918
1.04058
1.03078
1.02022
1.03661
1.07555
1.07682
1.07222
1.06493
1.0573
1.04917
1.04059
1.03077
1.02021
1.03661
1.07555
1.07682
1.07222
1.06493
1.0573
1.04915
1.04065
1.0307
1.02014
1.03661
1.07555
1.07682
1.07222
1.06492
1.05731
1.04911
1.0408
1.03038
1.02003
1.03661
1.07555
1.07682
1.07222
1.06492
1.05732
1.04907
1.04097
1.02974
1.01998
1.03661
1.07555
1.07682
1.07222
1.06492
1.05732
1.04904
1.04109
1.02887
1.02036
1.03661
1.07555
1.07682
1.07222
1.06492
1.05732
1.04904
1.04114
1.02797
1.02344
1.03661
1.07555
1.07682
1.07222
1.06492
1.05732
1.04905
1.04107
1.02749
1.0292
1.03661
1.07555
1.07682
1.07222
1.06492
1.05732
1.04908
1.04098
1.0276
1.0388
1.03661
1.07555
1.07682
1.07222
1.06492
1.05731
1.0491
1.04087
1.02805
1.0546
1.03661
1.07555
1.07682
1.07222
1.06493
1.05731
1.04912
1.04084
1.02784
1.07942
1.03661
1.07555
1.07682
1.07222
1.06493
1.0573
1.04913
1.04084
1.02762
1.11435
1.03661
1.07555
1.07682
1.07222
1.06493
1.05729
1.04915
1.04084
1.02745
1.15819
1.03661
1.07555
1.07682
1.07222
1.06494
1.05726
1.04921
1.0408
1.0272
1.20524
1.03661
1.07555
1.07682
1.07221
1.06495
1.05722
1.04932
1.04069
1.02701
1.25046
1.01438
1.01358
1.01272
1.01182
1.01085
1.00983
1.00876
1.00765
1.0065
1.00535
1.01438
1.01358
1.01272
1.01182
1.01085
1.00983
1.00876
1.00765
1.0065
1.00535
1.01438
1.01358
1.01273
1.01182
1.01085
1.00983
1.00877
1.00763
1.00653
1.00535
1.01438
1.01358
1.01273
1.01182
1.01085
1.00983
1.00878
1.00761
1.00658
1.00517
1.01438
1.01358
1.01273
1.01182
1.01085
1.00983
1.00876
1.00764
1.00656
1.00485
1.01438
1.01358
1.01272
1.01182
1.01085
1.00984
1.00874
1.0077
1.00647
1.00493
1.01437
1.01357
1.01272
1.01181
1.01085
1.00984
1.00875
1.00768
1.00653
1.00578
1.01435
1.01356
1.01271
1.01181
1.01087
1.00986
1.00879
1.00777
1.00685
1.02221
1.01435
1.01359
1.01281
1.01202
1.0112
1.01011
1.00908
1.00895
1.02535
1.11949
1.01501
1.01448
1.01401
1.01347
1.01247
1.01125
1.01286
1.03635
1.13168
1.28876
1.01777
1.01776
1.01759
1.01682
1.01555
1.01942
1.05274
1.16645
1.31901
1.39816
1.02364
1.02403
1.02363
1.02301
1.02968
1.07682
1.20859
1.35913
1.4315
1.4283
1.0324
1.03317
1.0338
1.04461
1.10596
1.26145
1.4025
1.46143
1.45678
1.42687
1.04718
1.04982
1.06581
1.14397
1.30586
1.44702
1.4944
1.47942
1.45204
1.41946
1.07704
1.09561
1.18306
1.35807
1.47439
1.51828
1.5064
1.47898
1.44683
1.41097
1.13806
1.21693
1.38894
1.50674
1.53931
1.52719
1.50184
1.47312
1.44128
1.40404
1.24541
1.39874
1.51628
1.55611
1.55011
1.52421
1.49659
1.4684
1.43701
1.39704
1.38078
1.51559
1.56102
1.56353
1.54567
1.52365
1.49631
1.46618
1.43306
1.3906
1.49046
1.56435
1.57463
1.56608
1.54997
1.53031
1.50375
1.47198
1.4322
1.38453
1.56746
1.59556
1.59075
1.57975
1.56344
1.54149
1.51329
1.47851
1.43264
1.3772
)
;

boundaryField
{
    inlet
    {
        type            fixedValue;
        value           uniform 1;
    }
    outlet
    {
        type            zeroGradient;
    }
    triangle
    {
        type            zeroGradient;
    }
    top
    {
        type            symmetryPlane;
    }
    bottom
    {
        type            symmetryPlane;
    }
    defaultFaces
    {
        type            empty;
    }
}


// ************************************************************************* //
