/*--------------------------------*- C++ -*----------------------------------*\
  =========                 |
  \\      /  F ield         | OpenFOAM: The Open Source CFD Toolbox
   \\    /   O peration     | Website:  https://openfoam.org
    \\  /    A nd           | Version:  8
     \\/     M anipulation  |
\*---------------------------------------------------------------------------*/
FoamFile
{
    version     2.0;
    format      ascii;
    class       volScalarField;
    location    "0.4";
    object      T;
}
// * * * * * * * * * * * * * * * * * * * * * * * * * * * * * * * * * * * * * //

dimensions      [0 0 0 1 0 0 0];

internalField   nonuniform List<scalar> 
2600
(
0.978741
0.892436
0.891906
0.922595
1.02117
1.02508
1.01873
1.01312
0.995625
0.98999
0.976187
0.912167
0.914013
0.951361
1.03833
1.03408
1.02423
1.01565
0.99581
0.989979
0.961809
0.914064
0.937636
0.984136
1.0593
1.04824
1.03202
1.01861
0.995732
0.989931
0.940902
0.906811
0.954103
1.03002
1.08707
1.06718
1.0417
1.02171
0.996061
0.989929
0.923333
0.894836
0.960541
1.07052
1.11416
1.08584
1.05107
1.02422
0.996278
0.989986
0.912049
0.881989
0.962377
1.0869
1.12987
1.09714
1.05685
1.02637
0.996574
0.990126
0.902616
0.869953
0.959596
1.08041
1.13276
1.10029
1.05889
1.02767
0.996923
0.990309
0.896081
0.861147
0.941865
1.05448
1.12358
1.09709
1.05863
1.0284
0.997259
0.990548
0.89237
0.857374
0.923265
1.02309
1.10759
1.08974
1.0569
1.02869
0.9975
0.990728
0.89194
0.85805
0.918161
1.01002
1.09707
1.08529
1.05607
1.02904
0.99765
0.990835
0.89194
0.85805
0.918161
1.01002
1.09707
1.08529
1.05607
1.02904
0.99765
0.990835
0.89237
0.857374
0.923265
1.02309
1.10759
1.08974
1.0569
1.02869
0.9975
0.990728
0.896081
0.861147
0.941865
1.05448
1.12358
1.09709
1.05863
1.0284
0.997259
0.990548
0.902616
0.869953
0.959596
1.08041
1.13276
1.10029
1.05889
1.02767
0.996923
0.990309
0.912049
0.881989
0.962377
1.0869
1.12987
1.09714
1.05685
1.02637
0.996574
0.990126
0.923333
0.894836
0.960541
1.07052
1.11416
1.08584
1.05107
1.02422
0.996278
0.989986
0.940902
0.906811
0.954103
1.03002
1.08707
1.06718
1.0417
1.02171
0.996061
0.989929
0.961809
0.914064
0.937636
0.984136
1.0593
1.04824
1.03202
1.01861
0.995732
0.989931
0.976187
0.912167
0.914013
0.951361
1.03833
1.03408
1.02423
1.01565
0.99581
0.989979
0.978741
0.892436
0.891906
0.922595
1.02117
1.02508
1.01873
1.01312
0.995625
0.98999
0.987336
0.868533
0.860761
0.893598
1.00375
1.01744
1.01404
1.01065
0.995337
0.990053
0.980371
0.853345
0.829648
0.869436
0.989574
1.01106
1.00993
1.0083
0.994863
0.989994
0.976128
0.850092
0.808638
0.852158
0.980273
1.00696
1.00707
1.00636
0.994241
0.989969
0.977407
0.853981
0.796868
0.841335
0.972695
1.00424
1.00522
1.00471
0.993548
0.989871
0.982919
0.858598
0.794089
0.832144
0.965069
1.00205
1.00388
1.00324
0.992827
0.989734
0.990528
0.869472
0.796808
0.830686
0.956034
0.999243
1.00268
1.00186
0.992132
0.989557
0.999952
0.882821
0.802334
0.831037
0.947035
0.995589
1.00134
1.00054
0.991514
0.989361
1.00905
0.897341
0.812337
0.834869
0.93887
0.991987
0.999881
0.999348
0.991005
0.989184
1.01765
0.911003
0.82566
0.840895
0.931562
0.988699
0.998557
0.998324
0.990579
0.989026
1.02515
0.923303
0.841982
0.845054
0.924823
0.985578
0.997337
0.997321
0.990158
0.988873
1.03137
0.934997
0.85621
0.850164
0.918226
0.982303
0.995996
0.996132
0.989653
0.988723
1.03671
0.945708
0.869636
0.855862
0.913284
0.978722
0.994413
0.994785
0.989042
0.988573
1.0408
0.955456
0.882067
0.862297
0.911379
0.975717
0.992755
0.993415
0.98837
0.988415
1.04456
0.964318
0.893795
0.868855
0.911399
0.973454
0.991317
0.992148
0.987726
0.988238
1.04763
0.972382
0.904805
0.875893
0.912893
0.971842
0.99006
0.991066
0.987118
0.988038
1.05065
0.97989
0.914894
0.883089
0.916267
0.97109
0.9888
0.990061
0.986481
0.987799
1.05362
0.986957
0.924462
0.890268
0.920196
0.970557
0.987577
0.988909
0.985696
0.987632
1.05641
0.993743
0.933307
0.896943
0.924479
0.970809
0.986663
0.987797
0.984828
0.987575
1.05914
1.00013
0.941988
0.9032
0.928064
0.971491
0.985942
0.987269
0.984452
0.987576
1.0618
1.0062
0.950327
0.908191
0.930929
0.971989
0.985476
0.986637
0.984395
0.987478
1.32167
1.30519
1.29453
1.28387
1.27296
1.26196
1.2498
1.23435
1.20995
1.1904
1.29183
1.27537
1.26933
1.262
1.25428
1.24519
1.2337
1.21749
1.19174
1.15498
1.27567
1.2627
1.25671
1.24889
1.24159
1.23296
1.22176
1.20563
1.18038
1.14056
1.25913
1.2493
1.24359
1.23569
1.2284
1.2192
1.20754
1.19107
1.16639
1.12459
1.24509
1.23733
1.23256
1.22494
1.21726
1.20728
1.19513
1.17831
1.15392
1.1139
1.23272
1.22609
1.22194
1.21493
1.20756
1.19736
1.18498
1.16801
1.14413
1.10722
1.2227
1.21678
1.21298
1.20636
1.19931
1.18919
1.17702
1.16045
1.1373
1.10343
1.21452
1.20893
1.2052
1.19881
1.19206
1.18231
1.17061
1.15472
1.13254
1.10161
1.20796
1.20247
1.19877
1.19265
1.18621
1.17681
1.16552
1.15035
1.12917
1.10078
1.20264
1.19708
1.19335
1.18744
1.18121
1.17217
1.1613
1.14678
1.12655
1.10027
1.19837
1.19255
1.18868
1.18294
1.17689
1.16822
1.15771
1.14375
1.12432
1.09974
1.19437
1.18831
1.18436
1.17881
1.17286
1.16453
1.15439
1.14107
1.12235
1.09913
1.19023
1.18426
1.1803
1.17491
1.16905
1.16105
1.15132
1.13857
1.12064
1.09845
1.18603
1.18034
1.17644
1.17117
1.16537
1.15759
1.14817
1.13592
1.11911
1.09776
1.18169
1.1764
1.17252
1.16727
1.16154
1.15401
1.14499
1.13317
1.11757
1.09722
1.17713
1.17229
1.16852
1.16341
1.15785
1.15051
1.14191
1.13034
1.11596
1.09683
1.17243
1.16812
1.16442
1.15947
1.15397
1.14702
1.13888
1.12761
1.11424
1.09652
1.16682
1.16336
1.15954
1.15529
1.15006
1.14371
1.13596
1.12544
1.11267
1.09633
1.16011
1.15878
1.15475
1.15122
1.14629
1.14053
1.13325
1.12363
1.11132
1.09599
1.15273
1.15344
1.15016
1.1473
1.14298
1.13742
1.1306
1.12188
1.11071
1.0967
1.01034
1.0211
1.02142
1.02017
1.01815
1.0161
1.01364
1.01205
1.03335
1.19403
1.01034
1.0211
1.02142
1.02017
1.01815
1.0161
1.01365
1.01192
1.03248
1.19085
1.01034
1.0211
1.02142
1.02017
1.01815
1.0161
1.01367
1.01168
1.03115
1.18514
1.01034
1.0211
1.02142
1.02017
1.01815
1.0161
1.01369
1.01135
1.02955
1.17806
1.01034
1.0211
1.02142
1.02017
1.01815
1.0161
1.01371
1.01108
1.02778
1.17081
1.01034
1.0211
1.02142
1.02017
1.01815
1.01609
1.01373
1.01087
1.02586
1.16372
1.01034
1.0211
1.02142
1.02017
1.01816
1.01608
1.01376
1.01082
1.02378
1.15711
1.01034
1.0211
1.02142
1.02017
1.01816
1.01607
1.01379
1.01079
1.02168
1.15088
1.01034
1.0211
1.02142
1.02017
1.01816
1.01606
1.01382
1.01076
1.0196
1.14504
1.01034
1.0211
1.02142
1.02017
1.01816
1.01605
1.01385
1.01069
1.01756
1.1394
1.01034
1.0211
1.02142
1.02017
1.01817
1.01604
1.0139
1.01055
1.0156
1.13393
1.01034
1.0211
1.02142
1.02017
1.01817
1.01603
1.01394
1.01044
1.01376
1.12859
1.01034
1.0211
1.02142
1.02017
1.01817
1.01602
1.01397
1.01044
1.01207
1.1232
1.01034
1.0211
1.02142
1.02017
1.01817
1.01601
1.01399
1.01051
1.01059
1.11757
1.01034
1.0211
1.02142
1.02017
1.01817
1.01601
1.014
1.01066
1.00937
1.11169
1.01034
1.0211
1.02142
1.02017
1.01818
1.016
1.01399
1.01085
1.00855
1.10537
1.01034
1.0211
1.02142
1.02017
1.01818
1.01601
1.01397
1.01103
1.00812
1.09863
1.01034
1.0211
1.02142
1.02017
1.01817
1.01601
1.01395
1.01118
1.00788
1.09168
1.01034
1.0211
1.02142
1.02017
1.01817
1.01602
1.01392
1.01129
1.00772
1.08446
1.01034
1.0211
1.02142
1.02017
1.01817
1.01602
1.01389
1.01138
1.00767
1.07702
1.01034
1.0211
1.02142
1.02017
1.01817
1.01602
1.01389
1.01138
1.00767
1.07702
1.01034
1.0211
1.02142
1.02017
1.01817
1.01602
1.01392
1.01129
1.00772
1.08446
1.01034
1.0211
1.02142
1.02017
1.01817
1.01601
1.01395
1.01118
1.00788
1.09168
1.01034
1.0211
1.02142
1.02017
1.01818
1.01601
1.01397
1.01103
1.00812
1.09863
1.01034
1.0211
1.02142
1.02017
1.01818
1.016
1.01399
1.01085
1.00855
1.10537
1.01034
1.0211
1.02142
1.02017
1.01817
1.01601
1.014
1.01066
1.00937
1.11169
1.01034
1.0211
1.02142
1.02017
1.01817
1.01601
1.01399
1.01051
1.01059
1.11757
1.01034
1.0211
1.02142
1.02017
1.01817
1.01602
1.01397
1.01044
1.01207
1.1232
1.01034
1.0211
1.02142
1.02017
1.01817
1.01603
1.01394
1.01044
1.01376
1.12859
1.01034
1.0211
1.02142
1.02017
1.01817
1.01604
1.0139
1.01055
1.0156
1.13393
1.01034
1.0211
1.02142
1.02017
1.01816
1.01605
1.01385
1.01069
1.01756
1.1394
1.01034
1.0211
1.02142
1.02017
1.01816
1.01606
1.01382
1.01076
1.0196
1.14504
1.01034
1.0211
1.02142
1.02017
1.01816
1.01607
1.01379
1.01079
1.02168
1.15088
1.01034
1.0211
1.02142
1.02017
1.01816
1.01608
1.01376
1.01082
1.02378
1.15711
1.01034
1.0211
1.02142
1.02017
1.01815
1.01609
1.01373
1.01087
1.02586
1.16372
1.01034
1.0211
1.02142
1.02017
1.01815
1.0161
1.01371
1.01108
1.02778
1.17081
1.01034
1.0211
1.02142
1.02017
1.01815
1.0161
1.01369
1.01135
1.02955
1.17806
1.01034
1.0211
1.02142
1.02017
1.01815
1.0161
1.01367
1.01168
1.03115
1.18514
1.01034
1.0211
1.02142
1.02017
1.01815
1.0161
1.01365
1.01192
1.03248
1.19085
1.01034
1.0211
1.02142
1.02017
1.01815
1.0161
1.01364
1.01205
1.03335
1.19403
1.15273
1.15344
1.15016
1.1473
1.14298
1.13742
1.1306
1.12188
1.11071
1.0967
1.16011
1.15878
1.15475
1.15122
1.14629
1.14053
1.13325
1.12363
1.11132
1.09599
1.16682
1.16336
1.15954
1.15529
1.15006
1.14371
1.13596
1.12544
1.11267
1.09633
1.17243
1.16812
1.16442
1.15947
1.15397
1.14702
1.13888
1.12761
1.11424
1.09652
1.17713
1.17229
1.16852
1.16341
1.15785
1.15051
1.14191
1.13034
1.11596
1.09683
1.18169
1.1764
1.17252
1.16727
1.16154
1.15401
1.14499
1.13317
1.11757
1.09722
1.18603
1.18034
1.17644
1.17117
1.16537
1.15759
1.14817
1.13592
1.11911
1.09776
1.19023
1.18426
1.1803
1.17491
1.16905
1.16105
1.15132
1.13857
1.12064
1.09845
1.19437
1.18831
1.18436
1.17881
1.17286
1.16453
1.15439
1.14107
1.12235
1.09913
1.19837
1.19255
1.18868
1.18294
1.17689
1.16822
1.15771
1.14375
1.12432
1.09974
1.20264
1.19708
1.19335
1.18744
1.18121
1.17217
1.1613
1.14678
1.12655
1.10027
1.20796
1.20247
1.19877
1.19265
1.18621
1.17681
1.16552
1.15035
1.12917
1.10078
1.21452
1.20893
1.2052
1.19881
1.19206
1.18231
1.17061
1.15472
1.13254
1.10161
1.2227
1.21678
1.21298
1.20636
1.19931
1.18919
1.17702
1.16045
1.1373
1.10343
1.23272
1.22609
1.22194
1.21493
1.20756
1.19736
1.18498
1.16801
1.14413
1.10722
1.24509
1.23733
1.23256
1.22494
1.21726
1.20728
1.19513
1.17831
1.15392
1.1139
1.25913
1.2493
1.24359
1.23569
1.2284
1.2192
1.20754
1.19107
1.16639
1.12459
1.27567
1.2627
1.25671
1.24889
1.24159
1.23296
1.22176
1.20563
1.18038
1.14056
1.29183
1.27537
1.26933
1.262
1.25428
1.24519
1.2337
1.21749
1.19174
1.15498
1.32167
1.30519
1.29453
1.28387
1.27296
1.26196
1.2498
1.23435
1.20995
1.1904
1.0618
1.0062
0.950327
0.908191
0.930929
0.971989
0.985476
0.986637
0.984395
0.987478
1.05914
1.00013
0.941988
0.9032
0.928064
0.971491
0.985942
0.987269
0.984452
0.987576
1.05641
0.993743
0.933307
0.896943
0.924479
0.970809
0.986663
0.987797
0.984828
0.987575
1.05362
0.986957
0.924462
0.890268
0.920196
0.970557
0.987577
0.988909
0.985696
0.987632
1.05065
0.97989
0.914894
0.883089
0.916267
0.97109
0.9888
0.990061
0.986481
0.987799
1.04763
0.972382
0.904805
0.875893
0.912893
0.971842
0.99006
0.991066
0.987118
0.988038
1.04456
0.964318
0.893795
0.868855
0.911399
0.973454
0.991317
0.992148
0.987726
0.988238
1.0408
0.955456
0.882067
0.862297
0.911379
0.975717
0.992755
0.993415
0.98837
0.988415
1.03671
0.945708
0.869636
0.855862
0.913284
0.978722
0.994413
0.994785
0.989042
0.988573
1.03137
0.934997
0.85621
0.850164
0.918226
0.982303
0.995996
0.996132
0.989653
0.988723
1.02515
0.923303
0.841982
0.845054
0.924823
0.985578
0.997337
0.997321
0.990158
0.988873
1.01765
0.911003
0.82566
0.840895
0.931562
0.988699
0.998557
0.998324
0.990579
0.989026
1.00905
0.897341
0.812337
0.834869
0.93887
0.991987
0.999881
0.999348
0.991005
0.989184
0.999952
0.882821
0.802334
0.831037
0.947035
0.995589
1.00134
1.00054
0.991514
0.989361
0.990528
0.869472
0.796808
0.830686
0.956034
0.999243
1.00268
1.00186
0.992132
0.989557
0.982919
0.858598
0.794089
0.832144
0.965069
1.00205
1.00388
1.00324
0.992827
0.989734
0.977407
0.853981
0.796868
0.841335
0.972695
1.00424
1.00522
1.00471
0.993548
0.989871
0.976128
0.850092
0.808638
0.852158
0.980273
1.00696
1.00707
1.00636
0.994241
0.989969
0.980371
0.853345
0.829648
0.869436
0.989574
1.01106
1.00993
1.0083
0.994863
0.989994
0.987336
0.868533
0.860761
0.893598
1.00375
1.01744
1.01404
1.01065
0.995337
0.990053
1.00082
1.00008
1.00142
1.01434
1.03453
1.03768
1.02936
1.01249
1.00161
1.00054
1.00076
1.0005
1.00866
1.02974
1.04058
1.03907
1.03102
1.0181
1.00491
1.00078
1.00067
1.00345
1.02546
1.04405
1.04392
1.03908
1.03127
1.02122
1.00883
1.00147
1.00089
1.01387
1.04497
1.05108
1.04522
1.03863
1.03083
1.02185
1.01157
1.00253
1.00278
1.03372
1.05759
1.0529
1.04439
1.0328
1.0256
1.02085
1.01255
1.00369
1.011
1.05552
1.06256
1.0522
1.0388
1.02228
1.01475
1.01454
1.01226
1.00462
1.03106
1.06976
1.06341
1.04937
1.0311
1.01296
1.00497
1.00659
1.00853
1.00494
1.05853
1.07579
1.06245
1.04266
1.02277
1.00552
0.997642
0.999668
1.00333
1.00407
1.08102
1.07732
1.05906
1.03556
1.01479
0.99895
0.99185
0.993915
0.99854
1.00187
1.09223
1.07675
1.05337
1.02816
1.00729
0.992684
0.986354
0.988489
0.993799
0.999789
1.09522
1.07446
1.04762
1.02139
1.00012
0.986223
0.980666
0.983218
0.989439
0.997886
1.09458
1.06932
1.04137
1.01457
0.993103
0.979824
0.974577
0.977594
0.98506
0.995894
1.09266
1.06441
1.03503
1.00746
0.985977
0.972875
0.967602
0.971643
0.98099
0.993981
1.08983
1.05951
1.02845
0.999619
0.977896
0.964883
0.960424
0.966476
0.977489
0.992109
1.08688
1.05445
1.02117
0.990736
0.968232
0.955594
0.954061
0.962766
0.9749
0.990245
1.0837
1.04887
1.01302
0.980168
0.956206
0.947635
0.951977
0.963326
0.974577
0.988505
1.08006
1.04235
1.00347
0.967031
0.943353
0.944369
0.952563
0.965452
0.975154
0.986872
1.07597
1.03471
0.99203
0.950876
0.933858
0.946562
0.962293
0.974512
0.978272
0.986038
1.07146
1.02542
0.978635
0.93306
0.929481
0.957842
0.978374
0.982932
0.982452
0.986232
1.06601
1.01493
0.963084
0.916223
0.929883
0.968085
0.984991
0.986312
0.98403
0.98706
1.06601
1.01493
0.963084
0.916223
0.929883
0.968085
0.984991
0.986312
0.98403
0.98706
1.07146
1.02542
0.978635
0.93306
0.929481
0.957842
0.978374
0.982932
0.982452
0.986232
1.07597
1.03471
0.99203
0.950876
0.933858
0.946562
0.962293
0.974512
0.978272
0.986038
1.08006
1.04235
1.00347
0.967031
0.943353
0.944369
0.952563
0.965452
0.975154
0.986872
1.0837
1.04887
1.01302
0.980168
0.956206
0.947635
0.951977
0.963326
0.974577
0.988505
1.08688
1.05445
1.02117
0.990736
0.968232
0.955594
0.954061
0.962766
0.9749
0.990245
1.08983
1.05951
1.02845
0.999619
0.977896
0.964883
0.960424
0.966476
0.977489
0.992109
1.09266
1.06441
1.03503
1.00746
0.985977
0.972875
0.967602
0.971643
0.98099
0.993981
1.09458
1.06932
1.04137
1.01457
0.993103
0.979824
0.974577
0.977594
0.98506
0.995894
1.09522
1.07446
1.04762
1.02139
1.00012
0.986223
0.980666
0.983218
0.989439
0.997886
1.09223
1.07675
1.05337
1.02816
1.00729
0.992684
0.986354
0.988489
0.993799
0.999789
1.08102
1.07732
1.05906
1.03556
1.01479
0.99895
0.99185
0.993915
0.99854
1.00187
1.05853
1.07579
1.06245
1.04266
1.02277
1.00552
0.997642
0.999668
1.00333
1.00407
1.03106
1.06976
1.06341
1.04937
1.0311
1.01296
1.00497
1.00659
1.00853
1.00494
1.011
1.05552
1.06256
1.0522
1.0388
1.02228
1.01475
1.01454
1.01226
1.00462
1.00278
1.03372
1.05759
1.0529
1.04439
1.0328
1.0256
1.02085
1.01255
1.00369
1.00089
1.01387
1.04497
1.05108
1.04522
1.03863
1.03083
1.02185
1.01157
1.00253
1.00067
1.00345
1.02546
1.04405
1.04392
1.03908
1.03127
1.02122
1.00883
1.00147
1.00076
1.0005
1.00866
1.02974
1.04058
1.03907
1.03102
1.0181
1.00491
1.00078
1.00082
1.00008
1.00142
1.01434
1.03453
1.03768
1.02936
1.01249
1.00161
1.00054
1.14081
1.1464
1.14525
1.14273
1.13904
1.13416
1.12796
1.12028
1.11014
1.09772
1.12285
1.13867
1.14054
1.1387
1.13516
1.13093
1.12527
1.11847
1.10985
1.09936
1.09761
1.12745
1.13681
1.13752
1.13378
1.12921
1.12353
1.11721
1.11014
1.10095
1.0652
1.10139
1.12718
1.13574
1.13459
1.12939
1.12373
1.11785
1.11125
1.10272
1.03782
1.05813
1.0993
1.12545
1.13267
1.13025
1.12511
1.11919
1.11251
1.10458
1.02148
1.02653
1.04973
1.09254
1.11905
1.12878
1.12638
1.12071
1.11392
1.10622
1.01327
1.014
1.01845
1.03972
1.08057
1.1135
1.12401
1.12087
1.11506
1.10799
1.00915
1.00937
1.00954
1.0126
1.02965
1.07004
1.10354
1.11691
1.11599
1.10946
1.0067
1.00681
1.0067
1.00652
1.00842
1.02173
1.05681
1.09356
1.11015
1.10959
1.00505
1.00505
1.005
1.00478
1.00442
1.00553
1.01503
1.04599
1.08397
1.10265
1.00427
1.00412
1.00399
1.00383
1.00355
1.0032
1.00367
1.01041
1.03677
1.07686
1.00408
1.00387
1.00365
1.00342
1.00319
1.00288
1.00259
1.00256
1.00727
1.03362
1.00408
1.00386
1.00362
1.00336
1.0031
1.00281
1.00251
1.00222
1.00196
1.00639
1.00409
1.00386
1.00362
1.00337
1.00309
1.00281
1.00249
1.00219
1.00186
1.00165
1.00409
1.00387
1.00362
1.00337
1.00309
1.0028
1.00249
1.00219
1.00184
1.00141
1.00409
1.00387
1.00362
1.00337
1.00309
1.0028
1.0025
1.00218
1.00187
1.00138
1.00409
1.00387
1.00362
1.00337
1.00309
1.0028
1.0025
1.00217
1.00188
1.00147
1.00409
1.00387
1.00362
1.00337
1.00309
1.0028
1.0025
1.00218
1.00186
1.00152
1.00409
1.00387
1.00362
1.00337
1.00309
1.0028
1.0025
1.00218
1.00185
1.00153
1.00409
1.00387
1.00362
1.00337
1.00309
1.0028
1.0025
1.00218
1.00185
1.00153
1.01034
1.0211
1.02142
1.02017
1.01817
1.01604
1.01385
1.01146
1.00767
1.06741
1.01034
1.0211
1.02142
1.02017
1.01817
1.01605
1.01382
1.01149
1.00772
1.05546
1.01034
1.0211
1.02142
1.02017
1.01816
1.01606
1.0138
1.0115
1.00779
1.04305
1.01034
1.0211
1.02142
1.02017
1.01816
1.01606
1.0138
1.0115
1.00784
1.03147
1.01034
1.0211
1.02142
1.02017
1.01816
1.01606
1.0138
1.0115
1.00789
1.02211
1.01034
1.0211
1.02142
1.02017
1.01816
1.01606
1.01379
1.01151
1.00795
1.01533
1.01034
1.0211
1.02142
1.02017
1.01816
1.01606
1.01379
1.01154
1.00782
1.01095
1.01034
1.0211
1.02142
1.02017
1.01816
1.01606
1.01378
1.01156
1.00779
1.00826
1.01034
1.0211
1.02142
1.02017
1.01816
1.01606
1.01377
1.01158
1.00792
1.00664
1.01034
1.0211
1.02142
1.02017
1.01816
1.01606
1.01378
1.01157
1.00817
1.00578
1.01034
1.0211
1.02142
1.02017
1.01816
1.01606
1.01378
1.01154
1.00841
1.00567
1.01034
1.0211
1.02142
1.02017
1.01816
1.01606
1.01379
1.01149
1.00859
1.00569
1.01034
1.0211
1.02142
1.02017
1.01816
1.01606
1.0138
1.01145
1.00868
1.00572
1.01034
1.0211
1.02142
1.02017
1.01816
1.01606
1.01381
1.01143
1.0087
1.00574
1.01034
1.0211
1.02142
1.02017
1.01816
1.01606
1.01381
1.01143
1.0087
1.00574
1.01034
1.0211
1.02142
1.02017
1.01816
1.01606
1.01381
1.01143
1.0087
1.00574
1.01034
1.0211
1.02142
1.02017
1.01816
1.01606
1.01381
1.01143
1.0087
1.00574
1.01034
1.0211
1.02142
1.02017
1.01816
1.01606
1.01381
1.01143
1.0087
1.00574
1.01034
1.0211
1.02142
1.02017
1.01816
1.01606
1.01381
1.01143
1.0087
1.00574
1.01034
1.0211
1.02142
1.02017
1.01816
1.01606
1.01381
1.01143
1.0087
1.00574
1.01034
1.0211
1.02142
1.02017
1.01816
1.01606
1.01381
1.01143
1.0087
1.00574
1.01034
1.0211
1.02142
1.02017
1.01816
1.01606
1.01381
1.01143
1.0087
1.00574
1.01034
1.0211
1.02142
1.02017
1.01816
1.01606
1.01381
1.01143
1.0087
1.00574
1.01034
1.0211
1.02142
1.02017
1.01816
1.01606
1.01381
1.01143
1.0087
1.00574
1.01034
1.0211
1.02142
1.02017
1.01816
1.01606
1.01381
1.01143
1.0087
1.00574
1.01034
1.0211
1.02142
1.02017
1.01816
1.01606
1.01381
1.01143
1.0087
1.00574
1.01034
1.0211
1.02142
1.02017
1.01816
1.01606
1.01381
1.01143
1.0087
1.00574
1.01034
1.0211
1.02142
1.02017
1.01816
1.01606
1.0138
1.01145
1.00868
1.00572
1.01034
1.0211
1.02142
1.02017
1.01816
1.01606
1.01379
1.01149
1.00859
1.00569
1.01034
1.0211
1.02142
1.02017
1.01816
1.01606
1.01378
1.01154
1.00841
1.00567
1.01034
1.0211
1.02142
1.02017
1.01816
1.01606
1.01378
1.01157
1.00817
1.00578
1.01034
1.0211
1.02142
1.02017
1.01816
1.01606
1.01377
1.01158
1.00792
1.00664
1.01034
1.0211
1.02142
1.02017
1.01816
1.01606
1.01378
1.01156
1.00779
1.00826
1.01034
1.0211
1.02142
1.02017
1.01816
1.01606
1.01379
1.01154
1.00782
1.01095
1.01034
1.0211
1.02142
1.02017
1.01816
1.01606
1.01379
1.01151
1.00795
1.01533
1.01034
1.0211
1.02142
1.02017
1.01816
1.01606
1.0138
1.0115
1.00789
1.02211
1.01034
1.0211
1.02142
1.02017
1.01816
1.01606
1.0138
1.0115
1.00784
1.03147
1.01034
1.0211
1.02142
1.02017
1.01816
1.01606
1.0138
1.0115
1.00779
1.04305
1.01034
1.0211
1.02142
1.02017
1.01817
1.01605
1.01382
1.01149
1.00772
1.05546
1.01034
1.0211
1.02142
1.02017
1.01817
1.01604
1.01385
1.01146
1.00767
1.06741
1.00409
1.00387
1.00362
1.00337
1.00309
1.0028
1.0025
1.00218
1.00185
1.00153
1.00409
1.00387
1.00362
1.00337
1.00309
1.0028
1.0025
1.00218
1.00185
1.00153
1.00409
1.00387
1.00362
1.00337
1.00309
1.0028
1.0025
1.00218
1.00186
1.00152
1.00409
1.00387
1.00362
1.00337
1.00309
1.0028
1.0025
1.00217
1.00188
1.00147
1.00409
1.00387
1.00362
1.00337
1.00309
1.0028
1.0025
1.00218
1.00187
1.00138
1.00409
1.00387
1.00362
1.00337
1.00309
1.0028
1.00249
1.00219
1.00184
1.00141
1.00409
1.00386
1.00362
1.00337
1.00309
1.00281
1.00249
1.00219
1.00186
1.00165
1.00408
1.00386
1.00362
1.00336
1.0031
1.00281
1.00251
1.00222
1.00196
1.00639
1.00408
1.00387
1.00365
1.00342
1.00319
1.00288
1.00259
1.00256
1.00727
1.03362
1.00427
1.00412
1.00399
1.00383
1.00355
1.0032
1.00367
1.01041
1.03677
1.07686
1.00505
1.00505
1.005
1.00478
1.00442
1.00553
1.01503
1.04599
1.08397
1.10265
1.0067
1.00681
1.0067
1.00652
1.00842
1.02173
1.05681
1.09356
1.11015
1.10959
1.00915
1.00937
1.00954
1.0126
1.02965
1.07004
1.10354
1.11691
1.11599
1.10946
1.01327
1.014
1.01845
1.03972
1.08057
1.1135
1.12401
1.12087
1.11506
1.10799
1.02148
1.02653
1.04973
1.09254
1.11905
1.12878
1.12638
1.12071
1.11392
1.10622
1.03782
1.05813
1.0993
1.12545
1.13267
1.13025
1.12511
1.11919
1.11251
1.10458
1.0652
1.10139
1.12718
1.13574
1.13459
1.12939
1.12373
1.11785
1.11125
1.10272
1.09761
1.12745
1.13681
1.13752
1.13378
1.12921
1.12353
1.11721
1.11014
1.10095
1.12285
1.13867
1.14054
1.1387
1.13516
1.13093
1.12527
1.11847
1.10985
1.09936
1.14081
1.1464
1.14525
1.14273
1.13904
1.13416
1.12796
1.12028
1.11014
1.09772
)
;

boundaryField
{
    inlet
    {
        type            fixedValue;
        value           uniform 1;
    }
    outlet
    {
        type            inletOutlet;
        inletValue      uniform 1;
        value           nonuniform List<scalar> 
100
(
0.987044
0.986257
0.986126
0.987036
0.988716
0.990461
0.992314
0.994181
0.99608
0.998052
0.999936
1.00201
1.00416
1.00487
1.0045
1.00354
1.0024
1.00137
1.00074
1.00053
0.989983
0.989926
0.989906
0.989813
0.989681
0.989507
0.98931
0.98913
0.988971
0.98882
0.988679
0.98854
0.988388
0.988218
0.988021
0.987781
0.987624
0.987579
0.987593
0.987495
0.989918
0.989904
0.989851
0.989847
0.989902
0.990042
0.990225
0.990465
0.990643
0.99075
0.99075
0.990643
0.990465
0.990225
0.990042
0.989902
0.989847
0.989851
0.989904
0.989918
0.987495
0.987593
0.987579
0.987624
0.987781
0.988021
0.988218
0.988388
0.98854
0.988679
0.98882
0.988971
0.98913
0.98931
0.989507
0.989681
0.989813
0.989906
0.989926
0.989983
1.00053
1.00074
1.00137
1.0024
1.00354
1.0045
1.00487
1.00416
1.00201
0.999936
0.998052
0.99608
0.994181
0.992314
0.990461
0.988716
0.987036
0.986126
0.986257
0.987044
)
;
    }
    triangle
    {
        type            zeroGradient;
    }
    top
    {
        type            symmetryPlane;
    }
    bottom
    {
        type            symmetryPlane;
    }
    defaultFaces
    {
        type            empty;
    }
}


// ************************************************************************* //
