/*--------------------------------*- C++ -*----------------------------------*\
  =========                 |
  \\      /  F ield         | OpenFOAM: The Open Source CFD Toolbox
   \\    /   O peration     | Website:  https://openfoam.org
    \\  /    A nd           | Version:  8
     \\/     M anipulation  |
\*---------------------------------------------------------------------------*/
FoamFile
{
    version     2.0;
    format      ascii;
    class       volVectorField;
    location    "0.4";
    object      U;
}
// * * * * * * * * * * * * * * * * * * * * * * * * * * * * * * * * * * * * * //

dimensions      [0 1 -1 0 0 0 0];

internalField   nonuniform List<vector> 
2600
(
(0.660951 0.0597499 0)
(1.28515 0.169569 0)
(1.50241 0.246772 0)
(1.42216 0.250788 0)
(1.09212 0.172528 0)
(0.991451 0.104352 0)
(0.994832 0.0690005 0)
(1.0233 0.0409103 0)
(1.03653 0.0243406 0)
(1.0536 0.0137394 0)
(0.22443 -0.102056 0)
(0.913382 0.127371 0)
(1.35883 0.23383 0)
(1.39865 0.243375 0)
(1.08573 0.177748 0)
(0.977055 0.107111 0)
(0.982275 0.0689628 0)
(1.01812 0.0388616 0)
(1.03563 0.0220191 0)
(1.05414 0.0123878 0)
(-0.00631463 -0.103947 0)
(0.490387 0.0345907 0)
(1.07263 0.180428 0)
(1.31825 0.234448 0)
(1.06897 0.18186 0)
(0.960595 0.108006 0)
(0.96889 0.0674122 0)
(1.01398 0.0365744 0)
(1.03422 0.0197324 0)
(1.05409 0.0108578 0)
(-0.123231 -0.136397 0)
(0.145199 -0.0105883 0)
(0.684272 0.106922 0)
(1.13485 0.210708 0)
(1.02069 0.185437 0)
(0.936239 0.105025 0)
(0.954486 0.0651335 0)
(1.01258 0.0326313 0)
(1.03519 0.017209 0)
(1.05448 0.0093702 0)
(-0.19409 -0.128107 0)
(-0.0869351 -0.0567879 0)
(0.276273 0.052975 0)
(0.836044 0.152776 0)
(0.914156 0.173567 0)
(0.893801 0.104358 0)
(0.937387 0.061454 0)
(1.00985 0.0287654 0)
(1.03547 0.0144013 0)
(1.05466 0.00783664 0)
(-0.237749 -0.119441 0)
(-0.238374 -0.0620795 0)
(-0.0730848 0.0135777 0)
(0.462535 0.136941 0)
(0.736967 0.170819 0)
(0.823641 0.0989141 0)
(0.915861 0.0550387 0)
(1.00967 0.0238924 0)
(1.03656 0.0116352 0)
(1.05451 0.00630442 0)
(-0.26376 -0.10103 0)
(-0.336397 -0.0583523 0)
(-0.323667 0.00577449 0)
(0.125886 0.0689105 0)
(0.528975 0.133664 0)
(0.735622 0.092216 0)
(0.892325 0.0489506 0)
(1.01019 0.0189876 0)
(1.03758 0.00883854 0)
(1.054 0.00488503 0)
(-0.275429 -0.0754959 0)
(-0.40523 -0.0491988 0)
(-0.465266 -0.00354562 0)
(-0.110824 0.0483636 0)
(0.345086 0.105973 0)
(0.652723 0.0712401 0)
(0.873523 0.0355065 0)
(1.01053 0.013761 0)
(1.03889 0.00631137 0)
(1.05441 0.00345381 0)
(-0.274758 -0.0465113 0)
(-0.444858 -0.035641 0)
(-0.52529 -0.00710278 0)
(-0.228326 0.0125191 0)
(0.227377 0.0649715 0)
(0.590332 0.0477968 0)
(0.856988 0.0234697 0)
(1.00841 0.00812071 0)
(1.03876 0.00355455 0)
(1.05403 0.00206832 0)
(-0.28276 -0.0156899 0)
(-0.460495 -0.0104501 0)
(-0.539755 -0.000343115 0)
(-0.266306 0.00554162 0)
(0.174524 0.0239027 0)
(0.55958 0.0171794 0)
(0.849515 0.00802329 0)
(1.0105 0.00313584 0)
(1.04016 0.00131857 0)
(1.05434 0.00071502 0)
(-0.28276 0.0156899 0)
(-0.460495 0.0104501 0)
(-0.539755 0.000343115 0)
(-0.266306 -0.00554162 0)
(0.174524 -0.0239027 0)
(0.55958 -0.0171794 0)
(0.849515 -0.00802329 0)
(1.0105 -0.00313584 0)
(1.04016 -0.00131857 0)
(1.05434 -0.00071502 0)
(-0.274758 0.0465113 0)
(-0.444858 0.035641 0)
(-0.52529 0.00710278 0)
(-0.228326 -0.0125191 0)
(0.227377 -0.0649715 0)
(0.590332 -0.0477968 0)
(0.856988 -0.0234697 0)
(1.00841 -0.00812071 0)
(1.03876 -0.00355455 0)
(1.05403 -0.00206832 0)
(-0.275429 0.0754959 0)
(-0.40523 0.0491988 0)
(-0.465266 0.00354562 0)
(-0.110824 -0.0483636 0)
(0.345086 -0.105973 0)
(0.652723 -0.0712401 0)
(0.873523 -0.0355065 0)
(1.01053 -0.013761 0)
(1.03889 -0.00631137 0)
(1.05441 -0.00345381 0)
(-0.26376 0.10103 0)
(-0.336397 0.0583523 0)
(-0.323667 -0.00577449 0)
(0.125886 -0.0689105 0)
(0.528975 -0.133664 0)
(0.735622 -0.092216 0)
(0.892325 -0.0489506 0)
(1.01019 -0.0189876 0)
(1.03758 -0.00883854 0)
(1.054 -0.00488503 0)
(-0.237749 0.119441 0)
(-0.238374 0.0620795 0)
(-0.0730848 -0.0135777 0)
(0.462535 -0.136941 0)
(0.736967 -0.170819 0)
(0.823641 -0.0989141 0)
(0.915861 -0.0550387 0)
(1.00967 -0.0238924 0)
(1.03656 -0.0116352 0)
(1.05451 -0.00630442 0)
(-0.19409 0.128107 0)
(-0.0869351 0.0567879 0)
(0.276273 -0.052975 0)
(0.836044 -0.152776 0)
(0.914156 -0.173567 0)
(0.893801 -0.104358 0)
(0.937387 -0.061454 0)
(1.00985 -0.0287654 0)
(1.03547 -0.0144013 0)
(1.05466 -0.00783664 0)
(-0.123231 0.136397 0)
(0.145199 0.0105883 0)
(0.684272 -0.106922 0)
(1.13485 -0.210708 0)
(1.02069 -0.185437 0)
(0.936239 -0.105025 0)
(0.954486 -0.0651335 0)
(1.01258 -0.0326313 0)
(1.03519 -0.017209 0)
(1.05448 -0.0093702 0)
(-0.00631463 0.103947 0)
(0.490387 -0.0345907 0)
(1.07263 -0.180428 0)
(1.31825 -0.234448 0)
(1.06897 -0.18186 0)
(0.960595 -0.108006 0)
(0.96889 -0.0674122 0)
(1.01398 -0.0365744 0)
(1.03422 -0.0197324 0)
(1.05409 -0.0108578 0)
(0.22443 0.102056 0)
(0.913382 -0.127371 0)
(1.35883 -0.23383 0)
(1.39865 -0.243375 0)
(1.08573 -0.177748 0)
(0.977055 -0.107111 0)
(0.982275 -0.0689628 0)
(1.01812 -0.0388616 0)
(1.03563 -0.0220191 0)
(1.05414 -0.0123878 0)
(0.660951 -0.0597499 0)
(1.28515 -0.169569 0)
(1.50241 -0.246772 0)
(1.42216 -0.250788 0)
(1.09212 -0.172528 0)
(0.991451 -0.104352 0)
(0.994832 -0.0690005 0)
(1.0233 -0.0409103 0)
(1.03653 -0.0243406 0)
(1.0536 -0.0137394 0)
(1.1684 -0.0138254 0)
(1.5013 -0.191729 0)
(1.55153 -0.27291 0)
(1.42571 -0.262578 0)
(1.09754 -0.177247 0)
(1.00548 -0.109632 0)
(1.00686 -0.0710543 0)
(1.02881 -0.0433771 0)
(1.03918 -0.0264553 0)
(1.05425 -0.0152342 0)
(1.28109 0.117243 0)
(1.574 -0.211637 0)
(1.56798 -0.294845 0)
(1.43285 -0.263519 0)
(1.10641 -0.174619 0)
(1.02017 -0.111278 0)
(1.01834 -0.0735909 0)
(1.03458 -0.0457143 0)
(1.04191 -0.028846 0)
(1.05419 -0.016755 0)
(1.28512 0.139036 0)
(1.57581 -0.186844 0)
(1.56482 -0.298707 0)
(1.43956 -0.27359 0)
(1.11591 -0.175489 0)
(1.03259 -0.1135 0)
(1.02844 -0.0758191 0)
(1.03981 -0.0481279 0)
(1.04439 -0.0308844 0)
(1.05522 -0.0180684 0)
(1.243 0.182651 0)
(1.55217 -0.171692 0)
(1.55386 -0.300685 0)
(1.44554 -0.285098 0)
(1.12767 -0.176973 0)
(1.04305 -0.11359 0)
(1.0374 -0.0768277 0)
(1.04445 -0.0503361 0)
(1.04629 -0.0327527 0)
(1.05622 -0.0192551 0)
(1.22146 0.187149 0)
(1.51211 -0.125776 0)
(1.55051 -0.281359 0)
(1.45246 -0.302275 0)
(1.14321 -0.184285 0)
(1.05222 -0.114604 0)
(1.04484 -0.07723 0)
(1.04848 -0.0524324 0)
(1.04767 -0.0344729 0)
(1.05715 -0.0203938 0)
(1.20136 0.199487 0)
(1.47511 -0.0893421 0)
(1.54788 -0.272035 0)
(1.46083 -0.312395 0)
(1.16116 -0.194208 0)
(1.06036 -0.117987 0)
(1.05097 -0.0771598 0)
(1.05203 -0.0544444 0)
(1.04887 -0.0360993 0)
(1.05789 -0.0215323 0)
(1.1869 0.202504 0)
(1.44307 -0.0552409 0)
(1.53025 -0.239323 0)
(1.4652 -0.311854 0)
(1.18157 -0.202319 0)
(1.06813 -0.122188 0)
(1.05633 -0.0776996 0)
(1.05519 -0.0566327 0)
(1.05005 -0.0377669 0)
(1.05865 -0.0226654 0)
(1.17368 0.205569 0)
(1.41359 -0.0222046 0)
(1.51189 -0.213773 0)
(1.46031 -0.312565 0)
(1.19774 -0.207989 0)
(1.07646 -0.125122 0)
(1.06155 -0.0784084 0)
(1.05792 -0.0592373 0)
(1.05111 -0.0396108 0)
(1.05939 -0.0238578 0)
(1.16072 0.207753 0)
(1.38889 0.00290755 0)
(1.49043 -0.180237 0)
(1.44344 -0.301936 0)
(1.21349 -0.211514 0)
(1.08551 -0.126212 0)
(1.06689 -0.0792058 0)
(1.06031 -0.0622282 0)
(1.0521 -0.0416503 0)
(1.06014 -0.0251124 0)
(1.14862 0.207387 0)
(1.35986 0.0303743 0)
(1.48265 -0.160686 0)
(1.4171 -0.292278 0)
(1.23097 -0.217542 0)
(1.09598 -0.126902 0)
(1.07234 -0.0800851 0)
(1.06255 -0.0652031 0)
(1.05312 -0.0437575 0)
(1.06095 -0.0263795 0)
(1.13585 0.207 0)
(1.33504 0.0488505 0)
(1.47079 -0.135385 0)
(1.39891 -0.27751 0)
(1.24338 -0.224395 0)
(1.10685 -0.128575 0)
(1.07773 -0.0805896 0)
(1.06492 -0.0674798 0)
(1.05425 -0.045677 0)
(1.06182 -0.027559 0)
(1.12261 0.205836 0)
(1.30863 0.065606 0)
(1.45062 -0.108997 0)
(1.39119 -0.262085 0)
(1.25187 -0.229123 0)
(1.11612 -0.132859 0)
(1.08282 -0.0807708 0)
(1.06724 -0.0688599 0)
(1.05542 -0.0472076 0)
(1.06271 -0.0286007 0)
(1.10733 0.205644 0)
(1.28489 0.0781033 0)
(1.42871 -0.0886794 0)
(1.3862 -0.245513 0)
(1.25894 -0.227367 0)
(1.12586 -0.135262 0)
(1.08775 -0.0802925 0)
(1.06944 -0.069606 0)
(1.0567 -0.0483622 0)
(1.06362 -0.0294835 0)
(1.094 0.20491 0)
(1.26275 0.0889611 0)
(1.40397 -0.0691208 0)
(1.38022 -0.225638 0)
(1.26772 -0.223202 0)
(1.13471 -0.136573 0)
(1.09284 -0.0801774 0)
(1.07153 -0.0698359 0)
(1.05781 -0.0492199 0)
(1.06449 -0.0303018 0)
(1.08023 0.204107 0)
(1.24299 0.0979064 0)
(1.38109 -0.0550314 0)
(1.37341 -0.205878 0)
(1.27074 -0.210625 0)
(1.14174 -0.13387 0)
(1.09795 -0.0810305 0)
(1.07353 -0.0701865 0)
(1.05908 -0.0501386 0)
(1.06539 -0.0310996 0)
(1.06774 0.203395 0)
(1.22546 0.105233 0)
(1.35688 -0.0394321 0)
(1.36585 -0.187807 0)
(1.27522 -0.201446 0)
(1.15009 -0.132173 0)
(1.10272 -0.0823636 0)
(1.07524 -0.0712446 0)
(1.06053 -0.0514484 0)
(1.06623 -0.032027 0)
(1.05707 0.202577 0)
(1.20964 0.111188 0)
(1.33573 -0.0263326 0)
(1.35717 -0.170978 0)
(1.27549 -0.186931 0)
(1.15793 -0.126939 0)
(1.10653 -0.0837227 0)
(1.07651 -0.0728149 0)
(1.0618 -0.0530801 0)
(1.06722 -0.0328903 0)
(1.04833 0.201422 0)
(1.19475 0.116382 0)
(1.31543 -0.0132963 0)
(1.34749 -0.15641 0)
(1.27611 -0.174959 0)
(1.1654 -0.120933 0)
(1.11006 -0.084453 0)
(1.07798 -0.0746852 0)
(1.06303 -0.055074 0)
(1.06827 -0.0336354 0)
(1.04162 0.199621 0)
(1.1817 0.120574 0)
(1.29653 -0.00141024 0)
(1.33625 -0.141231 0)
(1.27596 -0.163173 0)
(1.17154 -0.114605 0)
(1.11341 -0.0834627 0)
(1.07973 -0.0751912 0)
(1.06456 -0.0566876 0)
(1.06958 -0.0341671 0)
(1.03713 0.197397 0)
(1.16799 0.125524 0)
(1.2793 0.0093828 0)
(1.3282 -0.129621 0)
(1.27713 -0.154719 0)
(1.17515 -0.11188 0)
(1.1162 -0.079502 0)
(1.08175 -0.0738228 0)
(1.06596 -0.0572642 0)
(1.07072 -0.0346192 0)
(0.37103 0.131049 0)
(0.434922 0.164475 0)
(0.469101 0.213842 0)
(0.505669 0.249186 0)
(0.537016 0.277425 0)
(0.56864 0.299752 0)
(0.604525 0.320566 0)
(0.651468 0.342815 0)
(0.718448 0.373355 0)
(0.847585 0.402787 0)
(0.392407 0.156708 0)
(0.440025 0.180341 0)
(0.463962 0.219278 0)
(0.498783 0.250518 0)
(0.530452 0.278524 0)
(0.564351 0.301033 0)
(0.602597 0.322195 0)
(0.65158 0.344852 0)
(0.722028 0.375092 0)
(0.846987 0.395435 0)
(0.437083 0.155392 0)
(0.471756 0.170964 0)
(0.484327 0.201266 0)
(0.512153 0.230404 0)
(0.538802 0.260169 0)
(0.572311 0.28448 0)
(0.612193 0.307156 0)
(0.66383 0.329764 0)
(0.738425 0.357109 0)
(0.870062 0.367061 0)
(0.482015 0.168533 0)
(0.509322 0.186715 0)
(0.516 0.212577 0)
(0.540014 0.23385 0)
(0.56249 0.25817 0)
(0.594472 0.279302 0)
(0.633971 0.300968 0)
(0.686616 0.3223 0)
(0.763507 0.346588 0)
(0.889696 0.342059 0)
(0.522307 0.17401 0)
(0.545999 0.191734 0)
(0.552475 0.216474 0)
(0.575029 0.236218 0)
(0.594701 0.259376 0)
(0.625261 0.277937 0)
(0.663474 0.296957 0)
(0.715372 0.314768 0)
(0.79021 0.333923 0)
(0.914018 0.329257 0)
(0.556059 0.182347 0)
(0.576879 0.198578 0)
(0.583867 0.221745 0)
(0.606072 0.240383 0)
(0.625674 0.26252 0)
(0.656472 0.278412 0)
(0.694016 0.294927 0)
(0.744965 0.310391 0)
(0.816284 0.323626 0)
(0.931799 0.315859 0)
(0.585723 0.188018 0)
(0.604463 0.201811 0)
(0.611628 0.222045 0)
(0.632873 0.23867 0)
(0.652457 0.259537 0)
(0.683396 0.274039 0)
(0.720368 0.289269 0)
(0.770227 0.303046 0)
(0.837706 0.312209 0)
(0.943545 0.303667 0)
(0.611687 0.193973 0)
(0.629353 0.205549 0)
(0.636927 0.223249 0)
(0.657109 0.238096 0)
(0.676492 0.257165 0)
(0.706837 0.269548 0)
(0.742686 0.282721 0)
(0.79102 0.294983 0)
(0.854591 0.300897 0)
(0.951588 0.292554 0)
(0.634976 0.197903 0)
(0.652091 0.207385 0)
(0.660087 0.222983 0)
(0.679228 0.236211 0)
(0.698283 0.253267 0)
(0.727491 0.26362 0)
(0.761819 0.274916 0)
(0.808206 0.285728 0)
(0.868238 0.289453 0)
(0.95748 0.281962 0)
(0.655827 0.20098 0)
(0.672702 0.209059 0)
(0.681246 0.223006 0)
(0.699522 0.234525 0)
(0.718298 0.249341 0)
(0.746204 0.2578 0)
(0.779065 0.267532 0)
(0.823494 0.27678 0)
(0.880298 0.278767 0)
(0.96263 0.272181 0)
(0.674655 0.203272 0)
(0.691275 0.209777 0)
(0.700389 0.221759 0)
(0.717874 0.23156 0)
(0.736404 0.244317 0)
(0.763034 0.251378 0)
(0.794442 0.259789 0)
(0.837038 0.267733 0)
(0.890944 0.268351 0)
(0.966946 0.262787 0)
(0.691574 0.203822 0)
(0.708015 0.208954 0)
(0.717803 0.21936 0)
(0.734753 0.227553 0)
(0.752995 0.238413 0)
(0.778413 0.244514 0)
(0.808597 0.252258 0)
(0.849358 0.259246 0)
(0.900593 0.258763 0)
(0.97028 0.254233 0)
(0.70741 0.202256 0)
(0.723723 0.20652 0)
(0.733953 0.215764 0)
(0.750552 0.222718 0)
(0.768594 0.232315 0)
(0.792924 0.237876 0)
(0.821786 0.245053 0)
(0.860168 0.250917 0)
(0.908538 0.250124 0)
(0.971763 0.246523 0)
(0.72307 0.199556 0)
(0.738812 0.203236 0)
(0.749297 0.211687 0)
(0.765623 0.217624 0)
(0.78322 0.226062 0)
(0.806324 0.23106 0)
(0.83371 0.237763 0)
(0.869584 0.242932 0)
(0.914585 0.242778 0)
(0.970523 0.240065 0)
(0.738506 0.195387 0)
(0.753327 0.19864 0)
(0.763831 0.206341 0)
(0.779808 0.211607 0)
(0.796893 0.219619 0)
(0.818974 0.224544 0)
(0.84453 0.23109 0)
(0.877327 0.235682 0)
(0.917385 0.236779 0)
(0.966482 0.235117 0)
(0.754025 0.190267 0)
(0.767855 0.193538 0)
(0.778439 0.201226 0)
(0.793808 0.206622 0)
(0.809901 0.213947 0)
(0.83039 0.21851 0)
(0.853373 0.22544 0)
(0.882241 0.229417 0)
(0.91698 0.232221 0)
(0.960503 0.231808 0)
(0.769732 0.185017 0)
(0.782007 0.188261 0)
(0.792233 0.19517 0)
(0.805703 0.201047 0)
(0.820436 0.207902 0)
(0.839104 0.212902 0)
(0.859076 0.220369 0)
(0.883965 0.22456 0)
(0.914481 0.228989 0)
(0.95404 0.229359 0)
(0.784794 0.176876 0)
(0.79437 0.182041 0)
(0.805561 0.189308 0)
(0.816279 0.196678 0)
(0.829362 0.203462 0)
(0.845109 0.208979 0)
(0.861692 0.216315 0)
(0.883403 0.221847 0)
(0.911161 0.226735 0)
(0.948269 0.227416 0)
(0.803303 0.170285 0)
(0.805664 0.178764 0)
(0.817938 0.185236 0)
(0.824974 0.193167 0)
(0.835052 0.200341 0)
(0.847439 0.20669 0)
(0.862388 0.213778 0)
(0.882641 0.219439 0)
(0.908961 0.22363 0)
(0.944548 0.224224 0)
(0.820412 0.164837 0)
(0.815296 0.174381 0)
(0.825244 0.181141 0)
(0.829885 0.189901 0)
(0.837528 0.198479 0)
(0.848227 0.206071 0)
(0.862704 0.211984 0)
(0.882667 0.216711 0)
(0.909233 0.220052 0)
(0.944086 0.220348 0)
(1.19664 -7.61073e-11 0)
(1.16203 -3.79054e-08 0)
(1.15438 2.36823e-07 0)
(1.14923 -1.00804e-06 0)
(1.14494 3.5211e-06 0)
(1.13997 -9.51201e-06 0)
(1.13446 1.30402e-05 0)
(1.12841 -0.000137363 0)
(1.05845 0.00357183 0)
(0.497614 0.013357 0)
(1.19664 -2.96952e-10 0)
(1.16203 -1.09035e-07 0)
(1.15438 6.7991e-07 0)
(1.14923 -2.86378e-06 0)
(1.14494 9.73782e-06 0)
(1.13995 -2.35689e-05 0)
(1.13454 8.49896e-06 0)
(1.12804 -0.000155837 0)
(1.0628 0.0103544 0)
(0.521766 0.0391407 0)
(1.19664 -4.61094e-10 0)
(1.16203 -1.80582e-07 0)
(1.15438 1.13692e-06 0)
(1.14923 -4.85505e-06 0)
(1.14495 1.69215e-05 0)
(1.13993 -4.4245e-05 0)
(1.1347 5.0276e-05 0)
(1.12719 -0.000198687 0)
(1.06909 0.0146663 0)
(0.557054 0.0583509 0)
(1.19664 -6.40249e-10 0)
(1.16203 -2.48177e-07 0)
(1.15438 1.57204e-06 0)
(1.14923 -6.77806e-06 0)
(1.14495 2.40775e-05 0)
(1.1399 -6.66833e-05 0)
(1.13486 0.000113402 0)
(1.12621 -0.000361909 0)
(1.07538 0.0177178 0)
(0.591623 0.0777608 0)
(1.19663 -7.96611e-10 0)
(1.16203 -3.11154e-07 0)
(1.15438 1.99069e-06 0)
(1.14923 -8.73232e-06 0)
(1.14495 3.21685e-05 0)
(1.13989 -9.77064e-05 0)
(1.13494 0.000204376 0)
(1.12556 -0.000325225 0)
(1.0818 0.0192346 0)
(0.625457 0.0916066 0)
(1.19663 -9.33545e-10 0)
(1.16203 -3.67012e-07 0)
(1.15438 2.36446e-06 0)
(1.14923 -1.05026e-05 0)
(1.14495 3.97397e-05 0)
(1.13989 -0.000129457 0)
(1.13493 0.000333774 0)
(1.12544 -0.000670385 0)
(1.08814 0.0195694 0)
(0.656134 0.104949 0)
(1.19663 -1.02743e-09 0)
(1.16203 -4.15726e-07 0)
(1.15438 2.70192e-06 0)
(1.14923 -1.21753e-05 0)
(1.14495 4.72436e-05 0)
(1.13991 -0.00016185 0)
(1.13483 0.000457718 0)
(1.12563 -0.000970519 0)
(1.0942 0.0190632 0)
(0.68539 0.115091 0)
(1.19663 -1.0757e-09 0)
(1.16203 -4.55185e-07 0)
(1.15438 2.97515e-06 0)
(1.14923 -1.35469e-05 0)
(1.14495 5.35591e-05 0)
(1.13992 -0.000190592 0)
(1.13471 0.000575046 0)
(1.12605 -0.0012483 0)
(1.09963 0.0177362 0)
(0.713024 0.12415 0)
(1.19663 -1.06667e-09 0)
(1.16203 -4.85759e-07 0)
(1.15438 3.19481e-06 0)
(1.14923 -1.46924e-05 0)
(1.14494 5.89605e-05 0)
(1.13994 -0.000215923 0)
(1.13457 0.000681313 0)
(1.12666 -0.00157556 0)
(1.10415 0.0160308 0)
(0.739692 0.131206 0)
(1.19663 -9.98975e-10 0)
(1.16203 -5.0596e-07 0)
(1.15438 3.34256e-06 0)
(1.14923 -1.55121e-05 0)
(1.14494 6.30121e-05 0)
(1.13995 -0.000236494 0)
(1.13443 0.000785578 0)
(1.12735 -0.00207863 0)
(1.10765 0.0142474 0)
(0.76548 0.136929 0)
(1.19663 -8.63136e-10 0)
(1.16203 -5.16254e-07 0)
(1.15438 3.42872e-06 0)
(1.14923 -1.60396e-05 0)
(1.14494 6.57659e-05 0)
(1.13997 -0.000252086 0)
(1.13432 0.00087558 0)
(1.12808 -0.00278101 0)
(1.1103 0.0124421 0)
(0.790727 0.141154 0)
(1.19663 -6.70443e-10 0)
(1.16203 -5.12105e-07 0)
(1.15438 3.42513e-06 0)
(1.14923 -1.61435e-05 0)
(1.14494 6.6584e-05 0)
(1.13998 -0.000258103 0)
(1.13423 0.000915643 0)
(1.1288 -0.00328604 0)
(1.11238 0.0105157 0)
(0.815613 0.1445 0)
(1.19663 -4.42986e-10 0)
(1.16203 -4.95107e-07 0)
(1.15438 3.32724e-06 0)
(1.14923 -1.5784e-05 0)
(1.14494 6.53221e-05 0)
(1.13998 -0.000254222 0)
(1.13418 0.000901614 0)
(1.12932 -0.00331271 0)
(1.11413 0.00844382 0)
(0.840148 0.146798 0)
(1.19663 -1.96497e-10 0)
(1.16203 -4.67716e-07 0)
(1.15438 3.1526e-06 0)
(1.14923 -1.50347e-05 0)
(1.14494 6.22899e-05 0)
(1.13999 -0.000242303 0)
(1.13418 0.00084795 0)
(1.12955 -0.00303981 0)
(1.1157 0.00624188 0)
(0.864375 0.147978 0)
(1.19663 5.51272e-11 0)
(1.16203 -4.32112e-07 0)
(1.15438 2.92028e-06 0)
(1.14923 -1.39904e-05 0)
(1.14494 5.7896e-05 0)
(1.13999 -0.000222849 0)
(1.13419 0.000746522 0)
(1.12956 -0.00252252 0)
(1.11687 0.00409536 0)
(0.888513 0.148251 0)
(1.19663 3.32983e-10 0)
(1.16203 -3.91051e-07 0)
(1.15438 2.6463e-06 0)
(1.14923 -1.26981e-05 0)
(1.14494 5.21753e-05 0)
(1.14 -0.000194998 0)
(1.1342 0.000634204 0)
(1.12948 -0.00190853 0)
(1.11753 0.00239268 0)
(0.912656 0.146814 0)
(1.19663 5.97518e-10 0)
(1.16203 -3.44627e-07 0)
(1.15438 2.32729e-06 0)
(1.14923 -1.11051e-05 0)
(1.14494 4.48418e-05 0)
(1.14 -0.000165697 0)
(1.13422 0.000509133 0)
(1.12936 -0.00130925 0)
(1.11785 0.00126631 0)
(0.936887 0.144 0)
(1.19663 7.41492e-10 0)
(1.16203 -2.88681e-07 0)
(1.15438 1.94475e-06 0)
(1.14923 -9.29077e-06 0)
(1.14494 3.72307e-05 0)
(1.14 -0.000132675 0)
(1.13424 0.000378823 0)
(1.12924 -0.000795902 0)
(1.11802 0.000462126 0)
(0.960724 0.139991 0)
(1.19663 7.66185e-10 0)
(1.16203 -2.33616e-07 0)
(1.15438 1.56389e-06 0)
(1.14923 -7.40554e-06 0)
(1.14494 2.89642e-05 0)
(1.14 -9.75927e-05 0)
(1.13427 0.000248508 0)
(1.12913 -0.000379018 0)
(1.11807 -0.00011691 0)
(0.983486 0.134257 0)
(1.19663 7.80257e-10 0)
(1.16203 -1.76004e-07 0)
(1.15438 1.16645e-06 0)
(1.14923 -5.43622e-06 0)
(1.14494 2.03852e-05 0)
(1.13999 -6.24365e-05 0)
(1.13429 0.0001283 0)
(1.12906 -6.38054e-05 0)
(1.11812 -0.000467109 0)
(1.00546 0.127458 0)
(1.19663 -7.80232e-10 0)
(1.16203 1.76004e-07 0)
(1.15438 -1.16645e-06 0)
(1.14923 5.43622e-06 0)
(1.14494 -2.03852e-05 0)
(1.13999 6.24365e-05 0)
(1.13429 -0.0001283 0)
(1.12906 6.38054e-05 0)
(1.11812 0.000467109 0)
(1.00546 -0.127458 0)
(1.19663 -7.66213e-10 0)
(1.16203 2.33616e-07 0)
(1.15438 -1.56389e-06 0)
(1.14923 7.40554e-06 0)
(1.14494 -2.89642e-05 0)
(1.14 9.75927e-05 0)
(1.13427 -0.000248508 0)
(1.12913 0.000379018 0)
(1.11807 0.00011691 0)
(0.983486 -0.134257 0)
(1.19663 -7.41543e-10 0)
(1.16203 2.88681e-07 0)
(1.15438 -1.94475e-06 0)
(1.14923 9.29077e-06 0)
(1.14494 -3.72307e-05 0)
(1.14 0.000132675 0)
(1.13424 -0.000378823 0)
(1.12924 0.000795902 0)
(1.11802 -0.000462126 0)
(0.960724 -0.139991 0)
(1.19663 -5.97602e-10 0)
(1.16203 3.44627e-07 0)
(1.15438 -2.32729e-06 0)
(1.14923 1.11051e-05 0)
(1.14494 -4.48418e-05 0)
(1.14 0.000165697 0)
(1.13422 -0.000509133 0)
(1.12936 0.00130925 0)
(1.11785 -0.00126631 0)
(0.936887 -0.144 0)
(1.19663 -3.33069e-10 0)
(1.16203 3.91051e-07 0)
(1.15438 -2.6463e-06 0)
(1.14923 1.26981e-05 0)
(1.14494 -5.21753e-05 0)
(1.14 0.000194998 0)
(1.1342 -0.000634204 0)
(1.12948 0.00190853 0)
(1.11753 -0.00239268 0)
(0.912656 -0.146814 0)
(1.19663 -5.5423e-11 0)
(1.16203 4.32112e-07 0)
(1.15438 -2.92028e-06 0)
(1.14923 1.39904e-05 0)
(1.14494 -5.7896e-05 0)
(1.13999 0.000222849 0)
(1.13419 -0.000746522 0)
(1.12956 0.00252252 0)
(1.11687 -0.00409536 0)
(0.888513 -0.148251 0)
(1.19663 1.9645e-10 0)
(1.16203 4.67716e-07 0)
(1.15438 -3.1526e-06 0)
(1.14923 1.50347e-05 0)
(1.14494 -6.22899e-05 0)
(1.13999 0.000242303 0)
(1.13418 -0.00084795 0)
(1.12955 0.00303981 0)
(1.1157 -0.00624188 0)
(0.864375 -0.147978 0)
(1.19663 4.42995e-10 0)
(1.16203 4.95108e-07 0)
(1.15438 -3.32724e-06 0)
(1.14923 1.5784e-05 0)
(1.14494 -6.53221e-05 0)
(1.13998 0.000254222 0)
(1.13418 -0.000901614 0)
(1.12932 0.00331271 0)
(1.11413 -0.00844382 0)
(0.840148 -0.146798 0)
(1.19663 6.70231e-10 0)
(1.16203 5.12105e-07 0)
(1.15438 -3.42514e-06 0)
(1.14923 1.61435e-05 0)
(1.14494 -6.6584e-05 0)
(1.13998 0.000258103 0)
(1.13423 -0.000915643 0)
(1.1288 0.00328604 0)
(1.11238 -0.0105157 0)
(0.815613 -0.1445 0)
(1.19663 8.63304e-10 0)
(1.16203 5.16254e-07 0)
(1.15438 -3.42872e-06 0)
(1.14923 1.60396e-05 0)
(1.14494 -6.57659e-05 0)
(1.13997 0.000252086 0)
(1.13432 -0.00087558 0)
(1.12808 0.00278101 0)
(1.1103 -0.0124421 0)
(0.790727 -0.141154 0)
(1.19663 9.99057e-10 0)
(1.16203 5.0596e-07 0)
(1.15438 -3.34256e-06 0)
(1.14923 1.55121e-05 0)
(1.14494 -6.30121e-05 0)
(1.13995 0.000236494 0)
(1.13443 -0.000785578 0)
(1.12735 0.00207863 0)
(1.10765 -0.0142474 0)
(0.76548 -0.136929 0)
(1.19663 1.06685e-09 0)
(1.16203 4.85759e-07 0)
(1.15438 -3.19481e-06 0)
(1.14923 1.46924e-05 0)
(1.14494 -5.89605e-05 0)
(1.13994 0.000215923 0)
(1.13457 -0.000681313 0)
(1.12666 0.00157556 0)
(1.10415 -0.0160308 0)
(0.739692 -0.131206 0)
(1.19663 1.07584e-09 0)
(1.16203 4.55186e-07 0)
(1.15438 -2.97515e-06 0)
(1.14923 1.35469e-05 0)
(1.14495 -5.35591e-05 0)
(1.13992 0.000190592 0)
(1.13471 -0.000575046 0)
(1.12605 0.0012483 0)
(1.09963 -0.0177362 0)
(0.713024 -0.12415 0)
(1.19663 1.02742e-09 0)
(1.16203 4.15726e-07 0)
(1.15438 -2.70192e-06 0)
(1.14923 1.21753e-05 0)
(1.14495 -4.72437e-05 0)
(1.13991 0.00016185 0)
(1.13483 -0.000457718 0)
(1.12563 0.000970519 0)
(1.0942 -0.0190632 0)
(0.68539 -0.115091 0)
(1.19663 9.33713e-10 0)
(1.16203 3.67012e-07 0)
(1.15438 -2.36446e-06 0)
(1.14923 1.05026e-05 0)
(1.14495 -3.97397e-05 0)
(1.13989 0.000129457 0)
(1.13493 -0.000333774 0)
(1.12544 0.000670385 0)
(1.08814 -0.0195694 0)
(0.656134 -0.104949 0)
(1.19663 7.96726e-10 0)
(1.16203 3.11155e-07 0)
(1.15438 -1.99069e-06 0)
(1.14923 8.73232e-06 0)
(1.14495 -3.21685e-05 0)
(1.13989 9.77064e-05 0)
(1.13494 -0.000204376 0)
(1.12556 0.000325225 0)
(1.0818 -0.0192346 0)
(0.625457 -0.0916066 0)
(1.19664 6.40131e-10 0)
(1.16203 2.48177e-07 0)
(1.15438 -1.57204e-06 0)
(1.14923 6.77807e-06 0)
(1.14495 -2.40775e-05 0)
(1.1399 6.66833e-05 0)
(1.13486 -0.000113403 0)
(1.12621 0.000361909 0)
(1.07538 -0.0177178 0)
(0.591623 -0.0777608 0)
(1.19664 4.60977e-10 0)
(1.16203 1.80582e-07 0)
(1.15438 -1.13692e-06 0)
(1.14923 4.85505e-06 0)
(1.14495 -1.69215e-05 0)
(1.13993 4.4245e-05 0)
(1.1347 -5.0276e-05 0)
(1.12719 0.000198687 0)
(1.06909 -0.0146663 0)
(0.557054 -0.0583509 0)
(1.19664 2.9671e-10 0)
(1.16203 1.09036e-07 0)
(1.15438 -6.7991e-07 0)
(1.14923 2.86378e-06 0)
(1.14494 -9.73783e-06 0)
(1.13995 2.35689e-05 0)
(1.13454 -8.49898e-06 0)
(1.12804 0.000155837 0)
(1.0628 -0.0103544 0)
(0.521766 -0.0391407 0)
(1.19664 7.58421e-11 0)
(1.16203 3.79055e-08 0)
(1.15438 -2.36822e-07 0)
(1.14923 1.00805e-06 0)
(1.14494 -3.52111e-06 0)
(1.13997 9.51202e-06 0)
(1.13446 -1.30402e-05 0)
(1.12841 0.000137363 0)
(1.05845 -0.00357183 0)
(0.497614 -0.013357 0)
(0.820412 -0.164837 0)
(0.815296 -0.174381 0)
(0.825244 -0.181141 0)
(0.829885 -0.189901 0)
(0.837528 -0.198479 0)
(0.848227 -0.206071 0)
(0.862704 -0.211984 0)
(0.882667 -0.216711 0)
(0.909233 -0.220052 0)
(0.944086 -0.220348 0)
(0.803303 -0.170285 0)
(0.805664 -0.178764 0)
(0.817938 -0.185236 0)
(0.824974 -0.193167 0)
(0.835052 -0.200341 0)
(0.847439 -0.20669 0)
(0.862388 -0.213778 0)
(0.882641 -0.219439 0)
(0.908961 -0.22363 0)
(0.944548 -0.224224 0)
(0.784794 -0.176876 0)
(0.79437 -0.182041 0)
(0.805561 -0.189308 0)
(0.816279 -0.196678 0)
(0.829362 -0.203462 0)
(0.845109 -0.208979 0)
(0.861692 -0.216315 0)
(0.883403 -0.221847 0)
(0.911161 -0.226735 0)
(0.948269 -0.227416 0)
(0.769732 -0.185017 0)
(0.782007 -0.188261 0)
(0.792233 -0.19517 0)
(0.805703 -0.201047 0)
(0.820436 -0.207902 0)
(0.839104 -0.212902 0)
(0.859076 -0.220369 0)
(0.883965 -0.22456 0)
(0.914481 -0.228989 0)
(0.95404 -0.229359 0)
(0.754025 -0.190267 0)
(0.767855 -0.193538 0)
(0.778439 -0.201226 0)
(0.793808 -0.206622 0)
(0.809901 -0.213947 0)
(0.83039 -0.21851 0)
(0.853373 -0.22544 0)
(0.882241 -0.229417 0)
(0.91698 -0.232221 0)
(0.960503 -0.231808 0)
(0.738506 -0.195387 0)
(0.753327 -0.19864 0)
(0.763831 -0.206341 0)
(0.779808 -0.211607 0)
(0.796893 -0.219619 0)
(0.818974 -0.224544 0)
(0.84453 -0.23109 0)
(0.877327 -0.235682 0)
(0.917385 -0.236779 0)
(0.966482 -0.235117 0)
(0.72307 -0.199556 0)
(0.738812 -0.203236 0)
(0.749297 -0.211687 0)
(0.765623 -0.217624 0)
(0.78322 -0.226062 0)
(0.806324 -0.23106 0)
(0.83371 -0.237763 0)
(0.869584 -0.242932 0)
(0.914585 -0.242778 0)
(0.970523 -0.240065 0)
(0.70741 -0.202256 0)
(0.723723 -0.20652 0)
(0.733953 -0.215764 0)
(0.750552 -0.222718 0)
(0.768594 -0.232315 0)
(0.792924 -0.237876 0)
(0.821786 -0.245053 0)
(0.860168 -0.250917 0)
(0.908538 -0.250124 0)
(0.971763 -0.246523 0)
(0.691574 -0.203822 0)
(0.708015 -0.208954 0)
(0.717803 -0.21936 0)
(0.734753 -0.227553 0)
(0.752995 -0.238413 0)
(0.778413 -0.244514 0)
(0.808597 -0.252258 0)
(0.849358 -0.259246 0)
(0.900593 -0.258763 0)
(0.97028 -0.254233 0)
(0.674655 -0.203272 0)
(0.691275 -0.209777 0)
(0.700389 -0.221759 0)
(0.717874 -0.23156 0)
(0.736404 -0.244317 0)
(0.763034 -0.251378 0)
(0.794442 -0.259789 0)
(0.837038 -0.267733 0)
(0.890944 -0.268351 0)
(0.966946 -0.262787 0)
(0.655827 -0.20098 0)
(0.672702 -0.209059 0)
(0.681246 -0.223006 0)
(0.699522 -0.234525 0)
(0.718298 -0.249341 0)
(0.746204 -0.2578 0)
(0.779065 -0.267532 0)
(0.823494 -0.27678 0)
(0.880298 -0.278767 0)
(0.96263 -0.272181 0)
(0.634976 -0.197903 0)
(0.652091 -0.207385 0)
(0.660087 -0.222983 0)
(0.679228 -0.236211 0)
(0.698283 -0.253267 0)
(0.727491 -0.26362 0)
(0.761819 -0.274916 0)
(0.808206 -0.285728 0)
(0.868238 -0.289453 0)
(0.95748 -0.281962 0)
(0.611687 -0.193973 0)
(0.629353 -0.205549 0)
(0.636927 -0.223249 0)
(0.657109 -0.238096 0)
(0.676492 -0.257165 0)
(0.706837 -0.269548 0)
(0.742686 -0.282721 0)
(0.79102 -0.294983 0)
(0.854591 -0.300897 0)
(0.951588 -0.292554 0)
(0.585723 -0.188018 0)
(0.604463 -0.201811 0)
(0.611628 -0.222045 0)
(0.632873 -0.23867 0)
(0.652457 -0.259537 0)
(0.683396 -0.274039 0)
(0.720368 -0.289269 0)
(0.770227 -0.303046 0)
(0.837706 -0.312209 0)
(0.943545 -0.303667 0)
(0.556059 -0.182347 0)
(0.576879 -0.198578 0)
(0.583867 -0.221745 0)
(0.606072 -0.240383 0)
(0.625674 -0.26252 0)
(0.656472 -0.278412 0)
(0.694016 -0.294927 0)
(0.744965 -0.310391 0)
(0.816284 -0.323626 0)
(0.931799 -0.315859 0)
(0.522307 -0.17401 0)
(0.545999 -0.191734 0)
(0.552475 -0.216474 0)
(0.575029 -0.236218 0)
(0.594701 -0.259376 0)
(0.625261 -0.277937 0)
(0.663474 -0.296957 0)
(0.715372 -0.314768 0)
(0.79021 -0.333923 0)
(0.914018 -0.329257 0)
(0.482015 -0.168533 0)
(0.509322 -0.186715 0)
(0.516 -0.212577 0)
(0.540014 -0.23385 0)
(0.56249 -0.25817 0)
(0.594472 -0.279302 0)
(0.633971 -0.300968 0)
(0.686616 -0.3223 0)
(0.763507 -0.346588 0)
(0.889696 -0.342059 0)
(0.437083 -0.155392 0)
(0.471756 -0.170964 0)
(0.484327 -0.201266 0)
(0.512153 -0.230404 0)
(0.538802 -0.260169 0)
(0.572311 -0.28448 0)
(0.612193 -0.307156 0)
(0.66383 -0.329764 0)
(0.738425 -0.357109 0)
(0.870062 -0.367061 0)
(0.392407 -0.156708 0)
(0.440025 -0.180341 0)
(0.463962 -0.219278 0)
(0.498783 -0.250518 0)
(0.530452 -0.278524 0)
(0.564351 -0.301033 0)
(0.602597 -0.322195 0)
(0.65158 -0.344852 0)
(0.722028 -0.375092 0)
(0.846987 -0.395435 0)
(0.37103 -0.131049 0)
(0.434922 -0.164475 0)
(0.469101 -0.213842 0)
(0.505669 -0.249186 0)
(0.537016 -0.277425 0)
(0.56864 -0.299752 0)
(0.604525 -0.320566 0)
(0.651468 -0.342815 0)
(0.718448 -0.373355 0)
(0.847585 -0.402787 0)
(1.03713 -0.197397 0)
(1.16799 -0.125524 0)
(1.2793 -0.0093828 0)
(1.3282 0.129621 0)
(1.27713 0.154719 0)
(1.17515 0.11188 0)
(1.1162 0.079502 0)
(1.08175 0.0738228 0)
(1.06596 0.0572642 0)
(1.07072 0.0346192 0)
(1.04162 -0.199621 0)
(1.1817 -0.120574 0)
(1.29653 0.00141024 0)
(1.33625 0.141231 0)
(1.27596 0.163173 0)
(1.17154 0.114605 0)
(1.11341 0.0834627 0)
(1.07973 0.0751912 0)
(1.06456 0.0566876 0)
(1.06958 0.0341671 0)
(1.04833 -0.201422 0)
(1.19475 -0.116382 0)
(1.31543 0.0132963 0)
(1.34749 0.15641 0)
(1.27611 0.174959 0)
(1.1654 0.120933 0)
(1.11006 0.084453 0)
(1.07798 0.0746852 0)
(1.06303 0.055074 0)
(1.06827 0.0336354 0)
(1.05707 -0.202577 0)
(1.20964 -0.111188 0)
(1.33573 0.0263326 0)
(1.35717 0.170978 0)
(1.27549 0.186931 0)
(1.15793 0.126939 0)
(1.10653 0.0837227 0)
(1.07651 0.0728149 0)
(1.0618 0.0530801 0)
(1.06722 0.0328903 0)
(1.06774 -0.203395 0)
(1.22546 -0.105233 0)
(1.35688 0.0394321 0)
(1.36585 0.187807 0)
(1.27522 0.201446 0)
(1.15009 0.132173 0)
(1.10272 0.0823636 0)
(1.07524 0.0712446 0)
(1.06053 0.0514484 0)
(1.06623 0.032027 0)
(1.08023 -0.204107 0)
(1.24299 -0.0979064 0)
(1.38109 0.0550314 0)
(1.37341 0.205878 0)
(1.27074 0.210625 0)
(1.14174 0.13387 0)
(1.09795 0.0810305 0)
(1.07353 0.0701865 0)
(1.05908 0.0501386 0)
(1.06539 0.0310996 0)
(1.094 -0.20491 0)
(1.26275 -0.0889611 0)
(1.40397 0.0691208 0)
(1.38022 0.225638 0)
(1.26772 0.223202 0)
(1.13471 0.136573 0)
(1.09284 0.0801774 0)
(1.07153 0.0698359 0)
(1.05781 0.0492199 0)
(1.06449 0.0303018 0)
(1.10733 -0.205644 0)
(1.28489 -0.0781033 0)
(1.42871 0.0886794 0)
(1.3862 0.245513 0)
(1.25894 0.227367 0)
(1.12586 0.135262 0)
(1.08775 0.0802925 0)
(1.06944 0.069606 0)
(1.0567 0.0483622 0)
(1.06362 0.0294835 0)
(1.12261 -0.205836 0)
(1.30863 -0.065606 0)
(1.45062 0.108997 0)
(1.39119 0.262085 0)
(1.25187 0.229123 0)