/*--------------------------------*- C++ -*----------------------------------*\
  =========                 |
  \\      /  F ield         | OpenFOAM: The Open Source CFD Toolbox
   \\    /   O peration     | Website:  https://openfoam.org
    \\  /    A nd           | Version:  8
     \\/     M anipulation  |
\*---------------------------------------------------------------------------*/
FoamFile
{
    version     2.0;
    format      ascii;
    class       volVectorField;
    location    "0.1";
    object      U;
}
// * * * * * * * * * * * * * * * * * * * * * * * * * * * * * * * * * * * * * //

dimensions      [0 1 -1 0 0 0 0];

internalField   nonuniform List<vector> 
2600
(
(1.35022 0.967608 0)
(1.40961 0.758938 0)
(0.972466 0.243209 0)
(1.03935 0.0558952 0)
(1.08916 0.00582157 0)
(1.09952 0.000166838 0)
(1.1 -3.32686e-06 0)
(1.1 -2.27113e-06 0)
(1.1 -5.4569e-07 0)
(1.09682 8.23632e-08 0)
(0.904954 0.972504 0)
(1.28554 0.758893 0)
(0.973537 0.252702 0)
(1.03839 0.0612418 0)
(1.08793 0.00600711 0)
(1.09946 0.000157255 0)
(1.1 -3.30974e-06 0)
(1.1 -2.20955e-06 0)
(1.1 -5.51444e-07 0)
(1.09682 7.88664e-08 0)
(0.707102 0.577416 0)
(1.17106 0.647279 0)
(0.952142 0.260374 0)
(1.02804 0.0655551 0)
(1.08652 0.00635834 0)
(1.09942 0.000158448 0)
(1.1 -3.16437e-06 0)
(1.1 -2.07657e-06 0)
(1.1 -5.4417e-07 0)
(1.09682 7.46689e-08 0)
(0.493549 0.337734 0)
(0.977868 0.602305 0)
(0.900877 0.272056 0)
(1.01216 0.0661835 0)
(1.08535 0.00629121 0)
(1.09939 0.000176543 0)
(1.1 -2.84744e-06 0)
(1.1 -1.92889e-06 0)
(1.1 -5.26861e-07 0)
(1.09682 6.83488e-08 0)
(0.367937 0.294435 0)
(0.750515 0.563665 0)
(0.830403 0.260619 0)
(0.997005 0.061321 0)
(1.0842 0.00627346 0)
(1.09935 0.000194638 0)
(1.1 -2.36293e-06 0)
(1.1 -1.72722e-06 0)
(1.1 -4.96389e-07 0)
(1.09682 6.18544e-08 0)
(0.276736 0.29071 0)
(0.560066 0.53078 0)
(0.763849 0.224805 0)
(0.985205 0.053113 0)
(1.08296 0.00596475 0)
(1.09928 0.000208966 0)
(1.1 -1.66655e-06 0)
(1.1 -1.49628e-06 0)
(1.1 -4.47562e-07 0)
(1.09682 5.1939e-08 0)
(0.187339 0.191343 0)
(0.419838 0.416664 0)
(0.715926 0.17372 0)
(0.976409 0.0416778 0)
(1.08171 0.00524482 0)
(1.0992 0.000203605 0)
(1.1 -9.92475e-07 0)
(1.1 -1.16387e-06 0)
(1.1 -3.7415e-07 0)
(1.09682 4.07207e-08 0)
(0.134807 0.0352845 0)
(0.363756 0.271879 0)
(0.71143 0.1193 0)
(0.972382 0.0294269 0)
(1.08049 0.0041625 0)
(1.09912 0.000172426 0)
(1.1 -2.39932e-07 0)
(1.1 -7.84796e-07 0)
(1.1 -2.67058e-07 0)
(1.09682 2.25968e-08 0)
(0.10166 -0.0263405 0)
(0.324665 0.156967 0)
(0.69794 0.0698577 0)
(0.965668 0.0186127 0)
(1.07938 0.0027046 0)
(1.09906 0.000118903 0)
(1.1 3.00515e-07 0)
(1.1 -4.11386e-07 0)
(1.1 -1.49571e-07 0)
(1.09682 6.41086e-09 0)
(0.101251 -0.00149742 0)
(0.339587 0.0575869 0)
(0.710608 0.0234899 0)
(0.967256 0.00615046 0)
(1.0789 0.000865727 0)
(1.09901 4.00173e-05 0)
(1.1 4.81832e-08 0)
(1.1 -1.30532e-07 0)
(1.1 -4.76049e-08 0)
(1.09682 2.7218e-09 0)
(0.101251 0.00149742 0)
(0.339587 -0.0575869 0)
(0.710608 -0.0234899 0)
(0.967256 -0.00615046 0)
(1.0789 -0.000865727 0)
(1.09901 -4.00173e-05 0)
(1.1 -4.81834e-08 0)
(1.1 1.30531e-07 0)
(1.1 4.76076e-08 0)
(1.09682 -2.71249e-09 0)
(0.10166 0.0263405 0)
(0.324665 -0.156967 0)
(0.69794 -0.0698577 0)
(0.965668 -0.0186127 0)
(1.07938 -0.0027046 0)
(1.09906 -0.000118903 0)
(1.1 -3.00515e-07 0)
(1.1 4.1139e-07 0)
(1.1 1.49575e-07 0)
(1.09682 -6.42445e-09 0)
(0.134807 -0.0352845 0)
(0.363756 -0.271879 0)
(0.71143 -0.1193 0)
(0.972382 -0.0294269 0)
(1.08049 -0.0041625 0)
(1.09912 -0.000172426 0)
(1.1 2.39932e-07 0)
(1.1 7.84799e-07 0)
(1.1 2.67061e-07 0)
(1.09682 -2.26034e-08 0)
(0.187339 -0.191343 0)
(0.419838 -0.416664 0)
(0.715926 -0.17372 0)
(0.976409 -0.0416778 0)
(1.08171 -0.00524482 0)
(1.0992 -0.000203605 0)
(1.1 9.92475e-07 0)
(1.1 1.16388e-06 0)
(1.1 3.74148e-07 0)
(1.09682 -4.07157e-08 0)
(0.276736 -0.29071 0)
(0.560066 -0.53078 0)
(0.763849 -0.224805 0)
(0.985205 -0.053113 0)
(1.08296 -0.00596475 0)
(1.09928 -0.000208966 0)
(1.1 1.66655e-06 0)
(1.1 1.49628e-06 0)
(1.1 4.47552e-07 0)
(1.09682 -5.19359e-08 0)
(0.367937 -0.294435 0)
(0.750515 -0.563665 0)
(0.830403 -0.260619 0)
(0.997005 -0.061321 0)
(1.0842 -0.00627346 0)
(1.09935 -0.000194638 0)
(1.1 2.36293e-06 0)
(1.1 1.72721e-06 0)
(1.1 4.9639e-07 0)
(1.09682 -6.18521e-08 0)
(0.493549 -0.337734 0)
(0.977868 -0.602305 0)
(0.900877 -0.272056 0)
(1.01216 -0.0661835 0)
(1.08535 -0.00629121 0)
(1.09939 -0.000176543 0)
(1.1 2.84744e-06 0)
(1.1 1.92888e-06 0)
(1.1 5.26858e-07 0)
(1.09682 -6.83476e-08 0)
(0.707102 -0.577416 0)
(1.17106 -0.647279 0)
(0.952142 -0.260374 0)
(1.02804 -0.0655551 0)
(1.08652 -0.00635834 0)
(1.09942 -0.000158448 0)
(1.1 3.16437e-06 0)
(1.1 2.07657e-06 0)
(1.1 5.44172e-07 0)
(1.09682 -7.46692e-08 0)
(0.904954 -0.972504 0)
(1.28554 -0.758893 0)
(0.973537 -0.252702 0)
(1.03839 -0.0612418 0)
(1.08793 -0.00600711 0)
(1.09946 -0.000157255 0)
(1.1 3.30974e-06 0)
(1.1 2.20955e-06 0)
(1.1 5.51444e-07 0)
(1.09682 -7.88666e-08 0)
(1.35022 -0.967608 0)
(1.40961 -0.758938 0)
(0.972466 -0.243209 0)
(1.03935 -0.0558952 0)
(1.08916 -0.00582157 0)
(1.09952 -0.000166838 0)
(1.1 3.32686e-06 0)
(1.1 2.27113e-06 0)
(1.1 5.45691e-07 0)
(1.09682 -8.23636e-08 0)
(1.50197 -0.258954 0)
(1.24729 -0.568048 0)
(0.952612 -0.227313 0)
(1.03611 -0.0540494 0)
(1.09046 -0.00558445 0)
(1.09962 -0.00016184 0)
(1.1 3.57705e-06 0)
(1.1 2.34643e-06 0)
(1.1 5.24011e-07 0)
(1.09682 -8.46277e-08 0)
(1.48066 -0.0401121 0)
(1.21678 -0.437262 0)
(0.996794 -0.222129 0)
(1.04043 -0.0576184 0)
(1.09152 -0.005332 0)
(1.09968 -0.000125976 0)
(1.1 3.98984e-06 0)
(1.1 2.29724e-06 0)
(1.1 4.77827e-07 0)
(1.09682 -8.68351e-08 0)
(1.43308 0.0574117 0)
(1.23249 -0.318885 0)
(1.06161 -0.189312 0)
(1.05467 -0.0539758 0)
(1.09272 -0.00538934 0)
(1.09973 -0.000119583 0)
(1.1 4.18747e-06 0)
(1.1 2.17468e-06 0)
(1.1 4.20897e-07 0)
(1.09682 -8.55427e-08 0)
(1.36838 0.125474 0)
(1.2545 -0.248393 0)
(1.11249 -0.172084 0)
(1.07075 -0.051433 0)
(1.09424 -0.00519241 0)
(1.09977 -0.000119261 0)
(1.1 3.93756e-06 0)
(1.1 1.93684e-06 0)
(1.1 3.57462e-07 0)
(1.09682 -8.38546e-08 0)
(1.31205 0.157785 0)
(1.25062 -0.158641 0)
(1.13096 -0.129008 0)
(1.08263 -0.0439719 0)
(1.09567 -0.00471144 0)
(1.09981 -0.00011658 0)
(1.1 3.71096e-06 0)
(1.1 1.68383e-06 0)
(1.1 2.93027e-07 0)
(1.09682 -7.74682e-08 0)
(1.25275 0.187094 0)
(1.26282 -0.115203 0)
(1.13972 -0.101503 0)
(1.09355 -0.0386174 0)
(1.09709 -0.00435538 0)
(1.09985 -0.000114319 0)
(1.1 2.8852e-06 0)
(1.1 1.28251e-06 0)
(1.1 2.13531e-07 0)
(1.09682 -6.46975e-08 0)
(1.20533 0.205819 0)
(1.24426 -0.0504618 0)
(1.13682 -0.0688096 0)
(1.10064 -0.0294427 0)
(1.09838 -0.00368759 0)
(1.0999 -0.000100363 0)
(1.1 2.01066e-06 0)
(1.1 8.79473e-07 0)
(1.1 1.36727e-07 0)
(1.09682 -4.80522e-08 0)
(1.16327 0.224675 0)
(1.23891 -0.0165679 0)
(1.14294 -0.0497052 0)
(1.10575 -0.0210214 0)
(1.09957 -0.00280261 0)
(1.09995 -8.08758e-05 0)
(1.1 1.09917e-06 0)
(1.1 3.93412e-07 0)
(1.1 7.29944e-08 0)
(1.09682 -2.41357e-08 0)
(1.13048 0.240594 0)
(1.21148 0.0284051 0)
(1.14757 -0.0272826 0)
(1.10791 -0.0122023 0)
(1.10025 -0.00155534 0)
(1.09999 -5.29112e-05 0)
(1.1 -1.39221e-07 0)
(1.1 1.25176e-07 0)
(1.1 2.19929e-08 0)
(1.09682 -4.8593e-09 0)
(1.10373 0.259142 0)
(1.19404 0.0647315 0)
(1.15095 -0.00222174 0)
(1.10953 -0.00326922 0)
(1.10049 -0.000474713 0)
(1.1 -2.58091e-05 0)
(1.1 -1.93663e-06 0)
(1.1 -3.78785e-08 0)
(1.1 2.77949e-09 0)
(1.09682 -1.95004e-10 0)
(1.08148 0.287351 0)
(1.17348 0.116322 0)
(1.14922 0.0321646 0)
(1.11 0.00527963 0)
(1.10049 0.000159682 0)
(1.10001 -1.0795e-05 0)
(1.1 -2.15673e-06 0)
(1.1 -9.08789e-08 0)
(1.1 9.61106e-11 0)
(1.09682 -2.54753e-10 0)
(1.06658 0.308316 0)
(1.15336 0.167443 0)
(1.14315 0.0597906 0)
(1.10853 0.00796179 0)
(1.10037 0.000267362 0)
(1.1 -3.15518e-06 0)
(1.1 -1.42183e-06 0)
(1.1 -1.11544e-07 0)
(1.1 -1.84409e-10 0)
(1.09682 -4.13953e-10 0)
(1.06091 0.293456 0)
(1.13555 0.188366 0)
(1.13333 0.0649056 0)
(1.10567 0.00808347 0)
(1.10021 0.000245642 0)
(1.1 8.62457e-07 0)
(1.1 -4.17136e-07 0)
(1.1 -5.72982e-08 0)
(1.1 -2.13174e-10 0)
(1.09682 -3.39174e-10 0)
(1.06232 0.261346 0)
(1.11716 0.179161 0)
(1.1186 0.0617788 0)
(1.10291 0.00642771 0)
(1.10009 0.000157349 0)
(1.1 1.06744e-06 0)
(1.1 -2.76878e-08 0)
(1.1 -7.8889e-09 0)
(1.1 -1.16372e-10 0)
(1.09682 -8.34117e-11 0)
(1.08305 0.164469 0)
(1.10271 0.126976 0)
(1.10753 0.0399863 0)
(1.10103 0.00312259 0)
(1.10002 5.53194e-05 0)
(1.1 4.32426e-07 0)
(1.1 6.86936e-10 0)
(1.1 -1.68588e-10 0)
(1.1 -3.31528e-11 0)
(1.09682 -8.06751e-12 0)
(1.09711 0.0422448 0)
(1.09955 0.0383796 0)
(1.10143 0.0110178 0)
(1.10016 0.000607139 0)
(1.1 6.97288e-06 0)
(1.1 5.60813e-08 0)
(1.1 3.76384e-10 0)
(1.1 6.58516e-13 0)
(1.1 -4.87297e-12 0)
(1.09682 -5.21941e-13 0)
(1.09989 0.00197278 0)
(1.09995 0.00226641 0)
(1.10005 0.000629888 0)
(1.10001 2.48268e-05 0)
(1.1 1.73796e-07 0)
(1.1 1.26436e-09 0)
(1.1 3.07137e-11 0)
(1.1 5.54236e-13 0)
(1.1 -2.71231e-14 0)
(1.09682 -1.90311e-13 0)
(1.1 8.11888e-06 0)
(1.1 1.26551e-05 0)
(1.1 3.57473e-06 0)
(1.1 1.00326e-07 0)
(1.1 -5.79756e-10 0)
(1.1 -9.97906e-11 0)
(1.1 -1.88241e-12 0)
(1.1 4.02618e-13 0)
(1.1 3.2933e-14 0)
(1.09682 -1.65276e-13 0)
(1.1 -4.05855e-09 0)
(1.1 -1.06361e-08 0)
(1.1 -1.13909e-08 0)
(1.1 -5.90567e-09 0)
(1.1 -1.09542e-09 0)
(1.1 -7.20192e-11 0)
(1.1 -1.34345e-12 0)
(1.1 3.43658e-13 0)
(1.1 7.21522e-14 0)
(1.09682 -1.27282e-13 0)
(1.1 -5.03176e-09 0)
(1.1 -1.28381e-08 0)
(1.1 -1.15428e-08 0)
(1.1 -5.35887e-09 0)
(1.1 -7.68411e-10 0)
(1.1 -2.16493e-11 0)
(1.1 -2.03995e-13 0)
(1.1 1.73765e-13 0)
(1.1 1.8377e-14 0)
(1.09682 -2.15704e-13 0)
(0.414872 0.114945 0)
(0.471497 0.155393 0)
(0.541884 0.216661 0)
(0.594943 0.277258 0)
(0.637434 0.323296 0)
(0.668545 0.357899 0)
(0.694878 0.382032 0)
(0.724973 0.401587 0)
(0.772258 0.426318 0)
(0.892206 0.448767 0)
(0.478246 0.148626 0)
(0.506081 0.181925 0)
(0.551573 0.229023 0)
(0.588173 0.280149 0)
(0.626998 0.319659 0)
(0.659003 0.352236 0)
(0.687059 0.374771 0)
(0.720713 0.393176 0)
(0.774706 0.416142 0)
(0.891804 0.432918 0)
(0.575487 0.129196 0)
(0.567812 0.165759 0)
(0.597813 0.207629 0)
(0.614202 0.253558 0)
(0.641938 0.29216 0)
(0.666219 0.329478 0)
(0.692853 0.357953 0)
(0.728392 0.381554 0)
(0.788529 0.407974 0)
(0.915355 0.414712 0)
(0.657813 0.149192 0)
(0.625566 0.189457 0)
(0.648662 0.223384 0)
(0.655412 0.25857 0)
(0.672413 0.289235 0)
(0.686419 0.321459 0)
(0.707337 0.349956 0)
(0.741316 0.376935 0)
(0.80575 0.404791 0)
(0.93832 0.408339 0)
(0.734756 0.167937 0)
(0.674649 0.204426 0)
(0.694359 0.226824 0)
(0.694408 0.254834 0)
(0.702466 0.285198 0)
(0.710641 0.314845 0)
(0.72794 0.340987 0)
(0.757162 0.368022 0)
(0.821289 0.395022 0)
(0.951132 0.396379 0)
(0.853498 0.171363 0)
(0.726406 0.213888 0)
(0.722665 0.240437 0)
(0.714429 0.268595 0)
(0.722647 0.291889 0)
(0.730385 0.314611 0)
(0.74901 0.333362 0)
(0.774577 0.356803 0)
(0.83307 0.38242 0)
(0.954938 0.385302 0)
(1.00582 0.111875 0)
(0.836468 0.188145 0)
(0.75498 0.243617 0)
(0.732472 0.276326 0)
(0.736332 0.297757 0)
(0.74099 0.322308 0)
(0.762869 0.333299 0)
(0.788734 0.351481 0)
(0.843829 0.372244 0)
(0.954312 0.375763 0)
(1.08775 0.0340089 0)
(1.00899 0.086939 0)
(0.846065 0.196737 0)
(0.773136 0.266795 0)
(0.754006 0.30005 0)
(0.749969 0.328093 0)
(0.767414 0.34172 0)
(0.794243 0.355575 0)
(0.847993 0.366333 0)
(0.949796 0.366484 0)
(1.09988 0.00569042 0)
(1.09311 0.0110723 0)
(1.02761 0.06601 0)
(0.888138 0.186021 0)
(0.803631 0.277212 0)
(0.768064 0.323251 0)
(0.778498 0.343569 0)
(0.792095 0.369228 0)
(0.844449 0.369064 0)
(0.937813 0.365186 0)
(1.10016 0.00070842 0)
(1.10003 0.000439377 0)
(1.09621 0.00406868 0)
(1.05601 0.043772 0)
(0.941113 0.160984 0)
(0.83417 0.277629 0)
(0.797823 0.335452 0)
(0.793903 0.371916 0)
(0.838671 0.380616 0)
(0.923506 0.375191 0)
(1.1 1.22353e-05 0)
(1.1 7.41874e-08 0)
(1.09998 1.73299e-05 0)
(1.09857 0.00157954 0)
(1.07768 0.0253899 0)
(0.990897 0.125894 0)
(0.875318 0.26542 0)
(0.822468 0.349056 0)
(0.844234 0.381159 0)
(0.912956 0.381782 0)
(1.1 -2.07157e-06 0)
(1.1 -2.16782e-06 0)
(1.1 -1.76024e-06 0)
(1.1 1.54916e-06 0)
(1.09959 0.000498761 0)
(1.09052 0.0123219 0)
(1.03202 0.0899286 0)
(0.918866 0.240329 0)
(0.865045 0.349226 0)
(0.918709 0.369473 0)
(1.1 -5.29425e-07 0)
(1.1 -6.22505e-07 0)
(1.1 -6.92563e-07 0)
(1.1 -4.03964e-07 0)
(1.1 -2.74848e-07 0)
(1.09991 0.000115477 0)
(1.09647 0.00524926 0)
(1.06166 0.0574516 0)
(0.9704 0.202565 0)
(0.936554 0.320667 0)
(1.1 -1.75836e-08 0)
(1.1 -2.52055e-08 0)
(1.1 -5.5271e-08 0)
(1.1 -9.11897e-08 0)
(1.1 -6.74706e-08 0)
(1.1 -1.12331e-07 0)
(1.09998 1.99244e-05 0)
(1.09885 0.00191287 0)
(1.08145 0.0332885 0)
(1.02696 0.130461 0)
(1.1 -3.2515e-11 0)
(1.1 -8.79333e-11 0)
(1.1 -3.75872e-10 0)
(1.1 -1.9913e-09 0)
(1.1 -8.66045e-09 0)
(1.1 -9.34011e-09 0)
(1.1 -1.57541e-08 0)
(1.1 2.51423e-06 0)
(1.09975 0.000722909 0)
(1.09346 0.006114 0)
(1.1 -1.11784e-13 0)
(1.1 -1.11118e-13 0)
(1.1 -3.04444e-13 0)
(1.1 -9.28432e-13 0)
(1.1 -1.10206e-10 0)
(1.1 -6.78706e-10 0)
(1.1 -4.9118e-09 0)
(1.1 4.44335e-09 0)
(1.1 7.66714e-07 0)
(1.09994 4.00216e-05 0)
(1.1 -7.13728e-14 0)
(1.1 -3.81119e-14 0)
(1.1 -6.6752e-14 0)
(1.1 -5.57346e-14 0)
(1.1 -1.24322e-13 0)
(1.1 -6.86472e-12 0)
(1.1 -2.71257e-10 0)
(1.1 1.58454e-10 0)
(1.1 -2.32647e-09 0)
(1.1 3.0659e-07 0)
(1.1 -1.28339e-13 0)
(1.1 -6.28259e-14 0)
(1.1 -1.20303e-14 0)
(1.1 -2.333e-15 0)
(1.1 -4.43713e-14 0)
(1.1 4.84942e-14 0)
(1.1 -6.21091e-13 0)
(1.1 1.68565e-11 0)
(1.1 -7.87535e-10 0)
(1.1 1.86172e-09 0)
(1.1 -9.99742e-14 0)
(1.1 -9.89305e-14 0)
(1.1 -6.14668e-14 0)
(1.1 2.5394e-14 0)
(1.1 -4.60114e-14 0)
(1.1 -5.29193e-15 0)
(1.1 -1.2425e-13 0)
(1.1 9.14868e-13 0)
(1.1 -4.86878e-11 0)
(1.1 -6.30941e-10 0)
(1.1 -1.05031e-13 0)
(1.1 -1.40968e-13 0)
(1.1 -1.56103e-13 0)
(1.1 -1.10712e-13 0)
(1.1 -1.39013e-13 0)
(1.1 -1.43079e-13 0)
(1.1 -2.22621e-13 0)
(1.1 -1.89704e-14 0)
(1.1 -9.74175e-14 0)
(1.1 -3.53514e-10 0)
(1.1158 -4.38045e-14 0)
(1.11017 1.94288e-13 0)
(1.10578 -5.08514e-13 0)
(1.10181 2.39179e-13 0)
(1.1002 4.38454e-14 0)
(1.10001 3.46838e-14 0)
(1.1 -2.41856e-13 0)
(1.1 -1.38512e-13 0)
(1.1 -5.78873e-12 0)
(0.877168 0.0210597 0)
(1.1158 -2.05301e-14 0)
(1.11017 7.97903e-14 0)
(1.10578 -4.40956e-13 0)
(1.10181 2.8124e-13 0)
(1.1002 1.72596e-13 0)
(1.10001 1.16401e-13 0)
(1.1 -3.19692e-13 0)
(1.1 -7.25505e-13 0)
(1.1 -9.79751e-12 0)
(0.918081 0.0573263 0)
(1.1158 -2.71986e-14 0)
(1.11017 5.60854e-14 0)
(1.10578 -2.84519e-13 0)
(1.10181 2.52111e-13 0)
(1.1002 6.85601e-14 0)
(1.10001 2.11726e-13 0)
(1.1 -1.66733e-13 0)
(1.1 -3.15884e-14 0)
(1.1 -8.39666e-12 0)
(0.977834 0.0692893 0)
(1.1158 -1.4299e-14 0)
(1.11017 -8.63711e-14 0)
(1.10578 -1.39299e-13 0)
(1.10181 4.96711e-13 0)
(1.1002 -6.12498e-14 0)
(1.10001 3.33576e-13 0)
(1.1 -1.49182e-13 0)
(1.1 1.27764e-13 0)
(1.1 -3.34328e-13 0)
(1.02741 0.0782467 0)
(1.1158 -1.9805e-14 0)
(1.11017 -1.07933e-13 0)
(1.10578 -1.81163e-13 0)
(1.10181 5.70438e-13 0)
(1.1002 -1.15324e-13 0)
(1.10001 7.00147e-13 0)
(1.1 -3.75938e-13 0)
(1.1 1.1589e-13 0)
(1.1 -1.20021e-13 0)
(1.06311 0.0728258 0)
(1.1158 -2.5092e-14 0)
(1.11017 5.92164e-14 0)
(1.10578 -1.70677e-13 0)
(1.10181 6.68577e-13 0)
(1.1002 -2.8557e-13 0)
(1.10001 6.5878e-13 0)
(1.1 -5.34627e-13 0)
(1.1 1.18119e-13 0)
(1.1 -6.11302e-14 0)
(1.0869 0.0547999 0)
(1.1158 1.61732e-14 0)
(1.11017 1.05855e-13 0)
(1.10578 -1.59281e-13 0)
(1.10181 4.98397e-13 0)
(1.1002 -3.68123e-13 0)
(1.10001 3.87727e-13 0)
(1.1 -4.54038e-13 0)
(1.1 -6.5392e-14 0)
(1.1 2.93847e-14 0)
(1.09524 0.0357766 0)
(1.1158 3.39482e-14 0)
(1.11017 2.05398e-13 0)
(1.10578 -1.72551e-13 0)
(1.10181 2.38817e-13 0)
(1.1002 -3.85685e-13 0)
(1.10001 1.13225e-13 0)
(1.1 -1.37224e-13 0)
(1.1 4.08879e-14 0)
(1.1 -7.04139e-14 0)
(1.09824 0.0183699 0)
(1.1158 4.75924e-14 0)
(1.11017 2.69945e-13 0)
(1.10578 1.53991e-14 0)
(1.10181 4.68229e-14 0)
(1.1002 -2.18401e-13 0)
(1.10001 -1.10026e-13 0)
(1.1 6.22063e-15 0)
(1.1 6.11407e-14 0)
(1.1 -2.4122e-13 0)
(1.09957 0.00674685 0)
(1.1158 4.72173e-14 0)
(1.11017 1.67725e-13 0)
(1.10578 2.61585e-13 0)
(1.10181 -9.17386e-14 0)
(1.1002 2.19184e-14 0)
(1.10001 -1.94114e-13 0)
(1.1 -6.0101e-14 0)
(1.1 9.4883e-14 0)
(1.1 -1.21466e-13 0)
(1.09995 0.00134773 0)
(1.1158 3.43558e-14 0)
(1.11017 1.29927e-13 0)
(1.10578 2.78013e-13 0)
(1.10181 -3.4504e-13 0)
(1.1002 3.17346e-13 0)
(1.10001 -1.50972e-13 0)
(1.1 -1.37327e-13 0)
(1.1 9.78779e-14 0)
(1.1 7.27695e-14 0)
(1.1 0.000102504 0)
(1.1158 -2.48562e-14 0)
(1.11017 1.3211e-13 0)
(1.10578 2.84579e-13 0)
(1.10181 -5.03172e-13 0)
(1.1002 4.08468e-13 0)
(1.10001 2.29716e-13 0)
(1.1 -1.93414e-13 0)
(1.1 -1.2392e-13 0)
(1.1 1.56738e-13 0)
(1.1 2.08593e-06 0)
(1.1158 -3.96764e-14 0)
(1.11017 7.15075e-14 0)
(1.10578 3.59946e-13 0)
(1.10181 -5.53485e-13 0)
(1.1002 4.82045e-13 0)
(1.10001 9.35024e-14 0)
(1.1 -2.92249e-13 0)
(1.1 -2.26457e-13 0)
(1.1 1.44735e-13 0)
(1.1 1.399e-08 0)
(1.1158 -4.45028e-14 0)
(1.11017 8.78294e-14 0)
(1.10578 4.22815e-13 0)
(1.10181 -5.77358e-13 0)
(1.1002 4.06773e-13 0)
(1.10001 -1.3155e-13 0)
(1.1 -1.12995e-13 0)
(1.1 -3.97584e-13 0)
(1.1 1.52561e-13 0)
(1.1 5.44298e-11 0)
(1.1158 -4.68187e-14 0)
(1.11017 4.6012e-15 0)
(1.10578 3.26624e-13 0)
(1.10181 -7.0855e-13 0)
(1.1002 4.56921e-13 0)
(1.10001 -4.4488e-13 0)
(1.1 1.13021e-13 0)
(1.1 -3.74652e-13 0)
(1.1 8.22852e-14 0)
(1.1 1.08886e-13 0)
(1.1158 -2.20638e-14 0)
(1.11017 -2.08979e-13 0)
(1.10578 2.74135e-13 0)
(1.10181 -6.34118e-13 0)
(1.1002 5.05862e-13 0)
(1.10001 -4.387e-13 0)
(1.1 2.01763e-13 0)
(1.1 -6.39163e-16 0)
(1.1 2.46713e-14 0)
(1.1 -1.28793e-13 0)
(1.1158 -9.64456e-15 0)
(1.11017 -2.8059e-13 0)
(1.10578 2.84175e-13 0)
(1.10181 -7.54907e-13 0)
(1.1002 5.75791e-13 0)
(1.10001 -3.55582e-13 0)
(1.1 1.17442e-14 0)
(1.1 8.33643e-14 0)
(1.1 1.0095e-13 0)
(1.1 -8.41494e-14 0)
(1.1158 5.78196e-14 0)
(1.11017 -2.90198e-13 0)
(1.10578 2.54542e-13 0)
(1.10181 -7.93225e-13 0)
(1.1002 6.33298e-13 0)
(1.10001 -3.02118e-13 0)
(1.1 2.00728e-15 0)
(1.1 2.26007e-13 0)
(1.1 1.00218e-13 0)
(1.1 3.81796e-14 0)
(1.1158 5.29761e-14 0)
(1.11017 -2.72996e-13 0)
(1.10578 3.17901e-13 0)
(1.10181 -6.58895e-13 0)
(1.1002 2.48282e-13 0)
(1.10001 -1.97722e-14 0)
(1.1 2.17455e-13 0)
(1.1 3.65493e-13 0)
(1.1 1.42361e-13 0)
(1.1 -6.25357e-14 0)
(1.1158 7.05492e-15 0)
(1.11017 -2.29222e-13 0)
(1.10578 5.18112e-13 0)
(1.10181 -7.88681e-13 0)
(1.1002 3.65167e-13 0)
(1.10001 7.23377e-15 0)
(1.1 7.84091e-14 0)
(1.1 3.40434e-13 0)
(1.1 8.21429e-14 0)
(1.1 -2.30155e-13 0)
(1.1158 7.59058e-14 0)
(1.11017 2.82371e-14 0)
(1.10578 1.59152e-13 0)
(1.10181 2.4146e-13 0)
(1.1002 -1.85685e-13 0)
(1.10001 -8.09447e-13 0)
(1.1 3.09556e-13 0)
(1.1 -3.68571e-13 0)
(1.1 -4.59287e-14 0)
(1.1 1.85584e-13 0)
(1.1158 6.62825e-14 0)
(1.11017 -3.11332e-14 0)
(1.10578 4.07517e-13 0)
(1.10181 2.30248e-14 0)
(1.1002 -7.56792e-14 0)
(1.10001 -8.11417e-13 0)
(1.1 6.33039e-13 0)
(1.1 -5.866e-13 0)
(1.1 1.65134e-14 0)
(1.1 8.52117e-14 0)
(1.1158 4.85953e-14 0)
(1.11017 -1.94357e-13 0)
(1.10578 3.07768e-13 0)
(1.10181 -1.72994e-13 0)
(1.1002 -2.08593e-13 0)
(1.10001 -3.69685e-13 0)
(1.1 8.42865e-13 0)
(1.1 -3.52733e-13 0)
(1.1 -1.52861e-13 0)
(1.1 1.80856e-13 0)
(1.1158 6.09437e-14 0)
(1.11017 -2.62086e-13 0)
(1.10578 3.99187e-13 0)
(1.10181 -1.33826e-13 0)
(1.1002 -4.64174e-13 0)
(1.10001 1.79394e-13 0)
(1.1 5.84064e-13 0)
(1.1 -2.42753e-13 0)
(1.1 -4.73928e-14 0)
(1.1 1.79136e-13 0)
(1.1158 4.82402e-14 0)
(1.11017 -2.57166e-13 0)
(1.10578 3.77481e-13 0)
(1.10181 -3.61041e-14 0)
(1.1002 -3.89856e-13 0)
(1.10001 5.59806e-13 0)
(1.1 1.40949e-13 0)
(1.1 -1.61286e-13 0)
(1.1 1.73536e-14 0)
(1.1 3.12417e-14 0)
(1.1158 7.31331e-14 0)
(1.11017 -7.49506e-14 0)
(1.10578 5.18756e-13 0)
(1.10181 -1.61823e-13 0)
(1.1002 -1.50262e-13 0)
(1.10001 3.77997e-13 0)
(1.1 -1.81352e-13 0)
(1.1 -2.36042e-13 0)
(1.1 5.20025e-14 0)
(1.1 -1.26669e-13 0)
(1.1158 9.7095e-14 0)
(1.11017 6.74196e-14 0)
(1.10578 4.5538e-13 0)
(1.10181 -4.56829e-13 0)
(1.1002 3.82292e-13 0)
(1.10001 1.66306e-13 0)
(1.1 -8.66859e-15 0)
(1.1 -1.8632e-13 0)
(1.1 2.6496e-14 0)
(1.1 -5.38482e-11 0)
(1.1158 8.01792e-14 0)
(1.11017 3.43303e-14 0)
(1.10578 1.78421e-13 0)
(1.10181 -6.5728e-13 0)
(1.1002 8.16406e-13 0)
(1.10001 -6.68387e-14 0)
(1.1 -2.36366e-13 0)
(1.1 -2.09851e-15 0)
(1.1 7.94083e-14 0)
(1.1 -1.3989e-08 0)
(1.1158 1.21571e-13 0)
(1.11017 -5.64459e-14 0)
(1.10578 -8.60815e-14 0)
(1.10181 -5.87453e-13 0)
(1.1002 7.51022e-13 0)
(1.10001 -2.40826e-13 0)
(1.1 -5.9324e-14 0)
(1.1 2.84677e-13 0)
(1.1 1.5182e-13 0)
(1.1 -2.08594e-06 0)
(1.1158 3.96863e-14 0)
(1.11017 -2.32172e-14 0)
(1.10578 -1.55417e-13 0)
(1.10181 -3.61274e-13 0)
(1.1002 3.12899e-13 0)
(1.10001 -1.66957e-14 0)
(1.1 -1.19136e-14 0)
(1.1 2.54337e-13 0)
(1.1 1.62909e-14 0)
(1.1 -0.000102504 0)
(1.1158 -1.36943e-13 0)
(1.11017 -1.2079e-13 0)
(1.10578 -1.41333e-14 0)
(1.10181 -2.08822e-13 0)
(1.1002 -7.89834e-15 0)
(1.10001 3.16007e-13 0)
(1.1 -3.44867e-14 0)
(1.1 2.96213e-14 0)
(1.1 2.84253e-14 0)
(1.09995 -0.00134773 0)
(1.1158 -1.24511e-13 0)
(1.11017 -1.58187e-13 0)
(1.10578 1.25109e-13 0)
(1.10181 -1.21686e-13 0)
(1.1002 -2.29395e-13 0)
(1.10001 3.30172e-13 0)
(1.1 2.51891e-13 0)
(1.1 -2.84918e-13 0)
(1.1 -2.10479e-14 0)
(1.09957 -0.00674685 0)
(1.1158 1.76355e-14 0)
(1.11017 -1.4657e-13 0)
(1.10578 1.28307e-13 0)
(1.10181 -9.04588e-14 0)
(1.1002 -2.88185e-13 0)
(1.10001 2.70078e-13 0)
(1.1 5.09803e-13 0)
(1.1 -3.15038e-13 0)
(1.1 -2.19722e-13 0)
(1.09824 -0.0183699 0)
(1.1158 1.18524e-14 0)
(1.11017 -1.87045e-13 0)
(1.10578 7.10782e-14 0)
(1.10181 1.52485e-14 0)
(1.1002 -3.00839e-13 0)
(1.10001 -8.81873e-14 0)
(1.1 2.86626e-13 0)
(1.1 -1.53514e-13 0)
(1.1 -2.18261e-13 0)
(1.09524 -0.0357766 0)
(1.1158 -6.07356e-14 0)
(1.11017 -9.17143e-14 0)
(1.10578 4.2128e-14 0)
(1.10181 2.36358e-13 0)
(1.1002 -3.75306e-13 0)
(1.10001 -3.87918e-13 0)
(1.1 2.36654e-13 0)
(1.1 -7.05504e-14 0)
(1.1 -3.48334e-14 0)
(1.0869 -0.0547999 0)
(1.1158 -6.86205e-14 0)
(1.11017 4.78941e-15 0)
(1.10578 -8.11225e-14 0)
(1.10181 2.49519e-13 0)
(1.1002 -2.41451e-13 0)
(1.10001 -4.33517e-13 0)
(1.1 1.83687e-13 0)
(1.1 -1.14854e-13 0)
(1.1 7.66528e-14 0)
(1.06311 -0.0728258 0)
(1.1158 -7.43168e-14 0)
(1.11017 2.58993e-14 0)
(1.10578 -1.87608e-13 0)
(1.10181 7.12161e-14 0)
(1.1002 5.77713e-15 0)
(1.10001 -5.20585e-13 0)
(1.1 3.50279e-13 0)
(1.1 -6.92628e-14 0)
(1.1 6.88779e-14 0)
(1.02741 -0.0782467 0)
(1.1158 -2.88761e-14 0)
(1.11017 6.13612e-15 0)
(1.10578 -2.37572e-13 0)
(1.10181 2.71229e-13 0)
(1.1002 -2.68527e-13 0)
(1.10001 -4.12226e-13 0)
(1.1 2.79466e-13 0)
(1.1 2.61386e-13 0)
(1.1 8.13315e-12 0)
(0.977834 -0.0692893 0)
(1.1158 -7.07606e-14 0)
(1.11017 1.26124e-13 0)
(1.10578 -2.81858e-13 0)
(1.10181 4.27664e-13 0)
(1.1002 8.85894e-15 0)
(1.10001 -3.7006e-13 0)
(1.1 1.87338e-13 0)
(1.1 7.60836e-13 0)
(1.1 9.69588e-12 0)
(0.918081 -0.0573263 0)
(1.1158 -1.11326e-13 0)
(1.11017 2.4338e-13 0)
(1.10578 -4.31754e-13 0)
(1.10181 2.58461e-13 0)
(1.1002 1.42069e-13 0)
(1.10001 -1.17666e-13 0)
(1.1 -3.89083e-15 0)
(1.1 8.10809e-14 0)
(1.1 5.83952e-12 0)
(0.877168 -0.0210597 0)
(1.1 3.07613e-13 0)
(1.1 2.44593e-13 0)
(1.1 2.22719e-13 0)
(1.1 1.95769e-13 0)
(1.1 6.79789e-14 0)
(1.1 3.6616e-14 0)
(1.1 5.30019e-14 0)
(1.1 -9.45286e-14 0)
(1.1 8.29422e-14 0)
(1.1 3.53714e-10 0)
(1.1 3.41629e-13 0)
(1.1 2.51308e-13 0)
(1.1 2.44522e-13 0)
(1.1 1.47557e-13 0)
(1.1 3.26135e-14 0)
(1.1 2.15577e-14 0)
(1.1 1.32805e-14 0)
(1.1 -1.02444e-12 0)
(1.1 4.88346e-11 0)
(1.1 6.31021e-10 0)
(1.1 2.87567e-13 0)
(1.1 1.81092e-13 0)
(1.1 1.564e-13 0)
(1.1 3.59947e-14 0)
(1.1 5.48246e-14 0)
(1.1 3.6423e-14 0)
(1.1 5.79036e-13 0)
(1.1 -1.67364e-11 0)
(1.1 7.87541e-10 0)
(1.1 -1.86181e-09 0)
(1.1 1.25141e-13 0)
(1.1 1.52253e-13 0)
(1.1 1.18192e-13 0)
(1.1 5.82613e-14 0)
(1.1 1.25744e-13 0)
(1.1 7.06698e-12 0)
(1.1 2.71521e-10 0)
(1.1 -1.58247e-10 0)
(1.1 2.32658e-09 0)
(1.1 -3.06589e-07 0)
(1.1 1.20124e-13 0)
(1.1 1.89254e-13 0)
(1.1 3.02559e-13 0)
(1.1 1.03354e-12 0)
(1.1 1.10235e-10 0)
(1.1 6.78517e-10 0)
(1.1 4.9117e-09 0)
(1.1 -4.44336e-09 0)
(1.1 -7.66714e-07 0)
(1.09994 -4.00216e-05 0)
(1.1 3.23662e-11 0)
(1.1 8.80687e-11 0)
(1.1 3.76049e-10 0)
(1.1 1.99157e-09 0)
(1.1 8.66116e-09 0)
(1.1 9.34031e-09 0)
(1.1 1.57541e-08 0)
(1.1 -2.51424e-06 0)
(1.09975 -0.000722909 0)
(1.09346 -0.006114 0)
(1.1 1.75842e-08 0)
(1.1 2.52059e-08 0)
(1.1 5.52717e-08 0)
(1.1 9.11901e-08 0)
(1.1 6.74709e-08 0)
(1.1 1.12331e-07 0)
(1.09998 -1.99244e-05 0)
(1.09885 -0.00191287 0)
(1.08145 -0.0332885 0)
(1.02696 -0.130461 0)
(1.1 5.29426e-07 0)
(1.1 6.22505e-07 0)
(1.1 6.92564e-07 0)
(1.1 4.03964e-07 0)
(1.1 2.74848e-07 0)
(1.09991 -0.000115477 0)
(1.09647 -0.00524926 0)
(1.06166 -0.0574516 0)
(0.9704 -0.202565 0)
(0.936554 -0.320667 0)
(1.1 2.07156e-06 0)
(1.1 2.16782e-06 0)
(1.1 1.76024e-06 0)
(1.1 -1.54915e-06 0)
(1.09959 -0.000498761 0)
(1.09052 -0.0123219 0)
(1.03202 -0.0899286 0)
(0.918866 -0.240329 0)
(0.865045 -0.349226 0)
(0.918709 -0.369473 0)
(1.1 -1.22353e-05 0)
(1.1 -7.41865e-08 0)
(1.09998 -1.73299e-05 0)
(1.09857 -0.00157954 0)
(1.07768 -0.0253899 0)
(0.990897 -0.125894 0)
(0.875318 -0.26542 0)
(0.822468 -0.349056 0)
(0.844234 -0.381159 0)
(0.912956 -0.381782 0)
(1.10016 -0.00070842 0)
(1.10003 -0.000439377 0)
(1.09621 -0.00406868 0)
(1.05601 -0.043772 0)
(0.941113 -0.160984 0)
(0.83417 -0.277629 0)
(0.797823 -0.335452 0)
(0.793903 -0.371916 0)
(0.838671 -0.380616 0)
(0.923506 -0.375191 0)
(1.09988 -0.00569042 0)
(1.09311 -0.0110723 0)
(1.02761 -0.06601 0)
(0.888138 -0.186021 0)
(0.803631 -0.277212 0)
(0.768064 -0.323251 0)
(0.778498 -0.343569 0)
(0.792095 -0.369228 0)
(0.844449 -0.369064 0)
(0.937813 -0.365186 0)
(1.08775 -0.0340089 0)
(1.00899 -0.086939 0)
(0.846065 -0.196737 0)
(0.773136 -0.266795 0)
(0.754006 -0.30005 0)
(0.749969 -0.328093 0)
(0.767414 -0.34172 0)
(0.794243 -0.355575 0)
(0.847993 -0.366333 0)
(0.949796 -0.366484 0)
(1.00582 -0.111875 0)
(0.836468 -0.188145 0)
(0.75498 -0.243617 0)
(0.732472 -0.276326 0)
(0.736332 -0.297757 0)
(0.74099 -0.322308 0)
(0.762869 -0.333299 0)
(0.788734 -0.351481 0)
(0.843829 -0.372244 0)
(0.954312 -0.375763 0)
(0.853498 -0.171363 0)
(0.726406 -0.213888 0)
(0.722665 -0.240437 0)
(0.714429 -0.268595 0)
(0.722647 -0.291889 0)
(0.730385 -0.314611 0)
(0.74901 -0.333362 0)
(0.774577 -0.356803 0)
(0.83307 -0.38242 0)
(0.954938 -0.385302 0)
(0.734756 -0.167937 0)
(0.674649 -0.204426 0)
(0.694359 -0.226824 0)
(0.694408 -0.254834 0)
(0.702466 -0.285198 0)
(0.710641 -0.314845 0)
(0.72794 -0.340987 0)
(0.757162 -0.368022 0)
(0.821289 -0.395022 0)
(0.951132 -0.396379 0)
(0.657813 -0.149192 0)
(0.625566 -0.189457 0)
(0.648662 -0.223384 0)
(0.655412 -0.25857 0)
(0.672413 -0.289235 0)
(0.686419 -0.321459 0)
(0.707337 -0.349956 0)
(0.741316 -0.376935 0)
(0.80575 -0.404791 0)
(0.93832 -0.408339 0)
(0.575487 -0.129196 0)
(0.567812 -0.165759 0)
(0.597813 -0.207629 0)
(0.614202 -0.253558 0)
(0.641938 -0.29216 0)
(0.666219 -0.329478 0)
(0.692853 -0.357953 0)
(0.728392 -0.381554 0)
(0.788529 -0.407974 0)
(0.915355 -0.414712 0)
(0.478246 -0.148626 0)
(0.506081 -0.181925 0)
(0.551573 -0.229023 0)
(0.588173 -0.280149 0)
(0.626998 -0.319659 0)
(0.659003 -0.352236 0)
(0.687059 -0.374771 0)
(0.720713 -0.393176 0)
(0.774706 -0.416142 0)
(0.891804 -0.432918 0)
(0.414872 -0.114945 0)
(0.471497 -0.155393 0)
(0.541884 -0.216661 0)
(0.594943 -0.277258 0)
(0.637434 -0.323296 0)
(0.668545 -0.357899 0)
(0.694878 -0.382032 0)
(0.724973 -0.401587 0)
(0.772258 -0.426318 0)
(0.892206 -0.448767 0)
(1.1 5.03175e-09 0)
(1.1 1.28385e-08 0)
(1.1 1.15428e-08 0)
(1.1 5.35907e-09 0)
(1.1 7.69137e-10 0)
(1.1 2.1189e-11 0)
(1.1 3.23883e-13 0)
(1.1 -9.13813e-14 0)
(1.1 -1.11985e-13 0)
(1.09682 1.31593e-14 0)
(1.1 4.05859e-09 0)
(1.1 1.0636e-08 0)
(1.1 1.13906e-08 0)
(1.1 5.90591e-09 0)
(1.1 1.09577e-09 0)
(1.1 7.16983e-11 0)
(1.1 1.03822e-12 0)
(1.1 -2.21054e-13 0)
(1.1 -1.73295e-13 0)
(1.09682 8.51485e-16 0)
(1.1 -8.11888e-06 0)
(1.1 -1.26551e-05 0)
(1.1 -3.57473e-06 0)
(1.1 -1.00326e-07 0)
(1.1 5.79749e-10 0)
(1.1 9.96764e-11 0)
(1.1 1.66893e-12 0)
(1.1 -3.40248e-13 0)
(1.1 -2.6921e-13 0)
(1.09682 6.93808e-14 0)
(1.09989 -0.00197278 0)
(1.09995 -0.00226641 0)
(1.10005 -0.000629888 0)
(1.10001 -2.48268e-05 0)
(1.1 -1.73795e-07 0)
(1.1 -1.26497e-09 0)
(1.1 -3.11114e-11 0)
(1.1 -3.94193e-13 0)
(1.1 8.74757e-14 0)
(1.09682 8.36649e-14 0)
(1.09711 -0.0422448 0)
(1.09955 -0.0383796 0)
(1.10143 -0.0110178 0)
(1.10016 -0.000607139 0)
(1.1 -6.97288e-06 0)
(1.1 -5.60811e-08 0)
(1.1 -3.76832e-10 0)
(1.1 -4.83048e-13 0)
(1.1 5.39623e-12 0)
(1.09682 3.88368e-13 0)
(1.08305 -0.164469 0)
(1.10271 -0.126976 0)
(1.10753 -0.0399863 0)
(1.10103 -0.00312259 0)
(1.10002 -5.53193e-05 0)
(1.1 -4.32425e-07 0)
(1.1 -6.87298e-10 0)
(1.1 1.67635e-10 0)
(1.1 3.29767e-11 0)
(1.09682 8.02443e-12 0)
(1.06232 -0.261346 0)
(1.11716 -0.179161 0)
(1.1186 -0.0617788 0)
(1.10291 -0.00642771 0)
(1.10009 -0.000157349 0)
(1.1 -1.06744e-06 0)
(1.1 2.76874e-08 0)
(1.1 7.89017e-09 0)
(1.1 1.16489e-10 0)
(1.09682 8.3267e-11 0)
(1.06091 -0.293456 0)
(1.13555 -0.188366 0)
(1.13333 -0.0649056 0)
(1.10567 -0.00808347 0)
(1.10021 -0.000245642 0)
(1.1 -8.62457e-07 0)
(1.1 4.17137e-07 0)
(1.1 5.72975e-08 0)
(1.1 2.12986e-10 0)
(1.09682 3.39136e-10 0)
(1.06658 -0.308316 0)
(1.15336 -0.167443 0)
(1.14315 -0.0597906 0)
(1.10853 -0.00796179 0)
(1.10037 -0.000267362 0)
(1.1 3.15518e-06 0)
(1.1 1.42183e-06 0)
(1.1 1.11544e-07 0)
(1.1 1.84e-10 0)
(1.09682 4.14404e-10 0)
(1.08148 -0.287351 0)
(1.17348 -0.116322 0)
(1.14922 -0.0321646 0)
(1.11 -0.00527963 0)
(1.10049 -0.000159682 0)
(1.10001 1.0795e-05 0)
(1.1 2.15673e-06 0)
(1.1 9.08786e-08 0)
(1.1 -9.58486e-11 0)
(1.09682 2.5467e-10 0)
(1.10373 -0.259142 0)
(1.19404 -0.0647315 0)
(1.15095 0.00222174 0)
(1.10953 0.00326922 0)
(1.10049 0.000474713 0)
(1.1 2.58091e-05 0)
(1.1 1.93663e-06 0)
(1.1 3.78782e-08 0)
(1.1 -2.77944e-09 0)
(1.09682 1.95092e-10 0)
(1.13048 -0.240594 0)
(1.21148 -0.0284051 0)
(1.14757 0.0272826 0)
(1.10791 0.0122023 0)
(1.10025 0.00155534 0)
(1.09999 5.29112e-05 0)
(1.1 1.39221e-07 0)
(1.1 -1.25176e-07 0)
(1.1 -2.19933e-08 0)
(1.09682 4.86057e-09 0)
(1.16327 -0.224675 0)
(1.23891 0.0165679 0)
(1.14294 0.0497052 0)
(1.10575 0.0210214 0)