/*--------------------------------*- C++ -*----------------------------------*\
  =========                 |
  \\      /  F ield         | OpenFOAM: The Open Source CFD Toolbox
   \\    /   O peration     | Website:  https://openfoam.org
    \\  /    A nd           | Version:  7
     \\/     M anipulation  |
\*---------------------------------------------------------------------------*/
FoamFile
{
    version     2.0;
    format      ascii;
    class       volVectorField;
    location    "0.1";
    object      U;
}
// * * * * * * * * * * * * * * * * * * * * * * * * * * * * * * * * * * * * * //

dimensions      [0 1 -1 0 0 0 0];

internalField   nonuniform List<vector> 
3225
(
(1.1 -2.09417e-16 0)
(1.1 -2.06736e-16 0)
(1.1 -3.05452e-17 0)
(1.1 2.84075e-16 0)
(1.1 -6.18814e-18 0)
(1.1 -2.0246e-16 0)
(1.1 -3.80034e-16 0)
(1.1 -4.59845e-16 0)
(1.1 -1.5506e-16 0)
(1.1 1.34215e-16 0)
(1.1 9.74846e-18 0)
(1.1 1.90054e-16 0)
(1.1 6.84139e-16 0)
(1.1 3.90252e-16 0)
(1.1 2.30635e-16 0)
(1.1 6.64766e-16 0)
(1.1 5.26353e-16 0)
(1.1 2.7711e-16 0)
(1.1 -1.2768e-16 0)
(1.1 -2.56194e-16 0)
(1.1 -8.46353e-17 0)
(1.1 -2.02629e-16 0)
(1.1 4.38687e-17 0)
(1.1 1.85142e-16 0)
(1.1 -7.51912e-17 0)
(1.1 3.71753e-17 0)
(1.1 -3.12492e-16 0)
(1.1 1.9659e-16 0)
(1.1 -2.43492e-16 0)
(1.1 -2.50636e-16 0)
(1.1 9.51786e-17 0)
(1.1 -2.09385e-16 0)
(1.1 -4.00893e-16 0)
(1.1 -6.88488e-16 0)
(1.1 -5.09081e-16 0)
(1.1 -5.1894e-17 0)
(1.1 2.31539e-16 0)
(1.1 3.40831e-16 0)
(1.1 4.11161e-16 0)
(1.1 7.50927e-16 0)
(1.1 5.34234e-16 0)
(1.1 2.56773e-16 0)
(1.1 6.61131e-16 0)
(1.1 7.32843e-16 0)
(1.1 4.68656e-16 0)
(1.1 -1.32773e-17 0)
(1.1 -8.14209e-17 0)
(1.1 3.94034e-16 0)
(1.1 1.68228e-16 0)
(1.1 2.4482e-16 0)
(1.1 1.19988e-17 0)
(1.1 -5.29423e-16 0)
(1.1 -2.97574e-16 0)
(1.1 -7.6748e-16 0)
(1.1 1.09013e-16 0)
(1.1 -2.72962e-16 0)
(1.1 -9.4317e-17 0)
(1.1 4.88151e-17 0)
(1.1 -1.4e-16 0)
(1.1 -1.56667e-16 0)
(1.1 -1.5308e-16 0)
(1.1 -2.9984e-16 0)
(1.1 -2.70828e-16 0)
(1.1 1.07979e-16 0)
(1.1 5.30511e-16 0)
(1.1 3.7074e-16 0)
(1.1 4.1468e-16 0)
(1.1 3.87024e-16 0)
(1.1 1.57163e-16 0)
(1.1 2.51703e-16 0)
(1.1 6.57758e-16 0)
(1.1 6.44792e-16 0)
(1.1 4.84982e-16 0)
(1.1 7.78242e-16 0)
(1.1 5.76289e-16 0)
(1.1 7.49244e-16 0)
(1.1 4.7075e-16 0)
(1.1 -5.15392e-16 0)
(1.1 -4.50875e-16 0)
(1.1 -4.84383e-16 0)
(1.1 -6.88639e-16 0)
(1.1 -4.32503e-16 0)
(1.1 -4.32269e-16 0)
(1.1 5.7881e-17 0)
(1.1 2.63616e-16 0)
(1.1 4.83809e-16 0)
(1.1 3.05332e-16 0)
(1.1 1.54122e-16 0)
(1.1 -6.8785e-16 0)
(1.1 -6.98111e-16 0)
(1.1 -7.73016e-17 0)
(1.1 3.78104e-17 0)
(1.1 6.84311e-17 0)
(1.1 1.94959e-16 0)
(1.1 2.04577e-16 0)
(1.1 2.60256e-16 0)
(1.1 5.50799e-18 0)
(1.1 3.36347e-16 0)
(1.1 5.86161e-16 0)
(1.1 9.92831e-16 0)
(1.1 9.97082e-16 0)
(1.1 6.90438e-16 0)
(1.1 6.67318e-16 0)
(1.1 3.55102e-16 0)
(1.1 -1.08041e-15 0)
(1.1 -8.34991e-16 0)
(1.1 -4.24999e-16 0)
(1.1 -6.46476e-16 0)
(1.1 -9.81952e-16 0)
(1.1 -5.16379e-16 0)
(1.1 -1.21344e-16 0)
(1.1 1.23257e-16 0)
(1.1 3.26312e-16 0)
(1.1 5.79569e-16 0)
(1.1 4.11069e-16 0)
(1.1 -4.77932e-16 0)
(1.1 -2.63886e-16 0)
(1.1 -3.98665e-17 0)
(1.1 1.49395e-16 0)
(1.1 2.76442e-16 0)
(1.1 8.54985e-17 0)
(1.1 2.28247e-16 0)
(1.1 3.8764e-16 0)
(1.1 3.72633e-16 0)
(1.1 1.93213e-16 0)
(1.1 8.93296e-16 0)
(1.1 1.07875e-15 0)
(1.1 6.34224e-16 0)
(1.1 7.97938e-16 0)
(1.1 4.82726e-16 0)
(1.1 1.16684e-16 0)
(1.1 -9.93404e-16 0)
(1.1 -4.44146e-16 0)
(1.1 -3.11485e-16 0)
(1.1 -1.13105e-15 0)
(1.1 -1.43359e-15 0)
(1.1 -9.26305e-16 0)
(1.1 -4.65616e-16 0)
(1.1 -2.39621e-16 0)
(1.1 -1.08238e-16 0)
(1.1 2.4742e-16 0)
(1.1 5.91536e-16 0)
(1.1 4.36021e-16 0)
(1.1 3.91794e-16 0)
(1.1 1.61738e-16 0)
(1.1 2.80519e-16 0)
(1.1 8.11979e-17 0)
(1.1 -2.41331e-16 0)
(1.1 -2.78028e-16 0)
(1.1 1.97571e-16 0)
(1.1 6.74403e-16 0)
(1.1 5.50276e-16 0)
(1.1 1.11163e-15 0)
(1.1 9.34836e-16 0)
(1.1 1.02732e-15 0)
(1.1 7.21891e-16 0)
(1.1 2.32452e-16 0)
(1.1 -1.55513e-16 0)
(1.1 -3.95186e-16 0)
(1.1 -2.82443e-16 0)
(1.1 -5.60906e-16 0)
(1.1 -7.09446e-16 0)
(1.1 -7.48972e-16 0)
(1.1 -5.92364e-16 0)
(1.1 -9.00404e-16 0)
(1.1 -9.26013e-16 0)
(1.1 -3.42288e-16 0)
(1.1 -2.13777e-16 0)
(1.1 3.10938e-16 0)
(1.1 1.23788e-15 0)
(1.1 8.27177e-16 0)
(1.1 4.4754e-16 0)
(1.1 -2.51567e-16 0)
(1.1 -5.08147e-16 0)
(1.1 -3.26249e-16 0)
(1.1 -6.9627e-16 0)
(1.1 1.53957e-16 0)
(1.1 4.48515e-16 0)
(1.1 5.26674e-16 0)
(1.1 6.79774e-16 0)
(1.1 3.23435e-16 0)
(1.1 8.23967e-16 0)
(1.1 4.56525e-16 0)
(1.1 -1.44454e-16 0)
(1.1 -2.99283e-16 0)
(1.1 5.16379e-17 0)
(1.1 -2.72273e-16 0)
(1.1 -1.53703e-16 0)
(1.1 3.25637e-16 0)
(1.1 -3.96289e-16 0)
(1.1 -5.52584e-16 0)
(1.1 -1.23012e-15 0)
(1.1 -1.08157e-15 0)
(1.1 -9.42177e-16 0)
(1.1 1.38896e-17 0)
(1.1 -3.28566e-17 0)
(1.1 4.79825e-16 0)
(1.1 4.66309e-16 0)
(1.1 1.57194e-16 0)
(1.1 -8.5541e-16 0)
(1.1 -7.30351e-16 0)
(1.1 3.09092e-17 0)
(1.1 -5.04792e-16 0)
(1.1 -1.82109e-16 0)
(1.1 3.03535e-16 0)
(1.1 3.62642e-16 0)
(1.1 -1.53083e-18 0)
(1.1 -1.20521e-16 0)
(1.1 9.78226e-17 0)
(1.1 7.17343e-17 0)
(1.1 -3.96214e-16 0)
(1.1 -3.52005e-16 0)
(1.1 1.74596e-16 0)
(1.1 5.21419e-16 0)
(1.1 9.65249e-16 0)
(1.1 1.19007e-15 0)
(1.1 -1.68165e-16 0)
(1.1 -7.33213e-16 0)
(1.1 -9.31583e-16 0)
(1.1 -1.32903e-15 0)
(1.1 -1.20981e-15 0)
(1.1 -3.57013e-16 0)
(1.1 -3.4885e-16 0)
(1.1 -1.96136e-16 0)
(1.1 2.89638e-16 0)
(1.1 7.60287e-17 0)
(1.1 -3.43377e-16 0)
(1.1 1.33848e-16 0)
(1.1 5.79237e-16 0)
(1.1 9.19355e-17 0)
(1.1 -3.19706e-16 0)
(1.1 2.79841e-16 0)
(1.1 -8.41144e-17 0)
(1.1 -4.39071e-16 0)
(1.1 -1.34599e-16 0)
(1.1 -3.19463e-16 0)
(1.1 -5.3173e-16 0)
(1.1 9.4926e-17 0)
(1.1 1.1309e-16 0)
(1.1 6.74666e-16 0)
(1.1 7.35482e-16 0)
(1.1 8.52174e-16 0)
(1.1 7.88235e-16 0)
(1.1 -3.43312e-16 0)
(1.1 -5.67559e-16 0)
(1.1 -4.24818e-16 0)
(1.1 -7.58472e-16 0)
(1.1 -7.62939e-16 0)
(1.1 -4.20763e-16 0)
(1.1 -4.3349e-16 0)
(1.1 -3.2871e-16 0)
(1.1 -9.9699e-17 0)
(1.1 1.51237e-16 0)
(1.1 1.13825e-17 0)
(1.1 -8.28743e-18 0)
(1.1 2.76952e-16 0)
(1.1 3.40279e-16 0)
(1.1 1.7868e-16 0)
(1.1 1.20244e-16 0)
(1.1 -5.9992e-16 0)
(1.1 -5.72702e-16 0)
(1.1 -4.73581e-16 0)
(1.1 -7.96622e-16 0)
(1.1 -4.16913e-16 0)
(1.1 6.5486e-16 0)
(1.1 8.29288e-16 0)
(1.1 1.2767e-15 0)
(1.1 1.21938e-15 0)
(1.1 9.4229e-16 0)
(1.1 7.74857e-16 0)
(1.1 -3.86431e-16 0)
(1.1 -3.96313e-17 0)
(1.1 4.39364e-17 0)
(1.1 2.07444e-16 0)
(1.1 2.3182e-16 0)
(1.1 3.6944e-16 0)
(1.1 -2.91842e-17 0)
(1.1 -2.79089e-16 0)
(1.1 -6.09874e-16 0)
(1.1 -2.43796e-16 0)
(1.1 9.2836e-17 0)
(1.1 -6.36624e-17 0)
(1.1 -1.22299e-16 0)
(1.1 3.28091e-16 0)
(1.1 1.69542e-16 0)
(1.1 -6.66392e-17 0)
(1.1 -6.55574e-16 0)
(1.1 -6.12778e-16 0)
(1.1 -7.15329e-16 0)
(1.1 -6.74788e-16 0)
(1.1 2.28104e-16 0)
(1.1 2.58717e-16 0)
(1.1 8.53277e-16 0)
(1.1 1.43616e-15 0)
(1.1 1.19757e-15 0)
(1.1 5.87094e-16 0)
(1.1 9.62045e-16 0)
(1.1 -2.28225e-16 0)
(1.1 3.19287e-16 0)
(1.1 6.12831e-16 0)
(1.1 2.52641e-16 0)
(1.1 3.56709e-16 0)
(1.1 4.51529e-16 0)
(1.1 1.83199e-16 0)
(1.1 -6.97755e-16 0)
(1.1 -6.28981e-16 0)
(1.1 -2.32497e-16 0)
(1.1 -2.01003e-16 0)
(1.1 -3.71256e-16 0)
(1.1 -3.16744e-16 0)
(1.1 1.98175e-16 0)
(1.1 -2.58157e-16 0)
(1.1 -8.81539e-16 0)
(1.1 -7.6798e-16 0)
(1.1 -8.18272e-16 0)
(1.1 -5.28554e-16 0)
(1.1 -2.03417e-16 0)
(1.1 4.52998e-16 0)
(1.1 3.47261e-16 0)
(1.1 7.16385e-16 0)
(1.1 1.21338e-15 0)
(1.1 7.19867e-16 0)
(1.1 4.47304e-16 0)
(1.1 7.99254e-16 0)
(1.1 -3.51618e-16 0)
(1.1 -2.38768e-16 0)
(1.1 -1.13153e-16 0)
(1.1 -1.69636e-17 0)
(1.1 5.59267e-17 0)
(1.1 4.1023e-16 0)
(1.1 4.14209e-16 0)
(1.1 1.29836e-16 0)
(1.1 6.25418e-17 0)
(1.1 -8.63075e-17 0)
(1.1 -2.95182e-16 0)
(1.1 -8.87794e-17 0)
(1.1 2.36943e-17 0)
(1.1 2.88216e-16 0)
(1.1 -1.65369e-16 0)
(1.1 -7.52158e-16 0)
(1.1 -7.7335e-16 0)
(1.1 -9.8047e-16 0)
(1.1 -6.99659e-16 0)
(1.1 -2.05249e-16 0)
(1.1 1.20715e-16 0)
(1.1 4.49773e-16 0)
(1.1 5.01341e-16 0)
(1.1 6.3051e-16 0)
(1.1 4.25605e-16 0)
(1.1 6.59234e-16 0)
(1.1 8.97856e-16 0)
(1.1 -1.50055e-16 0)
(1.1 -5.75124e-16 0)
(1.1 -1.52698e-15 0)
(1.1 -3.57327e-16 0)
(1.1 -4.08414e-16 0)
(1.1 -3.8867e-16 0)
(1.1 1.82472e-16 0)
(1.1 5.72088e-16 0)
(1.1 9.98873e-16 0)
(1.1 9.66533e-16 0)
(1.1 7.43505e-16 0)
(1.1 6.38766e-16 0)
(1.1 -1.12916e-16 0)
(1.1 -1.90673e-16 0)
(1.1 -1.20661e-16 0)
(1.1 -4.92091e-16 0)
(1.1 -1.08574e-15 0)
(1.1 -9.91633e-16 0)
(1.1 -6.39659e-16 0)
(1.1 2.24947e-17 0)
(1.1 -1.3733e-16 0)
(1.1 -1.56163e-16 0)
(1.1 2.73759e-16 0)
(1.1 2.76022e-16 0)
(1.1 6.93371e-16 0)
(1.1 1.4249e-15 0)
(1.1 1.05073e-15 0)
(1.1 -3.00099e-16 0)
(1.1 -2.9999e-16 0)
(1.1 -4.99851e-16 0)
(1.1 -5.82273e-16 0)
(1.1 -2.63015e-16 0)
(1.1 -4.98381e-16 0)
(1.1 -8.16183e-17 0)
(1.1 3.55017e-16 0)
(1.1 9.62771e-16 0)
(1.1 9.15429e-16 0)
(1.1 9.35651e-16 0)
(1.1 5.90272e-16 0)
(1.1 -8.28385e-16 0)
(1.1 -9.31023e-16 0)
(1.1 -3.23477e-16 0)
(1.1 -2.647e-16 0)
(1.1 -3.67987e-16 0)
(1.1 1.8551e-18 0)
(1.1 1.70222e-16 0)
(1.1 3.5425e-16 0)
(1.1 5.81973e-16 0)
(1.1 2.93563e-16 0)
(1.1 6.68808e-16 0)
(1.1 4.16507e-16 0)
(1.1 1.00499e-15 0)
(1.1 1.0109e-15 0)
(1.1 7.73408e-16 0)
(1.1 -4.62553e-16 0)
(1.1 -2.04263e-16 0)
(1.1 1.75255e-16 0)
(1.1 -5.69806e-16 0)
(1.1 -9.31373e-17 0)
(1.1 1.39279e-16 0)
(1.1 5.15128e-16 0)
(1.1 7.02014e-16 0)
(1.1 6.92445e-16 0)
(1.1 2.35636e-16 0)
(1.1 4.45589e-16 0)
(1.1 4.94076e-16 0)
(1.1 -6.11878e-17 0)
(1.1 -1.75003e-16 0)
(1.1 3.44697e-16 0)
(1.1 4.35953e-16 0)
(1.1 5.47841e-16 0)
(1.1 6.03561e-16 0)
(1.1 5.46446e-16 0)
(1.1 6.4171e-16 0)
(1.1 7.1941e-16 0)
(1.1 9.0475e-16 0)
(1.1 7.96945e-16 0)
(1.1 9.81289e-16 0)
(1.1 8.50384e-16 0)
(1.1 4.33516e-16 0)
(1.1 6.42291e-16 0)
(1.1 -5.81788e-16 0)
(1.1 -3.21405e-16 0)
(1.1 -7.31525e-17 0)
(1.1 2.13342e-17 0)
(1.1 -4.50307e-16 0)
(1.1 1.29475e-16 0)
(1.1 3.30154e-16 0)
(1.1 8.00644e-16 0)
(1.1 7.97053e-16 0)
(1.1 7.08803e-16 0)
(1.1 6.26298e-16 0)
(1.1 6.13899e-16 0)
(1.1 5.51136e-16 0)
(1.1 3.95582e-16 0)
(1.1 2.14052e-16 0)
(1.1 4.62832e-16 0)
(1.1 6.31069e-16 0)
(1.1 1.141e-15 0)
(1.1 9.46675e-16 0)
(1.1 6.18125e-16 0)
(1.1 4.38533e-16 0)
(1.1 8.18209e-16 0)
(1.1 1.62221e-16 0)
(1.1 6.29074e-16 0)
(1.1 4.67091e-16 0)
(1.1 8.38081e-16 0)
(1.1 8.07697e-16 0)
(1.1 -4.38672e-16 0)
(1.1 -4.68894e-16 0)
(1.1 -5.0486e-16 0)
(1.1 2.52068e-16 0)
(1.1 2.41384e-16 0)
(1.1 -1.85874e-16 0)
(1.1 -2.37079e-16 0)
(1.1 7.44542e-17 0)
(1.1 4.00624e-16 0)
(1.1 6.5561e-16 0)
(1.1 8.06304e-16 0)
(1.1 4.75841e-16 0)
(1.1 5.13188e-16 0)
(1.1 1.80785e-16 0)
(1.1 -9.89384e-17 0)
(1.1 3.18909e-16 0)
(1.1 1.08491e-15 0)
(1.1 1.26946e-15 0)
(1.1 9.22862e-16 0)
(1.1 8.76169e-16 0)
(1.1 1.01942e-15 0)
(1.1 9.37577e-16 0)
(1.1 6.20651e-16 0)
(1.1 6.04964e-16 0)
(1.1 3.37931e-16 0)
(1.1 7.16454e-16 0)
(1.1 9.39217e-16 0)
(1.1 3.76177e-17 0)
(1.1 -4.71562e-16 0)
(1.1 -4.11747e-16 0)
(1.1 -2.81999e-16 0)
(1.1 2.74579e-16 0)
(1.1 -1.34301e-16 0)
(1.1 -1.63122e-16 0)
(1.1 1.73534e-17 0)
(1.1 2.14243e-16 0)
(1.1 5.352e-16 0)
(1.1 9.98585e-16 0)
(1.1 8.47184e-16 0)
(1.1 6.15176e-16 0)
(1.1 6.83165e-16 0)
(1.1 3.99062e-16 0)
(1.1 2.08491e-16 0)
(1.1 4.20734e-16 0)
(1.1 7.47112e-16 0)
(1.1 4.19134e-16 0)
(1.1 1.10411e-15 0)
(1.1 6.18565e-16 0)
(1.1 6.6522e-16 0)
(1.1 1.02899e-15 0)
(1.1 7.40961e-16 0)
(1.1 4.7192e-16 0)
(1.1 3.71727e-16 0)
(1.1 4.63572e-16 0)
(1.1 3.83935e-17 0)
(1.1 1.58575e-16 0)
(1.1 -3.27987e-16 0)
(1.1 -2.58499e-16 0)
(1.1 2.10042e-16 0)
(1.1 4.19742e-16 0)
(1.1 2.34415e-16 0)
(1.1 4.20283e-16 0)
(1.1 9.68349e-16 0)
(1.1 1.18785e-15 0)
(1.1 1.31045e-15 0)
(1.1 9.58303e-16 0)
(1.1 6.20016e-16 0)
(1.1 1.04412e-15 0)
(1.1 7.84818e-16 0)
(1.1 5.80276e-16 0)
(1.1 1.9236e-16 0)
(1.1 1.91659e-16 0)
(1.1 3.13601e-16 0)
(1.1 7.01957e-16 0)
(1.1 4.48231e-16 0)
(1.1 7.12419e-16 0)
(1.1 8.38805e-16 0)
(1.1 3.63276e-16 0)
(1.1 5.09047e-16 0)
(1.1 1.15308e-16 0)
(1.1 3.34247e-16 0)
(1.1 1.6171e-16 0)
(1.1 7.35612e-16 0)
(1.1 6.98437e-16 0)
(1.1 9.13132e-16 0)
(1.1 9.5225e-16 0)
(1.1 6.55059e-16 0)
(1.1 7.21709e-16 0)
(1.1 5.81462e-16 0)
(1.1 1.28168e-15 0)
(1.1 1.09768e-15 0)
(1.1 9.72496e-16 0)
(1.1 1.21767e-15 0)
(1.1 8.29984e-16 0)
(1.1 6.96642e-16 0)
(1.1 7.96927e-16 0)
(1.1 5.93445e-16 0)
(1.1 3.87349e-16 0)
(1.1 3.98089e-17 0)
(1.1 5.35262e-16 0)
(1.1 3.38033e-16 0)
(1.1 6.40666e-16 0)
(1.1 7.43109e-16 0)
(1.1 9.6511e-16 0)
(1.1 3.38123e-16 0)
(1.1 4.1376e-16 0)
(1.1 9.83495e-17 0)
(1.1 3.23416e-16 0)
(1.1 5.47641e-16 0)
(1.1 7.98105e-16 0)
(1.1 1.77073e-15 0)
(1.1 1.34732e-15 0)
(1.1 8.88312e-16 0)
(1.1 2.46615e-16 0)
(1.1 4.9676e-16 0)
(1.1 7.01514e-16 0)
(1.1 8.46669e-16 0)
(1.1 7.64254e-16 0)
(1.1 9.72897e-16 0)
(1.1 1.20963e-15 0)
(1.1 9.01583e-16 0)
(1.1 6.04909e-16 0)
(1.1 8.26796e-16 0)
(1.1 6.74801e-16 0)
(1.1 4.24235e-16 0)
(1.1 6.61336e-16 0)
(1.1 7.9645e-16 0)
(1.1 5.17433e-16 0)
(1.1 6.268e-16 0)
(1.1 4.6921e-16 0)
(1.1 2.16614e-16 0)
(1.1 4.51043e-16 0)
(1.1 5.66261e-16 0)
(1.1 1.20977e-17 0)
(1.1 -2.35283e-16 0)
(1.1 1.70313e-15 0)
(1.1 1.6202e-15 0)
(1.1 1.56985e-15 0)
(1.1 1.22357e-15 0)
(1.1 7.99751e-16 0)
(1.1 3.19626e-16 0)
(1.1 4.32135e-16 0)
(1.1 5.63008e-16 0)
(1.1 5.70893e-16 0)
(1.1 6.42107e-16 0)
(1.1 7.37235e-16 0)
(1.1 4.99827e-16 0)
(1.1 9.09692e-16 0)
(1.1 8.80842e-16 0)
(1.1 1.24008e-15 0)
(1.1 1.2176e-15 0)
(1.1 1.15579e-15 0)
(1.1 1.37401e-15 0)
(1.1 8.88183e-16 0)
(1.1 7.54029e-16 0)
(1.1 7.62544e-16 0)
(1.1 2.47392e-16 0)
(1.1 -2.33301e-16 0)
(1.1 -4.81777e-17 0)
(1.1 2.08646e-16 0)
(1.1 2.60882e-16 0)
(1.1 1.78453e-16 0)
(1.1 1.62786e-15 0)
(1.1 1.62592e-15 0)
(1.1 1.35093e-15 0)
(1.1 1.19244e-15 0)
(1.1 1.07583e-15 0)
(1.1 9.38538e-16 0)
(1.1 8.98171e-16 0)
(1.1 4.17702e-16 0)
(1.1 3.69436e-16 0)
(1.1 4.84617e-16 0)
(1.1 1.96611e-16 0)
(1.1 1.32145e-16 0)
(1.1 1.36398e-15 0)
(1.1 1.45556e-15 0)
(1.1 1.31876e-15 0)
(1.1 1.2575e-15 0)
(1.1 1.68702e-15 0)
(1.1 1.47243e-15 0)
(1.1 8.77022e-16 0)
(1.1 7.02087e-16 0)
(1.1 7.36881e-16 0)
(1.1 4.2218e-16 0)
(1.1 -4.90371e-17 0)
(1.1 2.12007e-16 0)
(1.1 1.78785e-16 0)
(1.1 2.96264e-17 0)
(1.1 -1.00101e-16 0)
(1.1 7.95556e-16 0)
(1.1 5.27792e-16 0)
(1.1 6.60646e-16 0)
(1.1 5.55081e-16 0)
(1.1 7.42603e-16 0)
(1.1 9.98022e-16 0)
(1.1 7.95486e-16 0)
(1.1 5.20746e-16 0)
(1.1 7.0191e-17 0)
(1.1 -4.35522e-16 0)
(1.1 -2.80082e-16 0)
(1.1 -1.64245e-16 0)
(1.1 8.29341e-16 0)
(1.1 1.10937e-15 0)
(1.1 1.28754e-15 0)
(1.1 1.25458e-15 0)
(1.1 1.32709e-15 0)
(1.1 1.12776e-15 0)
(1.1 4.47882e-16 0)
(1.1 4.21211e-16 0)
(1.1 5.98622e-16 0)
(1.1 7.6053e-16 0)
(1.1 4.77405e-16 0)
(1.1 5.49994e-16 0)
(1.1 3.65925e-16 0)
(1.1 -9.89764e-17 0)
(1.1 -4.5677e-16 0)
(1.1 4.11129e-16 0)
(1.1 3.74207e-17 0)
(1.1 -1.66522e-16 0)
(1.1 7.74944e-17 0)
(1.1 1.98519e-16 0)
(1.1 4.45768e-16 0)
(1.1 9.79548e-17 0)
(1.1 2.18536e-16 0)
(1.1 2.42789e-17 0)
(1.1 -3.37129e-16 0)
(1.1 -4.56258e-16 0)
(1.1 -2.03493e-16 0)
(1.1 2.96993e-16 0)
(1.1 7.65724e-16 0)
(1.1 9.79878e-16 0)
(1.1 1.39259e-15 0)
(1.1 1.06198e-15 0)
(1.1 1.00615e-15 0)
(1.1 7.74034e-16 0)
(1.1 7.74565e-16 0)
(1.1 8.19712e-16 0)
(1.1 9.83864e-16 0)
(1.1 9.20492e-16 0)
(1.1 3.55174e-16 0)
(1.1 -2.92071e-16 0)
(1.1 -7.87791e-17 0)
(1.1 -2.27042e-16 0)
(1.1 3.05583e-16 0)
(1.1 1.27242e-16 0)
(1.1 3.09654e-17 0)
(1.1 3.34511e-16 0)
(1.1 2.68311e-16 0)
(1.1 1.72802e-17 0)
(1.1 -1.80073e-16 0)
(1.1 -2.50369e-17 0)
(1.1 3.1855e-16 0)
(1.1 2.81792e-16 0)
(1.1 -5.21483e-17 0)
(1.1 1.54618e-16 0)
(1.1 -1.89302e-16 0)
(1.1 1.94675e-16 0)
(1.1 4.89789e-16 0)
(1.1 7.57747e-16 0)
(1.1 8.89524e-16 0)
(1.1 1.18275e-15 0)
(1.1 1.14667e-15 0)
(1.1 7.155e-16 0)
(1.1 6.20714e-16 0)
(1.1 9.48662e-16 0)
(1.1 8.71724e-16 0)
(1.1 3.45192e-16 0)
(1.1 -2.52936e-16 0)
(1.1 1.6035e-16 0)
(1.1 -4.18623e-16 0)
(1.1 -1.8181e-16 0)
(1.1 1.70192e-16 0)
(1.1 6.11018e-16 0)
(1.1 5.03008e-16 0)
(1.1 2.81373e-16 0)
(1.1 3.80867e-16 0)
(1.1 7.36994e-16 0)
(1.1 3.88347e-16 0)
(1.1 1.49069e-16 0)
(1.1 5.80543e-16 0)
(1.1 7.0861e-16 0)
(1.1 4.18827e-16 0)
(1.1 -5.71187e-17 0)
(1.1 -3.09162e-16 0)
(1.1 1.02081e-16 0)
(1.1 6.63399e-16 0)
(1.1 6.73936e-16 0)
(1.1 1.19035e-15 0)
(1.1 1.09773e-15 0)
(1.1 6.93683e-16 0)
(1.1 1.82045e-16 0)
(1.1 5.18178e-17 0)
(1.1 1.53925e-16 0)
(1.1 2.30457e-16 0)
(1.1 1.29729e-16 0)
(1.1 9.31882e-17 0)
(1.1 -1.93774e-16 0)
(1.1 -5.17953e-18 0)
(1.1 2.9974e-16 0)
(1.1 3.57555e-16 0)
(1.1 4.15448e-16 0)
(1.1 3.14855e-16 0)
(1.1 9.21929e-16 0)
(1.1 7.99345e-16 0)
(1.1 5.21805e-16 0)
(1.1 -1.46452e-16 0)
(1.1 5.78176e-17 0)
(1.1 4.42636e-16 0)
(1.1 3.8094e-16 0)
(1.1 1.90288e-17 0)
(1.1 -1.98377e-16 0)
(1.1 -8.81692e-19 0)
(1.1 5.23016e-16 0)
(1.1 8.23106e-16 0)
(1.1 8.69281e-16 0)
(1.1 1.65972e-15 0)
(1.1 1.29596e-15 0)
(1.1 9.52632e-16 0)
(1.1 -1.99367e-17 0)
(1.1 -1.10063e-17 0)
(1.1 -1.46476e-16 0)
(1.1 1.10962e-16 0)
(1.1 8.90416e-17 0)
(1.1 2.45261e-16 0)
(1.1 4.45871e-16 0)
(1.1 3.34053e-16 0)
(1.1 -2.37225e-17 0)
(1.1 1.86727e-16 0)
(1.1 3.07075e-16 0)
(1.1 1.03218e-16 0)
(1.1 -3.93901e-16 0)
(1.1 -1.23979e-16 0)
(1.1 -1.8947e-16 0)
(1.1 -4.00397e-16 0)
(1.1 7.75608e-16 0)
(1.1 5.06532e-16 0)
(1.1 5.12309e-17 0)
(1.1 2.86435e-16 0)
(1.1 3.66057e-16 0)
(1.1 4.88777e-16 0)
(1.1 4.50426e-16 0)
(1.1 5.81658e-16 0)
(1.1 1.44128e-15 0)
(1.1 1.10461e-15 0)
(1.1 6.7829e-16 0)
(1.1 2.75895e-16 0)
(1.1 2.32375e-16 0)
(1.1 1.95274e-16 0)
(1.1 1.46148e-16 0)
(1.1 4.67977e-17 0)
(1.1 6.81226e-16 0)
(1.1 4.61943e-16 0)
(1.1 5.23914e-16 0)
(1.1 2.28679e-16 0)
(1.1 4.56753e-16 0)
(1.1 3.13743e-16 0)
(1.1 -4.86141e-16 0)
(1.1 -8.1042e-16 0)
(1.1 -4.59128e-16 0)
(1.1 -4.0466e-16 0)
(1.1 -3.21596e-16 0)
(1.1 9.68467e-17 0)
(1.1 1.42203e-16 0)
(1.1 -5.4069e-17 0)
(1.1 3.92008e-16 0)
(1.1 4.91152e-16 0)
(1.1 5.56261e-16 0)
(1.1 4.34003e-16 0)
(1.1 2.01058e-16 0)
(1.1 5.42156e-16 0)
(1.1 7.50443e-16 0)
(1.1 2.65279e-16 0)
(1.1 4.60913e-16 0)
(1.1 6.65097e-16 0)
(1.1 8.33613e-16 0)
(1.1 8.05223e-16 0)
(1.1 1.31211e-16 0)
(1.1 1.84308e-16 0)
(1.1 3.4783e-16 0)
(1.1 2.1016e-16 0)
(1.1 3.01748e-17 0)
(1.1 3.92279e-16 0)
(1.1 3.27595e-16 0)
(1.1 5.67306e-17 0)
(1.1 4.95989e-16 0)
(1.1 2.82996e-16 0)
(1.1 -1.56876e-16 0)
(1.1 -4.9615e-16 0)
(1.1 -8.45988e-16 0)
(1.1 -6.74873e-16 0)
(1.1 -5.43919e-16 0)
(1.1 -1.8541e-16 0)
(1.1 1.11208e-16 0)
(1.1 2.43274e-16 0)
(1.1 3.80969e-16 0)
(1.1 2.24651e-16 0)
(1.1 4.25671e-16 0)
(1.1 6.21698e-16 0)
(1.1 -2.90385e-17 0)
(1.1 2.32102e-16 0)
(1.1 8.71497e-16 0)
(1.1 9.66974e-16 0)
(1.1 6.91176e-16 0)
(1.1 3.22075e-16 0)
(1.1 2.32375e-16 0)
(1.1 2.38529e-16 0)
(1.1 -9.39103e-17 0)
(1.1 5.03856e-16 0)
(1.1 -1.41948e-16 0)
(1.1 5.79784e-16 0)
(1.1 5.4864e-16 0)
(1.1 9.04322e-16 0)
(1.1 5.0969e-16 0)
(1.1 1.5032e-16 0)
(1.1 -2.8241e-16 0)
(1.1 -1.2e-15 0)
(1.1 -1.12374e-15 0)
(1.1 -6.45394e-16 0)
(1.1 -9.84234e-16 0)
(1.1 -8.67023e-16 0)
(1.1 -5.98228e-16 0)
(1.1 4.34365e-17 0)
(1.1 4.05171e-16 0)
(1.1 -1.976e-17 0)
(1.1 9.14192e-17 0)
(1.1 1.83357e-16 0)
(1.1 1.87888e-16 0)
(1.1 4.83006e-16 0)
(1.1 3.42921e-16 0)
(1.1 4.30311e-17 0)
(1.1 -4.43985e-17 0)
(1.1 2.66772e-16 0)
(1.1 -4.07116e-16 0)
(1.1 -6.60559e-17 0)
(1.1 5.35257e-16 0)
(1.1 3.2194e-16 0)
(1.1 3.92069e-16 0)
(1.1 3.32447e-16 0)
(1.1 2.74266e-17 0)
(1.1 -2.37288e-16 0)
(1.1 -3.85517e-16 0)
(1.1 -5.96497e-16 0)
(1.1 -4.82545e-16 0)
(1.1 -5.28744e-16 0)
(1.1 -6.08965e-16 0)
(1.1 -1.0701e-15 0)
(1.1 -1.18861e-15 0)
(1.1 -9.86241e-16 0)
(1.1 -8.00044e-16 0)
(1.1 -5.0674e-16 0)
(1.1 -4.26816e-16 0)
(1.1 3.17064e-16 0)
(1.1 8.24584e-16 0)
(1.1 8.57368e-16 0)
(1.1 2.18875e-16 0)
(1.1 -1.69187e-16 0)
(1.1 -3.17247e-16 0)
(1.1 -1.58493e-16 0)
(1.1 -5.05262e-18 0)
(1.1 -2.22867e-16 0)
(1.1 1.52085e-17 0)
(1.1 2.34002e-16 0)
(1.1 3.1417e-16 0)
(1.1 -2.49237e-16 0)
(1.1 -1.88973e-16 0)
(1.1 -1.81624e-16 0)
(1.1 -5.3009e-16 0)
(1.1 -6.57497e-16 0)
(1.1 -5.02255e-16 0)
(1.1 -3.71578e-16 0)
(1.1 9.26896e-17 0)
(1.1 -1.58638e-16 0)
(1.1 -3.69628e-16 0)
(1.1 -7.60518e-16 0)
(1.1 -1.08681e-15 0)
(1.1 -1.34548e-15 0)
(1.1 -1.35037e-15 0)
(1.1 -9.46885e-16 0)
(1.1 1.09887e-16 0)
(1.1 3.21605e-16 0)
(1.1 2.51867e-16 0)
(1.1 1.28575e-16 0)
(1.1 1.634e-16 0)
(1.1 1.05773e-16 0)
(1.1 3.02013e-16 0)
(1.1 2.79995e-17 0)
(1.1 3.20898e-17 0)
(1.1 2.46076e-17 0)
(1.1 -2.76392e-17 0)
(1.1 2.60672e-16 0)
(1.1 3.36765e-16 0)
(1.1 1.40973e-16 0)
(1.1 2.24622e-16 0)
(1.1 -9.09442e-17 0)
(1.1 -3.57861e-16 0)
(1.1 -2.50898e-16 0)
(1.1 -2.27242e-16 0)
(1.1 4.60186e-17 0)
(1.1 1.04371e-16 0)
(1.1 -3.51751e-17 0)
(1.1 -8.4175e-16 0)
(1.1 -1.08739e-15 0)
(1.1 -8.41447e-16 0)
(1.1 -1.14155e-15 0)
(1.1 -9.12456e-16 0)
(1.1 -3.88815e-16 0)
(1.1 -4.79008e-16 0)
(1.1 -4.0592e-16 0)
(1.1 -7.61684e-17 0)
(1.1 3.98604e-16 0)
(1.1 3.55053e-16 0)
(1.1 4.55461e-16 0)
(1.1 2.46581e-16 0)
(1.1 3.90066e-16 0)
(1.1 2.65087e-16 0)
(1.1 -2.55893e-16 0)
(1.1 1.00252e-16 0)
(1.1 9.05352e-16 0)
(1.1 1.32887e-15 0)
(1.1 8.90049e-16 0)
(1.1 6.44356e-16 0)
(1.1 -7.58008e-17 0)
(1.1 -2.90489e-16 0)
(1.1 -2.55966e-16 0)
(1.1 -1.57967e-16 0)
(1.1 2.24592e-16 0)
(1.1 1.13718e-16 0)
(1.1 6.06715e-17 0)
(1.1 -2.91071e-16 0)
(1.1 -7.152e-17 0)
(1.1 -1.84853e-16 0)
(1.1 -2.73767e-16 0)
(1.1 -4.39536e-16 0)
(1.1 -5.04485e-16 0)
(1.1 -1.19294e-16 0)
(1.1 4.74074e-17 0)
(1.1 1.70801e-16 0)
(1.1 -3.13565e-17 0)
(1.1 -2.16663e-16 0)
(1.1 -4.15877e-16 0)
(1.1 1.22621e-16 0)
(1.1 -3.02567e-16 0)
(1.1 -1.23163e-16 0)
(1.1 -1.97035e-16 0)
(1.1 -5.04154e-18 0)
(1.1 7.86791e-16 0)
(1.1 5.97057e-16 0)
(1.1 8.027e-16 0)
(1.1 5.90135e-16 0)
(1.1 5.29837e-16 0)
(1.1 2.65538e-16 0)
(1.1 -6.57622e-17 0)
(1.1 1.67444e-17 0)
(1.1 2.6901e-16 0)
(1.1 5.22481e-16 0)
(1.1 8.4616e-16 0)
(1.1 4.48678e-16 0)
(1.1 1.41955e-16 0)
(1.1 -8.47359e-17 0)
(1.1 -4.57225e-16 0)
(1.1 -4.45969e-16 0)
(1.1 -6.61993e-16 0)
(1.1 -4.08015e-16 0)
(1.1 -3.38386e-16 0)
(1.1 -2.40056e-16 0)
(1.1 -7.41182e-17 0)
(1.1 -3.43153e-16 0)
(1.1 2.25041e-16 0)
(1.1 4.16141e-16 0)
(1.1 2.50979e-16 0)
(1.1 -6.68615e-18 0)
(1.1 -3.52259e-16 0)
(1.1 1.23277e-16 0)
(1.1 3.01207e-16 0)
(1.1 5.65272e-16 0)
(1.1 8.7105e-16 0)
(1.1 1.34103e-15 0)
(1.1 1.42096e-15 0)
(1.1 8.96474e-16 0)
(1.1 -3.14764e-16 0)
(1.1 8.56492e-17 0)
(1.1 3.09831e-16 0)
(1.1 7.50168e-16 0)
(1.1 1.76295e-16 0)
(1.1 2.16795e-16 0)
(1.1 -1.88985e-17 0)
(1.1 -3.21084e-16 0)
(1.1 -4.85719e-16 0)
(1.1 -1.24839e-15 0)
(1.1 -1.21724e-15 0)
(1.1 -5.81912e-16 0)
(1.1 -1.33691e-16 0)
(1.1 5.5374e-16 0)
(1.1 4.96451e-16 0)
(1.1 4.03869e-16 0)
(1.1 5.24345e-16 0)
(1.1 1.92636e-16 0)
(1.1 1.889e-16 0)
(1.1 -4.86376e-16 0)
(1.1 -1.74143e-16 0)
(1.1 3.71132e-16 0)
(1.1 7.35713e-16 0)
(1.1 1.14395e-15 0)
(1.1 1.32126e-15 0)
(1.1 1.14232e-15 0)
(1.1 6.48851e-16 0)
(1.1 4.67379e-16 0)
(1.1 7.56361e-16 0)
(1.1 6.78095e-16 0)
(1.1 2.43242e-16 0)
(1.1 -1.92174e-16 0)
(1.1 7.88524e-18 0)
(1.1 -3.36315e-16 0)
(1.1 -8.97613e-16 0)
(1.1 -8.67588e-16 0)
(1.1 -9.60924e-16 0)
(1.1 -8.40483e-16 0)
(1.1 -2.54797e-16 0)
(1.1 2.15625e-16 0)
(1.1 1.6679e-16 0)
(1.1 3.61372e-16 0)
(1.1 -3.88774e-16 0)
(1.1 -4.78285e-16 0)
(1.1 5.27772e-17 0)
(1.1 -3.60748e-17 0)
(1.1 -3.72306e-16 0)
(1.1 -4.72155e-16 0)
(1.1 -1.99696e-16 0)
(1.1 5.33713e-16 0)
(1.1 6.72353e-16 0)
(1.1 8.46709e-16 0)
(1.1 3.34786e-16 0)
(1.1 3.22142e-16 0)
(1.1 9.52583e-16 0)
(1.1 8.20527e-16 0)
(1.1 5.13386e-16 0)
(1.1 4.25157e-16 0)
(1.1 2.77886e-16 0)
(1.1 -2.41178e-16 0)
(1.1 -9.30712e-16 0)
(1.1 -1.10947e-15 0)
(1.1 -9.21822e-16 0)
(1.1 -1.86394e-16 0)
(1.1 -2.39902e-17 0)
(1.1 7.45468e-17 0)
(1.1 1.47835e-16 0)
(1.1 -1.76397e-16 0)
(1.1 -3.23451e-16 0)
(1.1 -1.18314e-15 0)
(1.1 -1.159e-15 0)
(1.1 -8.60804e-16 0)
(1.1 -9.36218e-16 0)
(1.1 -2.40831e-16 0)
(1.1 -6.89988e-16 0)
(1.1 -5.85032e-16 0)
(1.1 -5.26918e-16 0)
(1.1 3.09538e-17 0)
(1.1 2.09832e-16 0)
(1.1 -2.79711e-17 0)
(1.1 3.7139e-16 0)
(1.1 1.39626e-16 0)
(1.1 -5.32463e-18 0)
(1.1 -1.48479e-17 0)
(1.1 2.4498e-16 0)
(1.1 1.66218e-16 0)
(1.1 -3.91106e-16 0)
(1.1 -7.7731e-16 0)
(1.1 -5.73765e-16 0)
(1.1 -2.50405e-16 0)
(1.1 -2.06345e-16 0)
(1.1 -1.52845e-16 0)
(1.1 -3.19523e-17 0)
(1.1 4.79848e-16 0)
(1.1 1.43071e-16 0)
(1.1 -3.74269e-16 0)
(1.1 -1.80051e-15 0)
(1.1 -1.37214e-15 0)
(1.1 -1.59941e-15 0)
(1.1 -1.32212e-15 0)
(1.1 -3.03526e-16 0)
(1.1 -7.64118e-16 0)
(1.1 -4.42102e-16 0)
(1.1 -7.0044e-16 0)
(1.1 -4.73598e-16 0)
(1.1 -3.96576e-16 0)
(1.1 -4.33386e-16 0)
(1.1 -1.04491e-16 0)
(1.1 -6.36253e-16 0)
(1.1 -6.04951e-16 0)
(1.1 -3.12266e-16 0)
(1.1 -4.59736e-16 0)
(1.1 -7.94042e-16 0)
(1.1 -8.5933e-16 0)
(1.1 -9.34675e-16 0)
(1.1 -4.61274e-16 0)
(1.1 8.44124e-17 0)
(1.1 3.53097e-16 0)
(1.1 1.9334e-16 0)
(1.1 -1.71606e-16 0)
(1.1 3.91079e-16 0)
(1.1 3.8422e-16 0)
(1.1 -3.46644e-17 0)
(1.1 -1.27481e-15 0)
(1.1 -9.11447e-16 0)
(1.1 -4.97037e-16 0)
(1.1 -3.7146e-16 0)
(1.1 -3.53371e-16 0)
(1.1 -5.2025e-16 0)
(1.1 -6.67835e-16 0)
(1.1 -1.00109e-15 0)
(1.1 -1.33764e-15 0)
(1.1 -1.23327e-15 0)
(1.1 -1.02904e-15 0)
(1.1 -1.07241e-15 0)
(1.1 -7.30277e-16 0)
(1.1 -9.79364e-16 0)
(1.1 -7.52673e-16 0)
(1.1 -8.75108e-16 0)
(1.1 -8.15483e-16 0)
(1.1 -5.37529e-16 0)
(1.1 -8.69862e-16 0)
(1.1 -6.11219e-16 0)
(1.1 3.12341e-16 0)
(1.1 8.97334e-16 0)
(1.1 5.54355e-16 0)
(1.1 3.11228e-17 0)
(1.1 1.46398e-16 0)
(1.1 2.40649e-16 0)
(1.1 2.66032e-16 0)
(1.1 -4.04687e-16 0)
(1.1 -4.16966e-16 0)
(1.1 -1.93108e-16 0)
(1.1 -1.45102e-17 0)
(1.1 -8.44523e-17 0)
(1.1 -1.34455e-16 0)
(1.1 -5.92916e-16 0)
(1.1 -1.03889e-15 0)
(1.1 -1.18384e-15 0)
(1.1 -1.46642e-15 0)
(1.1 -1.3614e-15 0)
(1.1 -1.8827e-15 0)
(1.1 -1.29436e-15 0)
(1.1 -1.39982e-15 0)
(1.1 -1.36491e-15 0)
(1.1 -1.08344e-15 0)
(1.1 -9.14411e-16 0)
(1.1 -4.7529e-16 0)
(1.1 -4.92307e-16 0)
(1.1 -1.54322e-16 0)
(1.1 8.22184e-17 0)
(1.1 1.78354e-16 0)
(1.1 3.67375e-16 0)
(1.1 2.7883e-16 0)
(1.1 -8.35962e-17 0)
(1.1 8.19773e-18 0)
(1.1 4.84151e-16 0)
(1.1 -1.24764e-16 0)
(1.1 -1.7907e-16 0)
(1.1 9.39235e-17 0)
(1.1 4.49929e-16 0)
(1.1 2.48009e-16 0)
(1.1 1.70322e-16 0)
(1.1 -1.48303e-16 0)
(1.1 -6.55662e-16 0)
(1.1 -7.96392e-16 0)
(1.1 -1.2852e-15 0)
(1.1 -1.22102e-15 0)
(1.1 -1.51776e-15 0)
(1.1 -1.60194e-15 0)
(1.1 -1.36019e-15 0)
(1.1 -1.33949e-15 0)
(1.1 -1.26047e-15 0)
(1.1 -8.09152e-16 0)
(1.1 -6.47312e-16 0)
(1.1 6.20868e-17 0)
(1.1 1.61038e-16 0)
(1.1 2.0736e-17 0)
(1.1 -2.74653e-16 0)
(1.1 -3.71637e-16 0)
(1.1 -4.13563e-16 0)
(1.1 -4.12633e-16 0)
(1.1 -5.40978e-17 0)
(1.1 3.65031e-16 0)
(1.1 1.5859e-16 0)
(1.1 1.01753e-16 0)
(1.1 4.37599e-16 0)
(1.1 3.47362e-16 0)
(1.1 -2.35484e-16 0)
(1.1 -7.5333e-17 0)
(1.1 -3.78872e-16 0)
(1.1 -6.36761e-16 0)
(1.1 -1.2801e-15 0)
(1.1 -1.26912e-15 0)
(1.1 -7.8421e-16 0)
(1.1 -8.8509e-16 0)
(1.1 -1.29092e-15 0)
(1.1 -1.2091e-15 0)
(1.1 -8.43697e-16 0)
(1.1 -1.14822e-15 0)
(1.1 -4.86983e-16 0)
(1.1 -4.17692e-16 0)
(1.1 -2.97196e-16 0)
(1.1 -2.08022e-16 0)
(1.1 -2.54348e-16 0)
(1.1 -1.93401e-16 0)
(1.1 -1.19902e-16 0)
(1.1 -1.07077e-16 0)
(1.1 -2.29416e-17 0)
(1.1 9.70073e-18 0)
(1.1 2.50907e-16 0)
(1.1 4.43069e-16 0)
(1.1 2.8631e-16 0)
(1.1 1.96132e-16 0)
(1.1 -3.00695e-16 0)
(1.1 -4.90211e-16 0)
(1.1 -4.6949e-16 0)
(1.1 -1.00851e-15 0)
(1.1 -6.31284e-16 0)
(1.1 -8.068e-16 0)
(1.1 -6.38463e-16 0)
(1.1 -9.57994e-16 0)
(1.1 -7.70375e-16 0)
(1.1 -8.38589e-16 0)
(1.1 -7.42045e-16 0)
(1.1 -7.62987e-16 0)
(1.1 -8.08651e-16 0)
(1.1 -7.53312e-16 0)
(1.1 -7.74238e-16 0)
(1.1 -2.41354e-16 0)
(1.1 -3.72131e-17 0)
(1.1 -6.53633e-16 0)
(1.1 -3.03186e-16 0)
(1.1 4.09902e-16 0)
(1.1 3.53491e-16 0)
(1.1 5.72297e-17 0)
(1.1 5.08591e-17 0)
(1.1 5.25861e-17 0)
(1.1 6.82787e-17 0)
(1.1 6.47474e-16 0)
(1.1 1.838e-16 0)
(1.1 -1.00717e-15 0)
(1.1 -8.58095e-16 0)
(1.1 -7.7999e-16 0)
(1.1 -6.05566e-16 0)
(1.1 -6.25526e-16 0)
(1.1 -3.73927e-17 0)
(1.1 -2.19681e-17 0)
(1.1 -5.08639e-16 0)
(1.1 -1.01852e-15 0)
(1.1 -1.41166e-16 0)
(1.1 -3.88902e-16 0)
(1.1 -7.3887e-16 0)
(1.1 -6.44125e-16 0)
(1.1 -1.10436e-15 0)
(1.1 -8.01834e-16 0)
(1.1 3.78932e-16 0)
(1.1 5.01484e-16 0)
(1.1 -4.65324e-17 0)
(1.1 -9.43951e-17 0)
(1.1 3.04952e-16 0)
(1.1 3.18207e-16 0)
(1.1 1.08675e-16 0)
(1.1 5.882e-17 0)
(1.1 -1.60886e-16 0)
(1.1 -5.50636e-16 0)
(1.1 -1.14156e-16 0)
(1.1 -1.94891e-16 0)
(1.1 -5.71948e-16 0)
(1.1 -1.77442e-16 0)
(1.1 -7.19135e-16 0)
(1.1 2.20805e-16 0)
(1.1 1.64135e-16 0)
(1.1 1.81238e-16 0)
(1.1 -1.39566e-17 0)
(1.1 -2.20685e-16 0)
(1.1 -4.84822e-16 0)
(1.1 -5.06249e-17 0)
(1.1 -3.40617e-16 0)
(1.1 -4.34417e-16 0)
(1.1 -7.79238e-16 0)
(1.1 -6.52316e-16 0)
(1.1 -4.65782e-16 0)
(1.1 1.29413e-17 0)
(1.1 1.99349e-16 0)
(1.1 -2.02046e-17 0)
(1.1 7.89536e-17 0)
(1.1 1.56342e-16 0)
(1.1 4.30786e-16 0)
(1.1 2.8441e-16 0)
(1.1 6.90865e-17 0)
(1.1 4.53291e-17 0)
(1.1 -2.74821e-16 0)
(1.1 -1.6705e-16 0)
(1.1 -2.38352e-16 0)
(1.1 2.5941e-16 0)
(1.1 4.25298e-16 0)
(1.1 -2.32195e-16 0)
(1.1 1.25651e-16 0)
(1.1 7.55275e-16 0)
(1.1 2.84941e-16 0)
(1.1 1.22069e-16 0)
(1.1 -8.09415e-16 0)
(1.1 -5.0729e-16 0)
(1.1 -4.06959e-16 0)
(1.1 -2.63609e-16 0)
(1.1 -1.85664e-16 0)
(1.1 -6.2823e-16 0)
(1.1 -4.96543e-16 0)
(1.1 -3.09171e-16 0)
(1.1 -3.43198e-16 0)
(1.1 -3.44787e-16 0)
(1.1 -2.37826e-16 0)
(1.1 5.81914e-17 0)
(1.1 -1.97562e-16 0)
(1.1 8.36701e-17 0)
(1.1 4.07628e-16 0)
(1.1 4.91813e-16 0)
(1.1 3.10647e-16 0)
(1.1 1.08063e-15 0)
(1.1 6.70364e-16 0)
(1.1 4.44882e-16 0)
(1.1 7.21083e-16 0)
(1.1 5.8022e-16 0)
(1.1 1.3551e-16 0)
(1.1 -8.48472e-17 0)
(1.1 -2.20386e-16 0)
(1.1 -6.12479e-16 0)
(1.1 -5.16591e-16 0)
(1.1 -3.93445e-16 0)
(1.1 -3.27935e-17 0)
(1.1 -1.19553e-16 0)
(1.1 -3.51127e-16 0)
(1.1 -5.89299e-16 0)
(1.1 -5.42749e-16 0)
(1.1 -5.51532e-16 0)
(1.1 -4.63436e-17 0)
(1.1 -1.27299e-16 0)
(1.1 -5.2919e-16 0)
(1.1 1.87709e-16 0)
(1.1 -5.48816e-17 0)
(1.1 -3.01643e-16 0)
(1.1 5.41528e-17 0)
(1.1 4.88072e-16 0)
(1.1 7.02598e-16 0)
(1.1 3.50249e-16 0)
(1.1 1.45897e-15 0)
(1.1 1.09583e-15 0)
(1.1 9.34561e-16 0)
(1.1 4.92934e-16 0)
(1.1 6.47954e-16 0)
(1.1 3.79061e-16 0)
(1.1 -7.55892e-16 0)
(1.1 -8.5171e-16 0)
(1.1 -7.27957e-16 0)
(1.1 -5.65069e-16 0)
(1.1 2.79286e-16 0)
(1.1 2.09896e-16 0)
(1.1 1.07768e-17 0)
(1.1 -5.39454e-16 0)
(1.1 -1.59968e-15 0)
(1.1 -1.06443e-15 0)
(1.1 1.536e-17 0)
(1.1 1.1482e-16 0)
(1.1 1.12298e-16 0)
(1.1 -4.03185e-16 0)
(1.1 3.18741e-16 0)
(1.1 6.70193e-17 0)
(1.1 -2.2758e-16 0)
(1.1 -5.28623e-16 0)
(1.1 -1.34021e-16 0)
(1.1 -9.24431e-17 0)
(1.1 4.42395e-16 0)
(1.1 7.91158e-16 0)
(1.1 6.03148e-16 0)
(1.1 4.4244e-16 0)
(1.1 -1.83502e-16 0)
(1.1 -1.56387e-16 0)
(1.1 -2.34459e-16 0)
(1.1 -7.64654e-16 0)
(1.1 -5.34536e-16 0)
(1.1 -1.208e-16 0)
(1.1 -2.15114e-16 0)
(1.1 1.79833e-16 0)
(1.1 7.21581e-17 0)
(1.1 1.5667e-16 0)