/*--------------------------------*- C++ -*----------------------------------*\
  =========                 |
  \\      /  F ield         | OpenFOAM: The Open Source CFD Toolbox
   \\    /   O peration     | Website:  https://openfoam.org
    \\  /    A nd           | Version:  7
     \\/     M anipulation  |
\*---------------------------------------------------------------------------*/
FoamFile
{
    version     2.0;
    format      ascii;
    class       volVectorField;
    location    "1.3";
    object      U;
}
// * * * * * * * * * * * * * * * * * * * * * * * * * * * * * * * * * * * * * //

dimensions      [0 1 -1 0 0 0 0];

internalField   nonuniform List<vector> 
325
(
(2.46245 0.322582 0)
(2.34754 0.475322 0)
(1.8334 0.742172 0)
(1.66184 0.931962 0)
(3 7.2812e-07 0)
(3.00387 -0.00416702 0)
(2.92376 0.0673597 0)
(2.80658 0.221636 0)
(1.82147 1.02006 0)
(1.4583 1.18026 0)
(3 8.96069e-08 0)
(3 3.0893e-06 0)
(3 -7.39927e-07 0)
(3.001 -0.000724485 0)
(2.93965 0.109887 0)
(1.89699 0.973334 0)
(3 1.0971e-07 0)
(3 1.09302e-07 0)
(3 1.0069e-07 0)
(3 1.35586e-06 0)
(3 1.7576e-07 0)
(2.74746 0.381129 0)
(3 7.91724e-08 0)
(3 8.1531e-08 0)
(3 1.1098e-07 0)
(3 1.14895e-07 0)
(3 1.75623e-07 0)
(2.99998 1.92513e-05 0)
(3 8.27372e-08 0)
(3 1.09676e-07 0)
(3 1.06612e-07 0)
(3 1.32826e-07 0)
(3 1.45846e-07 0)
(3 2.17736e-07 0)
(3 8.62236e-08 0)
(3 9.89454e-08 0)
(3 1.08174e-07 0)
(3 1.28864e-07 0)
(3 1.38502e-07 0)
(3 2.55089e-07 0)
(3 8.79483e-08 0)
(3 9.45777e-08 0)
(3 1.29781e-07 0)
(3 1.28573e-07 0)
(3 1.90236e-07 0)
(3 2.21858e-07 0)
(3 8.79585e-08 0)
(3 1.14447e-07 0)
(3 1.30781e-07 0)
(3 1.583e-07 0)
(3 2.13533e-07 0)
(3 2.41161e-07 0)
(3 1.17412e-07 0)
(3 1.4473e-07 0)
(3 1.57118e-07 0)
(3 1.99517e-07 0)
(3 2.08205e-07 0)
(3 2.78788e-07 0)
(3 1.38205e-07 0)
(3 1.59399e-07 0)
(3 1.84013e-07 0)
(3 2.17328e-07 0)
(3 2.41626e-07 0)
(3 3.12107e-07 0)
(3 1.35784e-07 0)
(3 1.53956e-07 0)
(3 1.73202e-07 0)
(3 2.03257e-07 0)
(3 2.33532e-07 0)
(3 2.76859e-07 0)
(3 1.41446e-07 0)
(3 1.57184e-07 0)
(3 1.81817e-07 0)
(3 2.05371e-07 0)
(3 2.42491e-07 0)
(3 2.82015e-07 0)
(3 1.32657e-07 0)
(3 1.53002e-07 0)
(3 1.69276e-07 0)
(3 2.0464e-07 0)
(3 2.29564e-07 0)
(3 2.84947e-07 0)
(3 1.42651e-07 0)
(3 1.57008e-07 0)
(3 1.82312e-07 0)
(3 2.0807e-07 0)
(3 2.42363e-07 0)
(3 2.88877e-07 0)
(3 1.4507e-07 0)
(3 1.58546e-07 0)
(3 1.83707e-07 0)
(3 2.10166e-07 0)
(3 2.43454e-07 0)
(3 2.89073e-07 0)
(3 1.48556e-07 0)
(3 1.57923e-07 0)
(3 1.8568e-07 0)
(3 2.06643e-07 0)
(3 2.42977e-07 0)
(3 2.84344e-07 0)
(3 1.50799e-07 0)
(3 1.55783e-07 0)
(3 1.86004e-07 0)
(3 1.98507e-07 0)
(3 2.38329e-07 0)
(3 2.70341e-07 0)
(3 1.42384e-07 0)
(3 1.44899e-07 0)
(3 1.74458e-07 0)
(3 1.80324e-07 0)
(3 2.24946e-07 0)
(3 2.47622e-07 0)
(3 1.37652e-07 0)
(3 1.39952e-07 0)
(3 1.67342e-07 0)
(3 1.72275e-07 0)
(3 2.1308e-07 0)
(3 2.37922e-07 0)
(3 2.88908e-07 0)
(3 -2.05873e-08 0)
(3 -1.59077e-11 0)
(3 1.3227e-08 0)
(3 -2.25259e-11 0)
(3 2.00154e-08 0)
(3 -2.9526e-11 0)
(3 3.82868e-08 0)
(3 -3.58237e-11 0)
(3 3.04846e-08 0)
(3 -4.1491e-11 0)
(3 3.80498e-08 0)
(3 -4.68865e-11 0)
(3 3.80487e-08 0)
(3 -5.20208e-11 0)
(3 4.81972e-08 0)
(3 -5.55642e-11 0)
(3 5.48603e-08 0)
(3 -5.92567e-11 0)
(3 6.55366e-08 0)
(3 -6.28746e-11 0)
(3 7.99941e-08 0)
(3 -6.6359e-11 0)
(3 7.06621e-08 0)
(3 -6.95873e-11 0)
(3 7.7425e-08 0)
(3 -7.23838e-11 0)
(3 7.1217e-08 0)
(3 -7.47787e-11 0)
(3 7.91574e-08 0)
(3 -7.66776e-11 0)
(3 7.90441e-08 0)
(3 -7.82398e-11 0)
(3 8.40074e-08 0)
(3 -7.94011e-11 0)
(3 8.11652e-08 0)
(3 -8.02853e-11 0)
(3 8.3255e-08 0)
(3 1.19104e-07 0)
(3 1.24666e-07 0)
(3 1.4436e-07 0)
(3 1.53674e-07 0)
(3 1.88656e-07 0)
(3 2.11505e-07 0)
(3 9.73674e-08 0)
(3 1.17214e-07 0)
(3 1.16246e-07 0)
(3 1.53883e-07 0)
(3 1.51397e-07 0)
(3 2.16153e-07 0)
(3 2.09777e-07 0)
(3 9.57439e-08 0)
(3 1.10911e-07 0)
(3 1.16714e-07 0)
(3 1.44215e-07 0)
(3 1.53936e-07 0)
(3 1.98273e-07 0)
(3 2.13532e-07 0)
(3 1.0044e-07 0)
(3 1.15116e-07 0)
(3 1.2221e-07 0)
(3 1.50576e-07 0)
(3 1.57058e-07 0)
(3 2.03152e-07 0)
(3 2.07969e-07 0)
(3 9.88055e-08 0)
(3 1.03284e-07 0)
(3 1.21651e-07 0)
(3 1.29486e-07 0)
(3 1.54238e-07 0)
(3 1.71051e-07 0)
(3 2.09865e-07 0)
(3 8.27145e-08 0)
(3 9.76274e-08 0)
(3 1.03037e-07 0)
(3 1.25461e-07 0)
(3 1.42457e-07 0)
(3 1.64836e-07 0)
(3 1.93384e-07 0)
(3 7.07725e-08 0)
(3 7.85458e-08 0)
(3 9.05932e-08 0)
(3 1.06316e-07 0)
(3 1.22839e-07 0)
(3 1.51281e-07 0)
(3 1.76496e-07 0)
(3 6.28064e-08 0)
(3 7.01404e-08 0)
(3 7.7529e-08 0)
(3 9.02604e-08 0)
(3 1.02877e-07 0)
(3 1.2217e-07 0)
(3 1.44665e-07 0)
(3 5.50424e-08 0)
(3 5.92161e-08 0)
(3 6.94133e-08 0)
(3 7.5874e-08 0)
(3 8.97356e-08 0)
(3 1.03651e-07 0)
(3 1.20273e-07 0)
(3 4.03002e-08 0)
(3 4.39736e-08 0)
(3 5.18212e-08 0)
(3 5.79598e-08 0)
(3 7.07726e-08 0)
(3 7.91436e-08 0)
(3 1.00878e-07 0)
(3 3.34837e-08 0)
(3 3.71269e-08 0)
(3 4.19789e-08 0)
(3 4.78741e-08 0)
(3 5.56513e-08 0)
(3 6.58967e-08 0)
(3 7.74541e-08 0)
(3 2.42359e-08 0)
(3 2.62797e-08 0)
(3 3.11945e-08 0)
(3 3.46423e-08 0)
(3 4.22554e-08 0)
(3 4.74571e-08 0)
(3 5.99479e-08 0)
(3 1.9385e-08 0)
(3 2.17685e-08 0)
(3 2.42661e-08 0)
(3 2.83629e-08 0)
(3 3.2472e-08 0)
(3 3.91409e-08 0)
(3 4.55708e-08 0)
(3 1.34994e-08 0)
(3 1.44864e-08 0)
(3 1.72381e-08 0)
(3 1.88058e-08 0)
(3 2.31904e-08 0)
(3 2.57112e-08 0)
(3 3.29445e-08 0)
(3 9.52473e-09 0)
(3 1.04504e-08 0)
(3 1.20211e-08 0)
(3 1.35048e-08 0)
(3 1.61223e-08 0)
(3 1.84253e-08 0)
(3 2.27822e-08 0)
(3 5.96081e-09 0)
(3 6.41884e-09 0)
(3 7.56414e-09 0)
(3 8.25891e-09 0)
(3 1.01427e-08 0)
(3 1.12115e-08 0)
(3 1.44199e-08 0)
(3 3.66824e-09 0)
(3 3.9397e-09 0)
(3 4.66267e-09 0)
(3 5.04358e-09 0)
(3 6.23884e-09 0)
(3 6.78051e-09 0)
(3 8.83884e-09 0)
(3 2.08058e-09 0)
(3 2.22312e-09 0)
(3 2.66122e-09 0)
(3 2.84912e-09 0)
(3 3.57368e-09 0)
(3 3.8243e-09 0)
(3 5.06289e-09 0)
(3 1.04566e-09 0)
(3 1.10977e-09 0)
(3 1.34012e-09 0)
(3 1.41731e-09 0)
(3 1.80695e-09 0)
(3 1.9048e-09 0)
(3 2.55768e-09 0)
(3 3.10007e-10 0)
(3 3.25825e-10 0)
(3 3.98663e-10 0)
(3 4.14148e-10 0)
(3 5.40824e-10 0)
(3 5.59124e-10 0)
(3 7.70244e-10 0)
(3 -8.09961e-11 0)
(3 7.74489e-08 0)
(3 -8.11449e-11 0)
(3 7.72912e-08 0)
(3 -8.04592e-11 0)
(3 6.59904e-08 0)
(3 -7.88541e-11 0)
(3 6.30239e-08 0)
(3 -7.63266e-11 0)
(3 5.2185e-08 0)
(3 -7.30985e-11 0)
(3 5.54596e-08 0)
(3 -6.94059e-11 0)
(3 4.0408e-08 0)
(3 -6.54766e-11 0)
(3 3.63527e-08 0)
(3 -6.1405e-11 0)
(3 2.89002e-08 0)
(3 -5.71907e-11 0)
(3 2.153e-08 0)
(3 1.9741e-08 0)
(3 1.25788e-08 0)
(3 1.17645e-08 0)
(3 7.05956e-09 0)
(3 5.53128e-09 0)
(3 3.23756e-09 0)
(3 2.00089e-09 0)
(3 1.12266e-09 0)
(3 5.68894e-10 0)
(3 1.67378e-10 0)
)
;

boundaryField
{
    inlet
    {
        type            fixedValue;
        value           nonuniform 0();
    }
    outlet
    {
        type            inletOutlet;
        inletValue      nonuniform 0();
        value           nonuniform 0();
    }
    triangle
    {
        type            slip;
    }
    top
    {
        type            symmetryPlane;
    }
    bottom
    {
        type            symmetryPlane;
    }
    defaultFaces
    {
        type            empty;
    }
    procBoundary5to1
    {
        type            processor;
        value           nonuniform List<vector> 6((2.82685 0.0854204 0) (2.71503 0.118618 0) (2.71503 0.118618 0) (3 -3.5494e-08 0) (3 -1.08348e-11 0) (3 -1.08348e-11 0));
    }
    procBoundary5to4
    {
        type            processor;
        value           nonuniform List<vector> 
39
(
(3 3.73015e-14 0)
(3 5.21171e-14 0)
(3 6.74874e-14 0)
(3 8.1683e-14 0)
(3 9.76089e-14 0)
(3 1.06713e-13 0)
(3 1.17683e-13 0)
(3 1.26125e-13 0)
(3 1.38269e-13 0)
(3 1.57114e-13 0)
(3 1.63728e-13 0)
(3 1.82097e-13 0)
(3 1.95928e-13 0)
(3 1.98975e-13 0)
(3 2.06416e-13 0)
(3 2.14813e-13 0)
(3 2.19023e-13 0)
(3 2.21916e-13 0)
(3 2.28834e-13 0)
(3 2.33496e-13 0)
(3 2.34486e-13 0)
(3 2.31802e-13 0)
(3 2.32681e-13 0)
(3 2.28335e-13 0)
(3 2.17291e-13 0)
(3 2.04745e-13 0)
(3 1.93809e-13 0)
(3 1.77495e-13 0)
(3 -5.27547e-11 0)
(3 -5.27547e-11 0)
(3 -4.80524e-11 0)
(3 -4.30675e-11 0)
(3 -3.78256e-11 0)
(3 -3.23534e-11 0)
(3 -2.6736e-11 0)
(3 -2.10182e-11 0)
(3 -1.48164e-11 0)
(3 -8.61351e-12 0)
(3 -3.00691e-12 0)
)
;
    }
    procBoundary5to6
    {
        type            processor;
        value           nonuniform List<vector> 
43
(
(1.71847 1.00131 0)
(1.56892 1.1108 0)
(1.59026 1.02467 0)
(1.5393 0.994447 0)
(2.10316 0.737163 0)
(2.95956 0.0988528 0)
(3 1.62732e-06 0)
(3 3.2738e-07 0)
(3 3.95041e-07 0)
(3 3.25136e-07 0)
(3 3.30231e-07 0)
(3 3.39109e-07 0)
(3 3.48291e-07 0)
(3 3.34583e-07 0)
(3 3.44351e-07 0)
(3 3.43195e-07 0)
(3 3.38248e-07 0)
(3 3.27089e-07 0)
(3 3.1274e-07 0)
(3 3.1274e-07 0)
(3 3.58656e-07 0)
(3 2.60346e-07 0)
(3 2.60346e-07 0)
(3 2.60346e-07 0)
(3 3.29115e-07 0)
(3 2.85777e-07 0)
(3 2.87118e-07 0)
(3 2.4596e-07 0)
(3 2.33406e-07 0)
(3 2.14473e-07 0)
(3 1.81794e-07 0)
(3 1.47808e-07 0)
(3 1.14114e-07 0)
(3 9.44246e-08 0)
(3 6.93679e-08 0)
(3 5.63407e-08 0)
(3 3.75463e-08 0)
(3 2.64675e-08 0)
(3 1.61716e-08 0)
(3 9.63046e-09 0)
(3 5.40344e-09 0)
(3 2.69137e-09 0)
(3 7.99123e-10 0)
)
;
    }
}


// ************************************************************************* //
