/*--------------------------------*- C++ -*----------------------------------*\
  =========                 |
  \\      /  F ield         | OpenFOAM: The Open Source CFD Toolbox
   \\    /   O peration     | Website:  https://openfoam.org
    \\  /    A nd           | Version:  7
     \\/     M anipulation  |
\*---------------------------------------------------------------------------*/
FoamFile
{
    version     2.0;
    format      ascii;
    class       volVectorField;
    location    "0.3";
    object      U;
}
// * * * * * * * * * * * * * * * * * * * * * * * * * * * * * * * * * * * * * //

dimensions      [0 1 -1 0 0 0 0];

internalField   nonuniform List<vector> 
3225
(
(-1.07925 -0.00348044 0)
(-1.11862 0.0384465 0)
(-1.09942 0.0541944 0)
(-1.07651 0.0616718 0)
(-0.0828385 -0.0311257 0)
(-0.0816747 -0.037699 0)
(-0.0809503 -0.0540087 0)
(-0.0688962 -0.0755028 0)
(-0.0576747 -0.0946821 0)
(-0.0387024 -0.100155 0)
(-0.0189032 -0.0741192 0)
(0.00581528 -0.0119663 0)
(0.0271515 0.0630364 0)
(0.0342198 0.102879 0)
(0.0298597 0.104794 0)
(0.0169767 0.0804101 0)
(0.00577181 0.0303618 0)
(-0.00125215 -0.021815 0)
(0.0270489 -0.0619139 0)
(0.040361 -0.0853166 0)
(-0.00101799 -0.109269 0)
(-0.316069 -0.0959589 0)
(-1.08775 -0.0714579 0)
(-1.10923 0.00283046 0)
(-1.0964 0.0448356 0)
(-1.07579 0.0623218 0)
(-0.0791065 -0.0329683 0)
(-0.0817196 -0.0371078 0)
(-0.0865246 -0.0516113 0)
(-0.0809421 -0.0732133 0)
(-0.0750968 -0.0930757 0)
(-0.0630804 -0.100061 0)
(-0.0479174 -0.0789149 0)
(-0.0238811 -0.0178489 0)
(-0.00207938 0.0622526 0)
(0.0159542 0.104407 0)
(0.016292 0.107137 0)
(0.00600913 0.0860184 0)
(-0.0019944 0.0375314 0)
(-0.00581372 -0.023384 0)
(0.0217716 -0.0734558 0)
(0.0240553 -0.0994057 0)
(-0.0530746 -0.0930218 0)
(-0.407521 -0.0701716 0)
(-1.10558 -0.137428 0)
(-1.09106 -0.0582061 0)
(-1.08672 0.00446963 0)
(-1.07098 0.044799 0)
(-0.0747843 -0.0355607 0)
(-0.0805311 -0.0367525 0)
(-0.0901821 -0.0488543 0)
(-0.0927691 -0.0701874 0)
(-0.0905602 -0.0882753 0)
(-0.0842009 -0.0926098 0)
(-0.072358 -0.0797214 0)
(-0.0494306 -0.0237196 0)
(-0.0268385 0.056931 0)
(0.000667374 0.103766 0)
(0.00305638 0.108642 0)
(-0.00485927 0.0904742 0)
(-0.0112818 0.0414539 0)
(-0.0135993 -0.0279539 0)
(0.00766762 -0.0807036 0)
(-0.0101481 -0.104429 0)
(-0.131951 -0.0739022 0)
(-0.518879 -0.0557258 0)
(-1.09953 -0.187793 0)
(-1.07495 -0.112739 0)
(-1.07013 -0.049078 0)
(-1.0589 0.00720105 0)
(-0.0694173 -0.03653 0)
(-0.0777588 -0.0363399 0)
(-0.0921027 -0.0449729 0)
(-0.101913 -0.0642458 0)
(-0.103787 -0.0818344 0)
(-0.103568 -0.0885537 0)
(-0.0949839 -0.0773829 0)
(-0.073998 -0.027499 0)
(-0.0496212 0.054215 0)
(-0.0147022 0.105698 0)
(-0.00975523 0.113616 0)
(-0.0153862 0.0943424 0)
(-0.0228575 0.0405066 0)
(-0.0249189 -0.0345894 0)
(-0.0176674 -0.0842067 0)
(-0.0611065 -0.0967616 0)
(-0.223136 -0.0400226 0)
(-0.633583 -0.0527592 0)
(-1.081 -0.210865 0)
(-1.0616 -0.151291 0)
(-1.05419 -0.0926831 0)
(-1.04422 -0.0345064 0)
(-0.0634477 -0.0349899 0)
(-0.0738566 -0.033554 0)
(-0.0914631 -0.0392482 0)
(-0.107784 -0.0568889 0)
(-0.114731 -0.0728628 0)
(-0.118411 -0.0783204 0)
(-0.115823 -0.0748278 0)
(-0.0970664 -0.0346344 0)
(-0.0677196 0.044932 0)
(-0.0331532 0.105537 0)
(-0.0243218 0.117285 0)
(-0.0272672 0.0972941 0)
(-0.0367217 0.0386873 0)
(-0.0402907 -0.042446 0)
(-0.0593711 -0.0834223 0)
(-0.123104 -0.0679895 0)
(-0.307089 0.00148474 0)
(-0.740591 -0.071466 0)
(-1.06021 -0.221915 0)
(-1.05528 -0.168015 0)
(-1.03796 -0.125715 0)
(-1.0305 -0.0726458 0)
(-0.0571427 -0.0311891 0)
(-0.0690507 -0.0285464 0)
(-0.0884037 -0.0315712 0)
(-0.109813 -0.0480824 0)
(-0.124809 -0.0658141 0)
(-0.131814 -0.0732799 0)
(-0.1341 -0.0710376 0)
(-0.118503 -0.0377591 0)
(-0.086534 0.0370008 0)
(-0.054856 0.106331 0)
(-0.0408472 0.121241 0)
(-0.0418515 0.10196 0)
(-0.0539044 0.0378477 0)
(-0.0668322 -0.0387518 0)
(-0.119072 -0.0755904 0)
(-0.194072 -0.0341847 0)
(-0.385414 0.0201956 0)
(-0.835251 -0.102612 0)
(-1.04942 -0.22683 0)
(-1.04443 -0.180412 0)
(-1.02558 -0.147174 0)
(-1.01998 -0.100319 0)
(-0.0506182 -0.0261337 0)
(-0.0639982 -0.0215016 0)
(-0.0846408 -0.0224529 0)
(-0.110428 -0.0388862 0)
(-0.132776 -0.060416 0)
(-0.143822 -0.0715708 0)
(-0.148443 -0.0684238 0)
(-0.136614 -0.0416552 0)
(-0.105628 0.0282819 0)
(-0.0774468 0.102494 0)
(-0.0595792 0.126811 0)
(-0.0607365 0.109431 0)
(-0.077957 0.0438193 0)
(-0.107826 -0.0282764 0)
(-0.18891 -0.0445431 0)
(-0.2638 0.0094157 0)
(-0.450965 0.0290659 0)
(-0.914944 -0.140904 0)
(-1.03999 -0.233195 0)
(-1.03287 -0.187891 0)
(-1.01842 -0.157938 0)
(-1.00741 -0.12067 0)
(-0.0445443 -0.0206744 0)
(-0.0599063 -0.0136366 0)
(-0.081261 -0.0126924 0)
(-0.110417 -0.0294122 0)
(-0.138994 -0.0552729 0)
(-0.154329 -0.072211 0)
(-0.159543 -0.0707017 0)
(-0.1519 -0.0441064 0)
(-0.12467 0.023433 0)
(-0.101696 0.0998755 0)
(-0.0819844 0.128305 0)
(-0.0854389 0.112843 0)
(-0.110881 0.0476424 0)
(-0.16229 -0.00353595 0)
(-0.261528 -0.00618439 0)
(-0.332377 0.0391101 0)
(-0.514653 0.0211328 0)
(-0.976433 -0.183187 0)
(-1.03166 -0.238874 0)
(-1.0212 -0.192142 0)
(-1.01252 -0.164173 0)
(-0.996056 -0.132218 0)
(-0.0391327 -0.0170419 0)
(-0.0570536 -0.00692909 0)
(-0.0797136 -0.00356565 0)
(-0.112146 -0.0196098 0)
(-0.143332 -0.0482066 0)
(-0.16287 -0.0704325 0)
(-0.168294 -0.0751912 0)
(-0.162231 -0.0511626 0)
(-0.143441 0.0163942 0)
(-0.128694 0.0953169 0)
(-0.109385 0.126198 0)
(-0.116382 0.109022 0)
(-0.156154 0.0618586 0)
(-0.231103 0.0157801 0)
(-0.332025 0.025932 0)
(-0.389698 0.0673574 0)
(-0.586887 0.00722977 0)
(-1.01467 -0.220779 0)
(-1.02544 -0.240941 0)
(-1.01145 -0.196339 0)
(-1.00532 -0.168484 0)
(-0.987426 -0.137828 0)
(-0.0347158 -0.0155805 0)
(-0.0546445 -0.00195819 0)
(-0.0785816 0.00463073 0)
(-0.112123 -0.00865228 0)
(-0.147004 -0.0383002 0)
(-0.169725 -0.0646596 0)
(-0.176724 -0.0730625 0)
(-0.175884 -0.0558162 0)
(-0.165429 0.0107301 0)
(-0.161205 0.0905117 0)
(-0.144785 0.123003 0)
(-0.158783 0.10981 0)
(-0.217355 0.0692803 0)
(-0.300839 0.052191 0)
(-0.383732 0.0637652 0)
(-0.444971 0.0751293 0)
(-0.669711 -0.0166256 0)
(-1.02896 -0.246751 0)
(-1.01925 -0.235154 0)
(-1.00425 -0.202787 0)
(-0.99734 -0.172656 0)
(-0.981057 -0.139764 0)
(-0.0313649 -0.013762 0)
(-0.0534318 0.00301247 0)
(-0.0786824 0.012897 0)
(-0.111714 0.00362751 0)
(-0.148656 -0.024666 0)
(-0.175185 -0.0553654 0)
(-0.186168 -0.0681812 0)
(-0.196278 -0.053043 0)
(-0.195377 0.00857815 0)
(-0.202785 0.0899354 0)
(-0.190713 0.126605 0)
(-0.216844 0.112462 0)
(-0.286468 0.100598 0)
(-0.371876 0.0842698 0)
(-0.427081 0.0884668 0)
(-0.491056 0.0806496 0)
(-0.758928 -0.0455671 0)
(-1.02694 -0.253613 0)
(-1.01337 -0.229893 0)
(-0.998244 -0.208987 0)
(-0.989412 -0.178482 0)
(-0.974252 -0.143588 0)
(-0.0287686 -0.010125 0)
(-0.0523885 0.00972973 0)
(-0.079218 0.0226026 0)
(-0.111764 0.0167648 0)
(-0.146932 -0.00914405 0)
(-0.175989 -0.0409952 0)
(-0.197766 -0.0575873 0)
(-0.225104 -0.0427012 0)
(-0.239107 0.0150647 0)
(-0.257243 0.09302 0)
(-0.249229 0.135193 0)
(-0.289696 0.139231 0)
(-0.363013 0.130834 0)
(-0.436071 0.112483 0)
(-0.457957 0.115985 0)
(-0.525539 0.0806255 0)
(-0.843424 -0.0802876 0)
(-1.02007 -0.247843 0)
(-1.00657 -0.223949 0)
(-0.992571 -0.211378 0)
(-0.980074 -0.185446 0)
(-0.965749 -0.151243 0)
(-0.0278628 -0.00396458 0)
(-0.0526091 0.0195261 0)
(-0.0815154 0.0346835 0)
(-0.11411 0.030699 0)
(-0.147812 0.00659807 0)
(-0.178818 -0.0238015 0)
(-0.214698 -0.0387135 0)
(-0.263411 -0.024403 0)
(-0.299063 0.0272547 0)
(-0.327095 0.100517 0)
(-0.324821 0.151124 0)
(-0.377351 0.16572 0)
(-0.432893 0.166698 0)
(-0.488017 0.138346 0)
(-0.491231 0.122375 0)
(-0.552658 0.0762033 0)
(-0.916658 -0.117233 0)
(-1.01667 -0.23877 0)
(-1.00081 -0.217691 0)
(-0.986682 -0.209403 0)
(-0.971595 -0.190046 0)
(-0.955018 -0.161409 0)
(-0.0280952 0.00489506 0)
(-0.0539601 0.0323954 0)
(-0.0853842 0.0490543 0)
(-0.118606 0.045006 0)
(-0.151961 0.0212556 0)
(-0.18741 -0.00620894 0)
(-0.24044 -0.0142657 0)
(-0.310841 0.00453031 0)
(-0.369781 0.0522662 0)
(-0.409783 0.120446 0)
(-0.418437 0.174305 0)
(-0.465745 0.194573 0)
(-0.494604 0.189471 0)
(-0.525217 0.157022 0)
(-0.516883 0.13343 0)
(-0.588726 0.068204 0)
(-0.969653 -0.153235 0)
(-1.01193 -0.231776 0)
(-0.998124 -0.212063 0)
(-0.981517 -0.203641 0)
(-0.96423 -0.189047 0)
(-0.946198 -0.170123 0)
(-0.0309194 0.0153541 0)
(-0.0573494 0.0470888 0)
(-0.0906686 0.0649109 0)
(-0.124131 0.0598174 0)
(-0.158494 0.0354988 0)
(-0.202407 0.0118568 0)
(-0.275387 0.0136305 0)
(-0.365684 0.0399118 0)
(-0.44696 0.081378 0)
(-0.500752 0.140273 0)
(-0.52021 0.192527 0)
(-0.545866 0.215796 0)
(-0.538819 0.218865 0)
(-0.545031 0.179138 0)
(-0.534236 0.144371 0)
(-0.65039 0.0519515 0)
(-1.0033 -0.185057 0)
(-1.00916 -0.221759 0)
(-0.995957 -0.207079 0)
(-0.97939 -0.196489 0)
(-0.960488 -0.183483 0)
(-0.939867 -0.172605 0)
(-0.0361267 0.0263749 0)
(-0.0629346 0.0623036 0)
(-0.0980388 0.0811634 0)
(-0.131848 0.0748815 0)
(-0.168346 0.0502014 0)
(-0.223509 0.0315356 0)
(-0.315864 0.0462443 0)
(-0.423807 0.0792554 0)
(-0.521591 0.117843 0)
(-0.582861 0.174206 0)
(-0.60275 0.223928 0)
(-0.600993 0.238207 0)
(-0.576402 0.224544 0)
(-0.55178 0.196537 0)
(-0.549792 0.150502 0)
(-0.725253 0.0270668 0)
(-1.01898 -0.19878 0)
(-1.00693 -0.209146 0)
(-0.99312 -0.194958 0)
(-0.977651 -0.185824 0)
(-0.958959 -0.175334 0)
(-0.937296 -0.165814 0)
(-0.043578 0.0369678 0)
(-0.0702538 0.0771303 0)
(-0.105524 0.0979649 0)
(-0.140631 0.0911422 0)
(-0.181883 0.0672897 0)
(-0.251416 0.055917 0)
(-0.361086 0.0827193 0)
(-0.481589 0.121245 0)
(-0.587758 0.152072 0)
(-0.646938 0.198307 0)
(-0.657242 0.237074 0)
(-0.635986 0.241679 0)
(-0.601913 0.232846 0)
(-0.562563 0.204951 0)
(-0.5637 0.146401 0)
(-0.8077 -0.00582076 0)
(-1.01923 -0.202223 0)
(-1.00441 -0.194057 0)
(-0.988485 -0.185729 0)
(-0.974504 -0.173439 0)
(-0.955756 -0.164306 0)
(-0.934103 -0.157571 0)
(-0.0521861 0.0468112 0)
(-0.0789642 0.0904932 0)
(-0.114811 0.113751 0)
(-0.151912 0.108501 0)
(-0.199699 0.0893434 0)
(-0.282754 0.0896999 0)
(-0.405508 0.123282 0)
(-0.53246 0.158239 0)
(-0.632144 0.185286 0)
(-0.678251 0.225147 0)
(-0.680145 0.24916 0)
(-0.654428 0.250493 0)
(-0.620534 0.239196 0)
(-0.569454 0.210292 0)
(-0.579917 0.140396 0)
(-0.880895 -0.0420983 0)
(-1.01448 -0.191747 0)
(-0.996638 -0.183164 0)
(-0.979561 -0.180394 0)
(-0.964848 -0.17022 0)
(-0.948194 -0.156959 0)
(-0.926383 -0.144757 0)
(-0.061848 0.0552593 0)
(-0.087798 0.102796 0)
(-0.123999 0.129473 0)
(-0.165917 0.127578 0)
(-0.223957 0.116959 0)
(-0.317832 0.129561 0)
(-0.436758 0.171786 0)
(-0.550614 0.204658 0)
(-0.638614 0.22095 0)
(-0.681221 0.248173 0)
(-0.686416 0.26437 0)
(-0.670804 0.26166 0)
(-0.635315 0.242535 0)
(-0.575011 0.210401 0)
(-0.607353 0.129936 0)
(-0.929676 -0.075097 0)
(-1.00159 -0.177693 0)
(-0.982898 -0.171235 0)
(-0.963861 -0.172678 0)
(-0.94466 -0.170288 0)
(-0.925974 -0.159687 0)
(-0.90279 -0.144096 0)
(-0.0718815 0.0639607 0)
(-0.0976217 0.113512 0)
(-0.134682 0.144095 0)
(-0.182456 0.149066 0)
(-0.251046 0.151189 0)
(-0.355413 0.173863 0)
(-0.474576 0.212104 0)
(-0.576389 0.23782 0)
(-0.647057 0.248685 0)
(-0.6832 0.267684 0)
(-0.694058 0.280456 0)
(-0.684185 0.275982 0)
(-0.648244 0.251572 0)
(-0.575359 0.215704 0)
(-0.640085 0.116296 0)
(-0.946904 -0.0994795 0)
(-0.976954 -0.158921 0)
(-0.955093 -0.154647 0)
(-0.931783 -0.160858 0)
(-0.905121 -0.163557 0)
(-0.877697 -0.157807 0)
(-0.848435 -0.145427 0)
(-0.0830661 0.0729616 0)
(-0.107115 0.124908 0)
(-0.145575 0.159482 0)
(-0.202208 0.172467 0)
(-0.278677 0.190064 0)
(-0.380711 0.224667 0)
(-0.488345 0.259606 0)
(-0.58385 0.272165 0)
(-0.64856 0.276504 0)
(-0.68596 0.290838 0)
(-0.699825 0.301795 0)
(-0.69357 0.296044 0)
(-0.652385 0.268989 0)
(-0.571628 0.220416 0)
(-0.661799 0.0948025 0)
(-0.928456 -0.111893 0)
(-0.931349 -0.138858 0)
(-0.901426 -0.134987 0)
(-0.869585 -0.142031 0)
(-0.832252 -0.148502 0)
(-0.788695 -0.151502 0)
(-0.743807 -0.147167 0)
(-0.095822 0.0826934 0)
(-0.119633 0.135255 0)
(-0.159964 0.174336 0)
(-0.223672 0.19805 0)
(-0.309512 0.228416 0)
(-0.412277 0.267789 0)
(-0.510752 0.297585 0)
(-0.591481 0.305033 0)
(-0.647363 0.306015 0)
(-0.68625 0.317972 0)
(-0.701974 0.328121 0)
(-0.697783 0.323603 0)
(-0.644789 0.288383 0)
(-0.558551 0.218079 0)
(-0.656238 0.0578731 0)
(-0.86455 -0.130647 0)
(-0.849048 -0.130233 0)
(-0.807035 -0.128485 0)
(-0.760413 -0.133051 0)
(-0.707038 -0.139036 0)
(-0.643895 -0.148758 0)
(-0.575253 -0.155531 0)
(-0.111001 0.0941147 0)
(-0.133215 0.148608 0)
(-0.176417 0.191582 0)
(-0.245443 0.225427 0)
(-0.337036 0.266415 0)
(-0.435105 0.309734 0)
(-0.52538 0.334547 0)
(-0.59593 0.33866 0)
(-0.645421 0.33969 0)
(-0.685844 0.351733 0)
(-0.703116 0.359593 0)
(-0.6936 0.351835 0)
(-0.624532 0.30112 0)
(-0.527338 0.200746 0)
(-0.605141 0.00664939 0)
(-0.755008 -0.143733 0)
(-0.725255 -0.130827 0)
(-0.666078 -0.135071 0)
(-0.600698 -0.140708 0)
(-0.528406 -0.143522 0)
(-0.446968 -0.154302 0)
(-0.355672 -0.162482 0)
(-0.130942 0.106734 0)
(-0.153483 0.162292 0)
(-0.198769 0.209828 0)
(-0.269217 0.25326 0)
(-0.362575 0.300685 0)
(-0.456524 0.343864 0)
(-0.537913 0.366994 0)
(-0.595892 0.37241 0)
(-0.641653 0.374962 0)
(-0.682558 0.384146 0)
(-0.702079 0.389899 0)
(-0.679909 0.371191 0)
(-0.586789 0.304788 0)
(-0.469434 0.164856 0)
(-0.497734 -0.0578252 0)
(-0.603937 -0.16627 0)
(-0.566293 -0.137611 0)
(-0.490852 -0.14573 0)
(-0.406305 -0.153236 0)
(-0.315996 -0.164265 0)
(-0.218075 -0.172922 0)
(-0.110048 -0.190304 0)
(-0.155809 0.123088 0)
(-0.178431 0.180997 0)
(-0.226079 0.231083 0)
(-0.296513 0.279427 0)
(-0.38534 0.33075 0)
(-0.468271 0.374661 0)
(-0.540004 0.395782 0)
(-0.593848 0.404603 0)
(-0.638415 0.409799 0)
(-0.680565 0.420143 0)
(-0.696626 0.416606 0)
(-0.65513 0.378581 0)
(-0.526331 0.298389 0)
(-0.375836 0.124156 0)
(-0.343317 -0.112874 0)
(-0.415528 -0.196659 0)
(-0.381884 -0.157705 0)
(-0.300242 -0.155388 0)
(-0.204689 -0.167556 0)
(-0.100059 -0.179806 0)
(0.00847213 -0.189838 0)
(0.125292 -0.202702 0)
(-0.188724 0.140579 0)
(-0.210528 0.201573 0)
(-0.258734 0.254861 0)
(-0.323618 0.305737 0)
(-0.402877 0.357001 0)
(-0.47918 0.397546 0)
(-0.539153 0.420921 0)
(-0.590276 0.432454 0)
(-0.63619 0.441537 0)
(-0.675715 0.448011 0)
(-0.680829 0.435163 0)
(-0.612646 0.387187 0)
(-0.440979 0.294827 0)
(-0.254169 0.0928923 0)
(-0.176762 -0.149387 0)
(-0.215846 -0.231306 0)
(-0.18687 -0.194626 0)
(-0.107463 -0.185137 0)
(-0.0116323 -0.18436 0)
(0.097486 -0.19612 0)
(0.212315 -0.207594 0)
(0.330492 -0.21801 0)
(-0.227722 0.161994 0)
(-0.249793 0.225939 0)
(-0.296677 0.279815 0)
(-0.350974 0.331059 0)
(-0.416252 0.378556 0)
(-0.48037 0.414014 0)
(-0.534866 0.437525 0)
(-0.584849 0.45416 0)
(-0.632572 0.467672 0)
(-0.665473 0.474891 0)
(-0.648666 0.455954 0)
(-0.550016 0.394857 0)
(-0.336981 0.292584 0)
(-0.120284 0.0788014 0)
(-0.0228727 -0.15323 0)
(-0.0329615 -0.239837 0)
(-0.00338955 -0.237335 0)
(0.0713697 -0.225186 0)
(0.163279 -0.228312 0)
(0.273455 -0.240495 0)
(0.394611 -0.25674 0)
(0.520072 -0.263115 0)
(-0.272933 0.184016 0)
(-0.296425 0.249742 0)
(-0.33679 0.30618 0)
(-0.377841 0.354356 0)
(-0.428958 0.394475 0)
(-0.478218 0.42509 0)
(-0.528269 0.451075 0)
(-0.577393 0.471215 0)
(-0.625847 0.487839 0)
(-0.645193 0.496108 0)
(-0.60121 0.471341 0)
(-0.467792 0.405296 0)
(-0.222493 0.28928 0)
(0.0102351 0.0733709 0)
(0.106753 -0.139957 0)
(0.116047 -0.232351 0)
(0.153219 -0.256306 0)
(0.21969 -0.266806 0)
(0.312142 -0.272576 0)
(0.425609 -0.29119 0)
(0.558772 -0.316949 0)
(0.698656 -0.342043 0)
(-0.319532 0.208936 0)
(-0.344494 0.276073 0)
(-0.375997 0.333297 0)
(-0.400134 0.376823 0)
(-0.438226 0.405003 0)
(-0.471362 0.4316 0)
(-0.516551 0.457513 0)
(-0.566065 0.481554 0)
(-0.611313 0.505519 0)
(-0.611276 0.518655 0)
(-0.537321 0.493067 0)
(-0.370467 0.415047 0)
(-0.106923 0.27759 0)
(0.12879 0.0639879 0)
(0.214745 -0.13091 0)
(0.237876 -0.216892 0)
(0.283009 -0.248056 0)
(0.353073 -0.267097 0)
(0.449766 -0.290275 0)
(0.572293 -0.316853 0)
(0.716723 -0.353629 0)
(0.872099 -0.388257 0)
(-0.363362 0.233937 0)
(-0.389835 0.300519 0)
(-0.41214 0.354252 0)
(-0.419996 0.392512 0)
(-0.441539 0.414575 0)
(-0.462376 0.437082 0)
(-0.501936 0.467271 0)
(-0.551542 0.497271 0)
(-0.583962 0.526702 0)
(-0.562495 0.536906 0)
(-0.461481 0.498226 0)
(-0.265286 0.40845 0)
(0.00222366 0.24903 0)
(0.224495 0.0299287 0)
(0.307741 -0.150503 0)
(0.347559 -0.230832 0)
(0.404156 -0.270852 0)
(0.483794 -0.297984 0)
(0.595418 -0.316671 0)
(0.729678 -0.343642 0)
(0.883612 -0.371224 0)
(1.04665 -0.403754 0)
(-0.399867 0.259163 0)
(-0.426067 0.325601 0)
(-0.438669 0.377076 0)
(-0.429686 0.410807 0)
(-0.439134 0.429046 0)
(-0.452803 0.450153 0)
(-0.484143 0.480367 0)
(-0.528481 0.520303 0)
(-0.543107 0.552032 0)
(-0.498376 0.550609 0)
(-0.375592 0.489203 0)
(-0.157499 0.38043 0)
(0.0985281 0.197812 0)
(0.302662 -0.000241472 0)
(0.389105 -0.155203 0)
(0.452121 -0.242658 0)
(0.531804 -0.302578 0)
(0.636603 -0.349608 0)
(0.769861 -0.384334 0)
(0.92474 -0.406006 0)
(1.08121 -0.42509 0)
(1.2251 -0.438232 0)
(-0.427902 0.280005 0)
(-0.444867 0.351174 0)
(-0.445884 0.403689 0)
(-0.431836 0.436022 0)
(-0.435543 0.452151 0)
(-0.44042 0.474111 0)
(-0.466465 0.511494 0)
(-0.496211 0.552141 0)
(-0.49167 0.572171 0)
(-0.420534 0.553232 0)
(-0.280855 0.460779 0)
(-0.053023 0.331304 0)
(0.191054 0.167728 0)
(0.372288 -0.000378334 0)
(0.464661 -0.144332 0)
(0.551701 -0.241596 0)
(0.661361 -0.323836 0)
(0.805707 -0.397661 0)
(0.97142 -0.455338 0)
(1.13743 -0.497246 0)
(1.28429 -0.512488 0)
(1.39251 -0.503713 0)
(-0.434432 0.299451 0)
(-0.449793 0.371113 0)
(-0.447003 0.424524 0)
(-0.432156 0.459705 0)
(-0.427648 0.48157 0)
(-0.426914 0.507183 0)
(-0.443351 0.545094 0)
(-0.455611 0.581114 0)
(-0.430383 0.585889 0)
(-0.332614 0.539916 0)
(-0.183821 0.414464 0)
(0.0526574 0.298049 0)
(0.274316 0.156029 0)
(0.438314 0.0168576 0)
(0.540219 -0.109817 0)
(0.65313 -0.210165 0)
(0.798773 -0.310082 0)
(0.984052 -0.410889 0)
(1.17496 -0.491711 0)
(1.33725 -0.544062 0)
(1.45137 -0.567302 0)
(1.51328 -0.553579 0)
(-0.426668 0.308021 0)
(-0.441785 0.380044 0)
(-0.440653 0.43958 0)
(-0.428452 0.480933 0)
(-0.415678 0.509897 0)
(-0.411129 0.54302 0)
(-0.414618 0.583086 0)
(-0.407935 0.603367 0)
(-0.3618 0.583278 0)
(-0.240573 0.510719 0)
(-0.0742591 0.380125 0)
(0.148707 0.268669 0)
(0.352688 0.163158 0)
(0.501856 0.0393605 0)
(0.619129 -0.0904692 0)
(0.759836 -0.205086 0)
(0.943576 -0.319354 0)
(1.16095 -0.434479 0)
(1.36213 -0.520643 0)
(1.49787 -0.570708 0)
(1.56598 -0.591214 0)
(1.58531 -0.579746 0)
(-0.416287 0.311217 0)
(-0.430507 0.385873 0)
(-0.428757 0.443621 0)
(-0.41956 0.492569 0)
(-0.402216 0.529024 0)
(-0.392729 0.567551 0)
(-0.382341 0.602125 0)
(-0.351842 0.61326 0)
(-0.283702 0.568491 0)
(-0.144056 0.472124 0)
(0.034243 0.339405 0)
(0.239986 0.244226 0)
(0.424305 0.147207 0)
(0.565774 0.0224393 0)
(0.70096 -0.121393 0)
(0.877607 -0.258451 0)
(1.10438 -0.386078 0)
(1.34128 -0.496873 0)
(1.52634 -0.566523 0)
(1.61492 -0.594292 0)
(1.63361 -0.601651 0)
(1.62344 -0.590247 0)
(-0.400203 0.308828 0)
(-0.414987 0.381836 0)
(-0.413759 0.44879 0)
(-0.405447 0.498221 0)
(-0.386328 0.542916 0)
(-0.370188 0.584004 0)
(-0.342697 0.615399 0)
(-0.29465 0.601493 0)
(-0.199906 0.540078 0)
(-0.0421703 0.434368 0)
(0.14146 0.306903 0)
(0.320596 0.199922 0)
(0.48818 0.108963 0)
(0.627045 -0.0176757 0)
(0.788791 -0.164381 0)
(1.01183 -0.320223 0)
(1.26941 -0.465203 0)
(1.49605 -0.56765 0)
(1.64317 -0.612719 0)
(1.68584 -0.613424 0)
(1.66721 -0.610709 0)
(1.63699 -0.600259 0)
(-0.382693 0.305296 0)
(-0.395192 0.369576 0)
(-0.395155 0.437684 0)
(-0.385113 0.495936 0)
(-0.366682 0.539816 0)
(-0.343716 0.580698 0)
(-0.301848 0.602744 0)
(-0.22847 0.580807 0)
(-0.110911 0.503255 0)
(0.0567072 0.385317 0)
(0.231002 0.254333 0)
(0.39691 0.160144 0)
(0.55022 0.066466 0)
(0.699522 -0.0631352 0)
(0.89506 -0.2061 0)
(1.1564 -0.369909 0)
(1.42223 -0.520138 0)
(1.61346 -0.613303 0)
(1.71544 -0.634494 0)
(1.71864 -0.61316 0)
(1.67983 -0.604377 0)
(1.64207 -0.595205 0)
(-0.365463 0.30266 0)
(-0.375352 0.35524 0)
(-0.374828 0.415118 0)
(-0.364178 0.47466 0)
(-0.341536 0.525274 0)
(-0.309691 0.564893 0)
(-0.251675 0.578823 0)
(-0.160747 0.537992 0)
(-0.0201261 0.451297 0)
(0.156995 0.322604 0)
(0.316397 0.189777 0)
(0.464532 0.0994546 0)
(0.611911 0.01271 0)
(0.790232 -0.110538 0)
(1.01864 -0.251645 0)
(1.29563 -0.414215 0)
(1.54696 -0.562744 0)
(1.6993 -0.642059 0)
(1.75563 -0.638625 0)
(1.72725 -0.610507 0)
(1.68332 -0.600141 0)
(1.64305 -0.592074 0)
(-0.346631 0.302052 0)
(-0.353677 0.345982 0)
(-0.349964 0.395881 0)
(-0.338351 0.445658 0)
(-0.313133 0.492021 0)
(-0.269046 0.528278 0)
(-0.193443 0.531148 0)
(-0.0800338 0.478077 0)
(0.0746328 0.368247 0)
(0.250091 0.22848 0)
(0.392583 0.105116 0)
(0.532007 0.0395298 0)
(0.690036 -0.0404674 0)
(0.902922 -0.17566 0)
(1.1594 -0.330779 0)
(1.4221 -0.478241 0)
(1.63552 -0.605084 0)
(1.7544 -0.658293 0)
(1.77425 -0.639871 0)
(1.72658 -0.614125 0)
(1.68624 -0.60074 0)
(1.64437 -0.590442 0)
(-0.324278 0.300783 0)
(-0.32943 0.336938 0)
(-0.324418 0.37929 0)
(-0.309282 0.422042 0)
(-0.277115 0.456376 0)
(-0.222033 0.475834 0)
(-0.129611 0.464404 0)
(-0.00456536 0.391847 0)
(0.159804 0.274387 0)
(0.328166 0.146775 0)
(0.463616 0.042848 0)
(0.600538 -0.024521 0)
(0.7853 -0.117617 0)
(1.04392 -0.267754 0)
(1.31567 -0.429837 0)
(1.52764 -0.558401 0)
(1.69194 -0.652367 0)
(1.77402 -0.661066 0)
(1.77692 -0.633097 0)
(1.72838 -0.615982 0)
(1.69062 -0.604571 0)
(1.6458 -0.589447 0)
(-0.297507 0.300587 0)
(-0.300888 0.331604 0)
(-0.292671 0.369086 0)
(-0.273971 0.406345 0)
(-0.231287 0.434321 0)
(-0.160458 0.439836 0)
(-0.0555214 0.410475 0)
(0.0815024 0.331779 0)
(0.247352 0.225548 0)
(0.400527 0.117514 0)
(0.526487 0.00568542 0)
(0.680775 -0.0739739 0)
(0.909666 -0.190681 0)
(1.20815 -0.361134 0)
(1.46678 -0.525074 0)
(1.61702 -0.63562 0)
(1.72296 -0.672048 0)
(1.76844 -0.646924 0)
(1.76599 -0.62443 0)
(1.72766 -0.617093 0)
(1.69376 -0.608678 0)
(1.65077 -0.589593 0)
(-0.26542 0.29837 0)
(-0.267344 0.323594 0)
(-0.25499 0.3548 0)
(-0.229428 0.390713 0)
(-0.177504 0.410566 0)
(-0.0935044 0.405503 0)
(0.024584 0.370868 0)
(0.164684 0.291206 0)
(0.321805 0.207045 0)
(0.457363 0.0968019 0)
(0.593884 -0.013258 0)
(0.784672 -0.0983116 0)
(1.05698 -0.251513 0)
(1.37644 -0.429084 0)
(1.58854 -0.587356 0)
(1.68983 -0.66659 0)
(1.74586 -0.668307 0)
(1.75997 -0.625262 0)
(1.7544 -0.612637 0)
(1.72147 -0.6159 0)
(1.69119 -0.610392 0)
(1.65595 -0.594067 0)
(-0.227244 0.296588 0)
(-0.22601 0.318636 0)
(-0.20832 0.343255 0)
(-0.173588 0.369303 0)
(-0.112332 0.382647 0)
(-0.0186756 0.374237 0)
(0.104069 0.334604 0)
(0.242722 0.264543 0)
(0.383153 0.177808 0)
(0.515541 0.0649039 0)
(0.680668 -0.0339612 0)
(0.911356 -0.13738 0)
(1.21911 -0.301841 0)
(1.52109 -0.474114 0)
(1.66757 -0.614639 0)
(1.73303 -0.677968 0)
(1.7599 -0.657155 0)
(1.75689 -0.604986 0)
(1.74695 -0.59472 0)
(1.7167 -0.609747 0)
(1.68498 -0.610104 0)
(1.65673 -0.598833 0)
(-0.184458 0.289396 0)
(-0.179348 0.305488 0)
(-0.155166 0.322059 0)
(-0.109782 0.340111 0)
(-0.039907 0.345893 0)
(0.0558709 0.329211 0)
(0.177161 0.288745 0)
(0.307889 0.220547 0)
(0.446006 0.137196 0)
(0.596843 0.0279638 0)
(0.800024 -0.0713884 0)
(1.06995 -0.210049 0)
(1.39086 -0.374122 0)
(1.63632 -0.510576 0)
(1.71425 -0.613502 0)
(1.75263 -0.659925 0)
(1.76156 -0.641085 0)
(1.75882 -0.587557 0)
(1.74158 -0.578204 0)
(1.71463 -0.592597 0)
(1.68084 -0.605211 0)
(1.65335 -0.597845 0)
(-0.136237 0.284984 0)
(-0.125376 0.297005 0)
(-0.0955067 0.306041 0)
(-0.042188 0.310704 0)
(0.0328866 0.302948 0)
(0.132306 0.28463 0)
(0.248374 0.239599 0)
(0.376285 0.173358 0)
(0.522091 0.0835583 0)
(0.70976 -0.0329213 0)
(0.955982 -0.153169 0)
(1.25669 -0.311908 0)
(1.56141 -0.444699 0)
(1.71496 -0.532874 0)
(1.74106 -0.60208 0)
(1.75516 -0.633311 0)
(1.75247 -0.617559 0)
(1.7582 -0.577921 0)
(1.73942 -0.562924 0)
(1.71342 -0.571323 0)
(1.67943 -0.592403 0)
(1.6506 -0.59434 0)
(-0.0894537 0.271508 0)
(-0.0715978 0.282851 0)
(-0.0353252 0.289888 0)
(0.0235744 0.288934 0)
(0.102381 0.269044 0)
(0.199172 0.23648 0)
(0.314286 0.186563 0)
(0.450572 0.118187 0)
(0.624801 0.0252487 0)
(0.859936 -0.0957976 0)
(1.14561 -0.233447 0)
(1.43748 -0.400153 0)
(1.68689 -0.484592 0)
(1.75921 -0.543531 0)
(1.75995 -0.582987 0)
(1.75038 -0.59006 0)
(1.74059 -0.578747 0)
(1.74915 -0.564231 0)
(1.7382 -0.556581 0)
(1.71679 -0.556146 0)
(1.68388 -0.577554 0)
(1.64673 -0.587417 0)
(-0.0462443 0.273553 0)
(-0.0184291 0.272579 0)
(0.0228852 0.274392 0)
(0.0844822 0.268984 0)
(0.16731 0.245242 0)
(0.271411 0.212799 0)
(0.39591 0.155678 0)
(0.557189 0.0842258 0)
(0.775243 -0.0209909 0)
(1.05168 -0.149685 0)
(1.33096 -0.314442 0)
(1.5994 -0.432638 0)
(1.75715 -0.496345 0)
(1.77748 -0.526128 0)
(1.76582 -0.560625 0)
(1.74839 -0.560837 0)
(1.73429 -0.543144 0)
(1.74012 -0.543446 0)
(1.73509 -0.548018 0)
(1.72061 -0.546825 0)
(1.68541 -0.565016 0)
(1.63865 -0.579423 0)
(-0.00975838 0.268829 0)
(0.0282784 0.262313 0)
(0.0784386 0.255188 0)
(0.144925 0.243169 0)
(0.234912 0.217112 0)
(0.350665 0.173622 0)
(0.50172 0.110537 0)
(0.70242 0.0247112 0)
(0.968669 -0.0920161 0)
(1.25473 -0.2289 0)
(1.5036 -0.359946 0)
(1.71163 -0.441064 0)
(1.78592 -0.483882 0)
(1.78409 -0.509018 0)
(1.76324 -0.53566 0)
(1.74573 -0.529668 0)
(1.73483 -0.510088 0)
(1.73645 -0.520407 0)
(1.72898 -0.535967 0)
(1.7198 -0.538001 0)
(1.68885 -0.553884 0)
(1.63902 -0.569522 0)
(0.0251521 0.26899 0)
(0.0713383 0.254951 0)
(0.133067 0.236806 0)
(0.214491 0.2157 0)
(0.32192 0.183442 0)
(0.465388 0.134006 0)
(0.655266 0.0584722 0)
(0.902896 -0.0448082 0)
(1.19357 -0.17046 0)
(1.44796 -0.299541 0)
(1.63415 -0.392696 0)
(1.76952 -0.432046 0)
(1.79002 -0.466346 0)
(1.77798 -0.486937 0)
(1.75801 -0.505927 0)
(1.74295 -0.500154 0)
(1.73822 -0.489019 0)
(1.73585 -0.498626 0)
(1.72139 -0.521055 0)
(1.71385 -0.527586 0)
(1.68914 -0.544734 0)
(1.64298 -0.558073 0)
(0.0605336 0.25327 0)
(0.120221 0.239049 0)
(0.198646 0.214716 0)
(0.302943 0.181494 0)
(0.441234 0.136267 0)
(0.623546 0.0718571 0)
(0.854888 -0.0181188 0)
(1.13313 -0.133061 0)
(1.40458 -0.248876 0)
(1.58959 -0.352309 0)
(1.71843 -0.395683 0)
(1.78466 -0.416965 0)
(1.78228 -0.442427 0)
(1.76464 -0.46257 0)
(1.75208 -0.474329 0)
(1.74018 -0.470387 0)
(1.73977 -0.468301 0)
(1.73554 -0.480486 0)
(1.7169 -0.504236 0)
(1.70399 -0.517224 0)
(1.68361 -0.531055 0)
(1.64465 -0.551428 0)
(0.113674 0.23552 0)
(0.190666 0.215265 0)
(0.294994 0.18553 0)
(0.433447 0.142339 0)
(0.614519 0.0852177 0)
(0.838576 0.0137755 0)
(1.0938 -0.0815886 0)
(1.36184 -0.182889 0)
(1.56989 -0.289183 0)
(1.68243 -0.363039 0)
(1.75828 -0.384379 0)
(1.77961 -0.398668 0)
(1.76913 -0.414582 0)
(1.75215 -0.436676 0)
(1.74545 -0.445226 0)
(1.739 -0.447698 0)
(1.7404 -0.454383 0)
(1.73267 -0.462554 0)
(1.71534 -0.481339 0)
(1.6958 -0.501323 0)
(1.67461 -0.512557 0)
(1.64059 -0.538757 0)
(0.200058 0.205358 0)
(0.305699 0.178863 0)
(0.446129 0.139112 0)
(0.626338 0.0843012 0)
(0.84828 0.0168964 0)
(1.09274 -0.0592724 0)
(1.33352 -0.145598 0)
(1.54628 -0.218254 0)
(1.67153 -0.308759 0)
(1.73253 -0.359438 0)
(1.76817 -0.366355 0)
(1.767 -0.376512 0)
(1.75704 -0.389461 0)
(1.74334 -0.411148 0)
(1.73973 -0.417839 0)
(1.7386 -0.424113 0)
(1.73769 -0.442192 0)
(1.72892 -0.445238 0)
(1.71307 -0.458092 0)
(1.69097 -0.479708 0)
(1.66581 -0.495004 0)
(1.63387 -0.524961 0)
(0.343467 0.161781 0)
(0.488471 0.125149 0)
(0.670904 0.0778979 0)
(0.887474 0.014247 0)
(1.12305 -0.0512057 0)
(1.34477 -0.132165 0)
(1.53227 -0.19587 0)
(1.66315 -0.243062 0)
(1.71807 -0.312535 0)
(1.75043 -0.340188 0)
(1.75922 -0.346188 0)
(1.75503 -0.353765 0)
(1.74707 -0.366321 0)
(1.73718 -0.387468 0)
(1.73544 -0.394613 0)
(1.73759 -0.402418 0)
(1.735 -0.42541 0)
(1.72595 -0.434981 0)
(1.71228 -0.444094 0)
(1.68899 -0.460835 0)
(1.65687 -0.474079 0)
(1.62658 -0.509212 0)
(0.601547 0.113534 0)
(0.780911 0.06259 0)
(0.986338 -0.00417061 0)
(1.20327 -0.0696787 0)
(1.39529 -0.13229 0)
(1.55022 -0.197729 0)
(1.6673 -0.213168 0)
(1.71854 -0.246927 0)
(1.7333 -0.290678 0)
(1.74504 -0.309919 0)
(1.74531 -0.320292 0)
(1.74417 -0.333256 0)
(1.73904 -0.347487 0)
(1.73258 -0.36844 0)
(1.7314 -0.375417 0)
(1.73439 -0.382718 0)
(1.73198 -0.403212 0)
(1.72047 -0.4189 0)
(1.70876 -0.429021 0)
(1.68508 -0.44323 0)
(1.6505 -0.457654 0)
(1.61941 -0.489879 0)
(0.961976 0.047158 0)
(1.14639 -0.0138703 0)
(1.33228 -0.0731847 0)
(1.48774 -0.112193 0)
(1.59782 -0.165033 0)
(1.67645 -0.191305 0)
(1.72169 -0.211773 0)
(1.73205 -0.230033 0)
(1.73311 -0.263911 0)
(1.73238 -0.281906 0)
(1.73398 -0.297472 0)
(1.73391 -0.314984 0)
(1.7318 -0.334416 0)
(1.7286 -0.353608 0)
(1.72828 -0.359496 0)
(1.73144 -0.36693 0)
(1.72877 -0.382039 0)
(1.71458 -0.399448 0)
(1.70063 -0.410347 0)
(1.67724 -0.425504 0)
(1.6425 -0.4425 0)
(1.60778 -0.4686 0)
(1.32697 -0.00740397 0)
(1.46466 -0.0603452 0)
(1.58023 -0.0842653 0)
(1.65011 -0.127747 0)
(1.68809 -0.175395 0)
(1.71289 -0.18683 0)
(1.72426 -0.202695 0)
(1.72611 -0.220726 0)
(1.72212 -0.240417 0)
(1.72098 -0.258212 0)
(1.72513 -0.276284 0)
(1.72679 -0.299231 0)
(1.7254 -0.325709 0)
(1.72638 -0.342644 0)
(1.72789 -0.346712 0)
(1.73031 -0.352047 0)
(1.72505 -0.361615 0)
(1.70962 -0.375843 0)
(1.69258 -0.39025 0)
(1.6672 -0.411203 0)
(1.6345 -0.434777 0)
(1.59983 -0.454252 0)
(1.58853 -0.0474137 0)
(1.65697 -0.0854908 0)
(1.69404 -0.115708 0)
(1.70712 -0.159666 0)
(1.71172 -0.175588 0)
(1.71174 -0.177796 0)
(1.71313 -0.187328 0)
(1.71369 -0.205172 0)
(1.71126 -0.228722 0)
(1.71162 -0.243323 0)
(1.71549 -0.259301 0)
(1.71778 -0.284032 0)
(1.71996 -0.31199 0)
(1.72323 -0.322547 0)
(1.72837 -0.328184 0)
(1.72955 -0.334168 0)
(1.72171 -0.343629 0)
(1.70564 -0.35708 0)
(1.68604 -0.371348 0)
(1.65811 -0.394787 0)
(1.62558 -0.428439 0)
(1.59681 -0.448605 0)
(1.71052 -0.0709513 0)
(1.72276 -0.103809 0)
(1.72095 -0.134898 0)
(1.71632 -0.151786 0)
(1.70503 -0.153419 0)
(1.70105 -0.157269 0)
(1.70056 -0.164182 0)
(1.70191 -0.187084 0)
(1.70298 -0.220211 0)
(1.70425 -0.235799 0)
(1.70885 -0.250202 0)
(1.71141 -0.274427 0)
(1.71392 -0.291049 0)
(1.71982 -0.299966 0)
(1.72667 -0.307011 0)