/*--------------------------------*- C++ -*----------------------------------*\
  =========                 |
  \\      /  F ield         | OpenFOAM: The Open Source CFD Toolbox
   \\    /   O peration     | Website:  https://openfoam.org
    \\  /    A nd           | Version:  7
     \\/     M anipulation  |
\*---------------------------------------------------------------------------*/
FoamFile
{
    version     2.0;
    format      ascii;
    class       volScalarField;
    location    "0.3";
    object      p;
}
// * * * * * * * * * * * * * * * * * * * * * * * * * * * * * * * * * * * * * //

dimensions      [1 -1 -2 0 0 0 0];

internalField   nonuniform List<scalar> 
3225
(
1.20712
1.19722
1.18332
1.16492
1.14369
1.12823
1.1187
1.10955
1.09802
1.08199
1.06073
1.04402
1.0323
1.02359
1.01409
1.00035
0.984105
0.967048
0.954038
0.943651
0.93392
1.2
1.19122
1.17997
1.16421
1.1443
1.12452
1.11266
1.10346
1.09286
1.07904
1.06051
1.04126
1.02552
1.01615
1.00737
0.996239
0.981896
0.964291
0.949638
0.938215
0.928204
1.19458
1.18489
1.1747
1.16157
1.14409
1.12277
1.10712
1.0977
1.08748
1.07506
1.05841
1.03974
1.02162
1.00925
1.00033
0.990126
0.978529
0.961541
0.945926
0.93321
0.922499
1.1907
1.17878
1.16887
1.15737
1.14235
1.12272
1.10329
1.09114
1.0814
1.0701
1.05537
1.03847
1.01919
1.00378
0.993444
0.983135
0.972916
0.958309
0.942551
0.928755
0.916889
1.18838
1.17361
1.16316
1.15241
1.13945
1.12194
1.10106
1.0846
1.07448
1.06439
1.0515
1.03652
1.01769
1.00016
0.987551
0.97637
0.96639
0.953205
0.938949
0.924688
0.911505
1.18788
1.16975
1.15796
1.14728
1.13523
1.11965
1.10015
1.08049
1.06699
1.05797
1.04665
1.03376
1.01601
0.997224
0.982667
0.970414
0.960442
0.947544
0.93459
0.920595
0.906303
1.1874
1.16717
1.1529
1.14201
1.13046
1.11646
1.09867
1.07831
1.06093
1.0508
1.0404
1.02957
1.01347
0.994614
0.978601
0.965096
0.955114
0.942343
0.930026
0.916292
0.901324
1.18573
1.16574
1.14809
1.13644
1.12525
1.1123
1.09618
1.07719
1.05755
1.04391
1.03304
1.0232
1.0097
0.991733
0.975038
0.960092
0.949996
0.937349
0.925485
0.911985
0.896607
1.18301
1.16466
1.14472
1.13035
1.1196
1.10751
1.09291
1.07557
1.05537
1.03886
1.02597
1.01577
1.00317
0.987823
0.971503
0.955262
0.944738
0.932087
0.920673
0.907592
0.892221
1.17949
1.16291
1.14265
1.12471
1.1133
1.10203
1.08868
1.07297
1.05379
1.03549
1.02037
1.00902
0.995824
0.98157
0.967277
0.950533
0.939151
0.926263
0.915336
0.902954
0.888046
1.1755
1.16031
1.14145
1.12114
1.10665
1.09566
1.08341
1.0696
1.05168
1.03269
1.01603
1.0036
0.989585
0.975557
0.962337
0.945804
0.93338
0.919941
0.909393
0.897771
0.88368
1.17132
1.15717
1.1398
1.11899
1.10127
1.08857
1.07703
1.06497
1.04882
1.03004
1.01228
0.999014
0.98454
0.970561
0.957661
0.941232
0.927852
0.913555
0.902994
0.89197
0.87888
1.16689
1.15343
1.13722
1.11768
1.09794
1.08199
1.06987
1.05876
1.04475
1.02697
1.0086
0.994684
0.979988
0.966009
0.953299
0.936965
0.922922
0.907714
0.896609
0.885722
0.873344
1.16199
1.14906
1.13397
1.11576
1.09574
1.07742
1.06318
1.05179
1.03817
1.02237
1.00442
0.990034
0.975174
0.961279
0.948927
0.932836
0.918564
0.902708
0.890628
0.87943
0.867363
1.15639
1.14389
1.12981
1.11294
1.09396
1.07419
1.05793
1.04552
1.03112
1.01577
0.999215
0.984663
0.969502
0.95578
0.944082
0.928568
0.914467
0.898362
0.885226
0.873528
0.86128
1.15063
1.13782
1.1246
1.10948
1.09162
1.07156
1.05387
1.04047
1.02501
1.00985
0.993983
0.979047
0.963111
0.949248
0.938337
0.923636
0.910182
0.89422
0.880242
0.868109
0.855507
1.14632
1.1314
1.1184
1.10471
1.08855
1.06889
1.05032
1.03631
1.01988
1.00482
0.989323
0.973983
0.957082
0.942227
0.93164
0.917613
0.905099
0.889753
0.875346
0.863095
0.850135
1.14324
1.1259
1.11189
1.09869
1.08423
1.06572
1.0469
1.03254
1.01526
1.00035
0.985096
0.969548
0.952093
0.935758
0.924702
0.910795
0.898989
0.88447
0.870157
0.858161
0.844946
1.1409
1.12198
1.10616
1.09236
1.07809
1.06105
1.04316
1.02864
1.01068
0.995978
0.981027
0.965422
0.947893
0.930407
0.918344
0.903985
0.892362
0.878395
0.864379
0.852922
0.839606
1.13855
1.11877
1.10156
1.08681
1.07182
1.0545
1.03798
1.02377
1.0055
0.991189
0.976728
0.961268
0.943964
0.925956
0.912947
0.897884
0.885911
0.87203
0.858113
0.847115
0.833727
1.13569
1.11583
1.09768
1.0822
1.06639
1.04845
1.03223
1.01787
0.99929
0.98539
0.971514
0.956506
0.939916
0.921894
0.908293
0.892618
0.880047
0.865985
0.851879
0.8409
0.827245
1.13232
1.11267
1.09404
1.07818
1.06167
1.0433
1.02726
1.0121
0.992643
0.978626
0.965053
0.950522
0.935024
0.917662
0.903922
0.887931
0.874766
0.860449
0.846114
0.834813
0.820496
1.1276
1.10905
1.09036
1.0744
1.05729
1.03871
1.02298
1.00711
0.98673
0.971825
0.957901
0.943425
0.928758
0.912539
0.899262
0.883318
0.869718
0.855258
0.840915
0.829264
0.814098
1.12204
1.10384
1.08615
1.07048
1.0529
1.03443
1.01911
1.00272
0.981773
0.965841
0.951166
0.936131
0.921579
0.906128
0.893639
0.878158
0.864469
0.850102
0.836059
0.824219
0.808423
1.11693
1.09823
1.08097
1.06577
1.04804
1.03017
1.01535
0.998588
0.977389
0.960777
0.945381
0.929495
0.914573
0.899175
0.887045
0.871971
0.858533
0.84459
0.831194
0.819346
0.803374
1.11249
1.09326
1.0758
1.06022
1.04213
1.02534
1.01124
0.994413
0.973205
0.95632
0.940413
0.923696
0.908328
0.892651
0.88027
0.865017
0.851731
0.83841
0.825846
0.814161
0.798545
1.10839
1.08878
1.07125
1.05476
1.03547
1.01933
1.00599
0.989607
0.968913
0.952139
0.935872
0.918415
0.902761
0.88692
0.874039
0.858169
0.844495
0.831562
0.819626
0.808233
0.79351
1.10437
1.0845
1.06714
1.04995
1.02925
1.01265
0.999421
0.983428
0.963876
0.947777
0.931374
0.913275
0.897526
0.881765
0.86848
0.851991
0.837523
0.824555
0.812574
0.801367
0.7879
1.10015
1.08028
1.06329
1.04563
1.02405
1.00644
0.992369
0.975973
0.957388
0.942498
0.926414
0.907891
0.89225
0.876778
0.863264
0.846406
0.831218
0.81801
0.805242
0.793863
0.78154
1.09524
1.07596
1.0595
1.04149
1.0195
1.00116
0.98594
0.968388
0.950047
0.936048
0.920524
0.901918
0.8866
0.87153
0.857939
0.841016
0.825504
0.81218
0.798284
0.786424
0.774547
1.08929
1.07104
1.05538
1.03731
1.01512
0.996529
0.980457
0.961606
0.9431
0.929239
0.913901
0.895255
0.880383
0.865677
0.85206
0.835329
0.820049
0.806864
0.791985
0.779661
0.76738
1.08286
1.06514
1.05025
1.03261
1.01058
0.99222
0.975546
0.955678
0.937014
0.922825
0.907176
0.888276
0.873781
0.859153
0.845399
0.828999
0.814472
0.80165
0.786178
0.773732
0.760654
1.07704
1.0589
1.04409
1.02672
1.00536
0.987891
0.97073
0.950175
0.931542
0.916956
0.90077
0.881489
0.867202
0.852328
0.838198
0.821971
0.808397
0.796066
0.780463
0.768367
0.754693
1.07212
1.0532
1.0377
1.01981
0.99905
0.982874
0.965532
0.94464
0.926315
0.911417
0.89466
0.875059
1
1
1
1
1
1
1
1
1
1
1
1
1
1
1
1
1
1
1
1
1
1
1
1
1
1
1
1
1
1
1
1
1
1
1
1
1
1
1
1
1
1
1
1
1
1
1
1
1
1
1
1
1
1
1
1
1
1
1
1
1
1
1
1
1
1
1
1
1
1
1
1
1
1
1
1
1
1
1
1
1
1
1
1
1
1
1
1
1
1
1
1
1
1
1
1
1
1
1
1
1
1
1
1
1
1
1
1
1
1
1
1
1
1
1
1
1
1
1
1
1
1
1
1
1
1
1
1
1
1
1
1
1
1
1
1
1
1
1
1
1
1
1
1
1
1
1
1
1
1
1
1
1
1
1
1
1
1
1
1
1
1
1
1
1
1
1
1
1
1
1
1
1
1
1
1
1
1
1
1
1
1
1
1
1
1
1
1
1
1
1
1
1
1
1
1
1
1
1
1
1
1
1
1
1
1
1
1
1
1
1
1
1
1
1
1
1
1
1
1
1
1
1
1
1
1
1
1
1
1
1
1
1
1
1
1
1
1
1
1
1
1
1
1
1
1
1
1
1
1
1
1
1
1
1
1
1
1
1
1
1
1
1
1
1
1
1
1
1
1
1
1
1
1
1
1
1
1
1
1
1
1
1
1
1
1
1
1
1
1
1
1
1
1
1
1
1
1
1
1
1
1
1
1
1
1
1
1
1
1
1
1
1
1
1
1
1
1
1
1
1
1
1
1
1
1
1
1
1
1
1
1
1
1
1
1
1
1
1
1
1
1
1
1
1
1
1
1
1
1
1
1
1
1
1
1
1
1
1
1
1
1
1
1
1
1
1
1
1
1
1
1
1
1
1
1
1
1
1
1
1
1
1
1
1
1
1
1
1
1
1
1
1
1
1
1
1
1
1
1
1
1
1
1
1
1
1
1
1
1
1
1
1
1
1
1
1
1
1
1
1
1
1
1
1
1
1
1
1
1
1
1
1
1
1
1
1
1
1
1
1
1
1
1
1
1
1
1
1
1
1
1
1
1
1
1
1
1
1
1
1
1
1
1
1
1
1
1
1
1
1
1
1
1
1
1
1
1
1
1
1
1
1
1
1
1
1
1
1
1
1
1
1
1
1
1
1
1
1
1
1
1
1
1
1
1
1
1
1
1
1
1
1
1
1
1
1
1
1
1
1
1
1
1
1
1
1
1
1
1
1
1
1
1
1
1
1
1
1
1
1
1
1
1
1
1
1
1
1
1
1
1
1
1
1
1
1
1
1
1
1
1
1
1
1
1
1
1
1
1
1
1
1
1
1
1
1
1
1
1
1
1
1
1
1
1
1
1
1
1
1
1
1
1
1
1
1
1
1
1
1
1
1
1
1
1
1
1
1
1
1
1
1
1
1
1
1
1
1
1
1
1
1
1
1
1
1
1
1
1
1
1
1
1
1
1
1
1
1
1
1
1
1
1
1
1
1
1
1
1
1
1
1
1
1
1
1
1
1
1
1
1
1
1
1
1
1
1
1
1
1
1
1
1
1
1
1
1
1
1
1
1
1
1
1
1
1
1
1
1
1
1
1
1
1
1
1
1
1
1
1
1
1
1
1
1
1
1
1
1
1
1
1
1
1
1
1
1
1
1
1
1
1
1
1
1
1
1
1
1
1
1
1
1
1
1
1
1
1
1
1
1
1
1
1
1
1
1
1
1
1
1
1
1
1
1
1
1
1
1
1
1
1
1
1
1
1
1
1
1
1
1
1
1
1
1
1
1
1
1
1
1
1
1
1
1
1
1
1
1
1
1
1
1
1
1
1
1
1
1
1
1
1
1
1
1
1
1
1
1
1
1
1
1
1
1
1
1
1
1
1
1
1
1
1
1
1
1
1
1
1
1
1
1
1
1
1
1
1
1
1
1
1
1
1
1
1
1
1
1
1
1
1
1
1
1
1
1
1
1
1
1
1
1
1
1
1
1
1
1
1
1
1
1
1
1
1
1
1
1
1
1
1
1
1
1
1
1
1
1
1
1
1
1
1
1
1
1
1
1
1
1
1
1
1
1
1
1
1
1
1
1
1
1
1
1
1
1
1
1
1
1
1
1
1
1
1
1
1
1
1
1
1
1
1
1
1
1
1
1
1
1
1
1
1
1
1
1
1
1
1
1
1
1
1
1
1
1
1
1
1
1
1
1
1
1
1
1
1
1
1
1
1
1
1
1
1
1
1
1
1
1
1
1
1
1
1
1
1
1
1
1
1
1
1
1
1
1
1
1
1
1
1
1
1
1
1
1
1
1
1
1
1
1
1
1
1
1
1
1
1
1
1
1
1
1
1
1
1
1
1
1
1
1
1
1
1
1
1
1
1
1
1
1
1
1
1
1
1.00001
1.00015
1
1
1
1
1
1
1
1
1
1
1
1
1
1
1
1
1
1
1.00007
1.00092
1.00634
1
1
1
1
1
1
1
1
1
1
1
1
1
1
1
1
1.00003
1.00047
1.00395
1.01943
1.05917
1
1
1
1
1
1
1
1
1
1
1
1
1
1
1.00001
1.0002
1.00214
1.01281
1.04587
1.10816
1.18625
1
1
1
1
1
1
1
1
1
1
1
1
1
1.00006
1.00097
1.00744
1.03245
1.08779
1.16783
1.2437
1.2922
1
1
1
1
1
1
1
1
1
1
1
1.00002
1.00035
1.00362
1.02016
1.06568
1.14319
1.22728
1.28811
1.32361
1.34376
1
1
1
1
1
1
1
1
1
1
1.0001
1.00148
1.01076
1.04422
1.11287
1.2015
1.27737
1.32006
1.34706
1.35529
1.3521
1
1
1
1
1
1
1
1
1.00002
1.00048
1.00486
1.02624
1.08158
1.16928
1.25741
1.3104
1.34679
1.36177
1.36127
1.35623
1.35518
1
1
1
1
1
1
1
1.00012
1.00178
1.01309
1.05253
1.1313
1.22771
1.29915
1.34202
1.3633
1.36942
1.36454
1.36231
1.3608
1.35757
1
1
1
1
1
1.00002
1.00051
1.00537
1.02955
1.09177
1.18677
1.27795
1.33156
1.36376
1.37632
1.37306
1.3689
1.36769
1.3657
1.36146
1.35332
1
1
1
1
1.00011
1.00175
1.01363
1.05633
1.14179
1.24448
1.3138
1.35934
1.3799
1.38258
1.37617
1.37546
1.37275
1.36977
1.36258
1.35387
1.34386
1
1
1.00002
1.00043
1.00503
1.02945
1.09504
1.19714
1.29098
1.34797
1.37793
1.39013
1.38467
1.3824
1.38005
1.37836
1.37256
1.36376
1.35333
1.34333
1.33563
1
1.00008
1.00143
1.0124
1.05497
1.14372
1.25322
1.32584
1.37295
1.39435
1.39407
1.3889
1.3875
1.38586
1.382
1.37413
1.3646
1.3545
1.34506
1.3371
1.33014
1.0003
1.00406
1.02639
1.09145
1.19865
1.29796
1.35979
1.39093
1.40377
1.39614
1.39524
1.3924
1.39096
1.38412
1.37519
1.36445
1.35507
1.34765
1.3409
1.3319
1.32297
1.00994
1.04912
1.13793
1.25396
1.33354
1.38342
1.40774
1.40634
1.40193
1.39934
1.39858
1.39403
1.38604
1.3759
1.36597
1.35647
1.3496
1.34279
1.33478
1.32554
1.3166
1.08208
1.19123
1.29954
1.36741
1.40221
1.41659
1.40886
1.40751
1.40454
1.40325
1.39672
1.38717
1.37668
1.36741
1.36002
1.35281
1.34389
1.33566
1.32789
1.32027
1.3119
1.24673
1.336
1.39185
1.41959
1.41888
1.41451
1.41111
1.41078
1.40644
1.39859
1.38825
1.37828
1.36906
1.36288
1.35576
1.34701
1.33727
1.32888
1.32225
1.31517
1.30669
1.37102
1.41153
1.42875
1.42151
1.41965
1.41666
1.41534
1.40955
1.39991
1.38956
1.37996
1.37258
1.36551
1.35718
1.34899
1.34062
1.3322
1.32389
1.31624
1.3089
1.30092
1.42995
1.43141
1.42673
1.42317
1.4228
1.41896
1.41119
1.40108
1.39117
1.38188
1.37554
1.36866
1.35975
1.35014
1.34208
1.33546
1.32794
1.3188
1.30967
1.30216
1.29525
1.43395
1.43173
1.42871
1.42749
1.42213
1.41268
1.40242
1.39278
1.38517
1.37838
1.37025
1.3619
1.35325
1.34452
1.33678
1.32976
1.32207
1.31337
1.30418
1.29597
1.28898
1.43533
1.43454
1.43155
1.42399
1.41402
1.40403
1.39472
1.38819
1.38175
1.3729
1.36329
1.35493
1.34804
1.34033
1.33117
1.3228
1.31554
1.30828
1.29967
1.29002
1.28196
1.43942
1.43512
1.42612
1.41577
1.40606
1.39789
1.39141
1.38371
1.37532
1.36648
1.35753
1.35002
1.34303
1.33479
1.32537
1.31645
1.30948
1.30272
1.2945
1.28466
1.27536
1.43752
1.42798
1.41781
1.40852
1.40146
1.39539
1.38668
1.37719
1.36862
1.3613
1.35378
1.345
1.33676
1.32887
1.32057
1.31154
1.30329
1.2963
1.28881
1.27985
1.2698
1.43008
1.4203
1.41163
1.40531
1.3982
1.38972
1.38073
1.37164
1.36412
1.35725
1.34887
1.33944
1.33086
1.3238
1.31622
1.3069
1.29722
1.28977
1.28301
1.27498
1.26506
1.42305
1.41514
1.40966
1.40162
1.39222
1.38353
1.37573
1.36845
1.36005
1.35172
1.34341
1.33476
1.32639
1.31879
1.31103
1.30214
1.29227
1.28385
1.27702
1.26946
1.26026
1.41896
1.41308
1.40503
1.39585
1.38657
1.3788
1.37246
1.36441
1.35493
1.34612
1.33872
1.33103
1.3219
1.3131
1.30546
1.29756
1.28821
1.27853
1.27071
1.2636
1.25539
1.41678
1.40779
1.39894
1.39066
1.383
1.37526
1.36742
1.35913
1.35014
1.34187
1.33444
1.32631
1.31701
1.30778
1.30016
1.29269
1.2838
1.27381
1.26477
1.25756
1.24991
1.41136
1.40196
1.39362
1.38732
1.37987
1.3704
1.36148
1.35389
1.34636
1.33771
1.32911
1.32095
1.31236
1.30319
1.29466
1.28703
1.27876
1.26946
1.25965
1.25139
1.24387
1.40581
1.39749
1.39029
1.38315
1.3748
1.36537
1.35657
1.34951
1.34174
1.33261
1.32356
1.31576
1.30777
1.29851
1.28893
1.28087
1.27332
1.26495
1.2551
1.24536
1.23727
1.40147
1.39481
1.38609
1.37735
1.36931
1.36127
1.35281
1.34442
1.33609
1.3274
1.3187
1.31059
1.30234
1.29335
1.28376
1.27499
1.26731
1.25945
1.25034
1.24007
1.23063
1.39821
1.39031
1.3809
1.37184
1.36471
1.35744
1.34832
1.33888
1.33053
1.32266
1.31394
1.30493
1.29647
1.28817
1.27911
1.26953
1.261
1.25339
1.24518
1.23536
1.22466
1.39303
1.38484
1.37633
1.36791
1.36019
1.35224
1.34331
1.33417
1.3258
1.31763
1.3087
1.29946
1.29088
1.28289
1.27423
1.26448
1.25493
1.24705
1.23946
1.23048
1.21958
1.38744
1.37971
1.37275
1.36416
1.3548
1.34646
1.33857
1.3302
1.32102
1.31214
1.30346
1.2946
1.28564
1.27729
1.2689
1.25961
1.24959
1.24086
1.23338
1.22513
1.21487
1.38317
1.37575
1.36834
1.35943
1.34981
1.34144
1.33396
1.32552
1.31599
1.30688
1.29858
1.28989
1.28044
1.27155
1.26341
1.25473
1.24472
1.235
1.22717
1.21939
1.20995
1.38016
1.37129
1.363
1.35467
1.34586
1.33696
1.32866
1.32026
1.31125
1.30215
1.29355
1.28481
1.27542
1.26615
1.25779
1.24939
1.23977
1.22965
1.22109
1.21327
1.20437
1.37635
1.36654
1.35787
1.35044
1.34211
1.33227
1.32309
1.31512
1.30677
1.29739
1.28817
1.27956
1.2706
1.26106
1.25202
1.24368
1.23457
1.22462
1.21533
1.20688
1.19822
1.37196
1.36254
1.35375
1.34604
1.33755
1.32777
1.31821
1.31019
1.30186
1.29245
1.28294
1.27433
1.26556
1.25595
1.24637
1.23786
1.229
1.21943
1.20983
1.2005
1.19176
1.36758
1.35928
1.34986
1.34102
1.33274
1.32377
1.31398
1.30507
1.29665
1.28769
1.27807
1.26897
1.26016
1.2508
1.24107
1.23216
1.22303
1.21375
1.20443
1.19455
1.18533
1.36365
1.35554
1.34566
1.33622
1.32826
1.31983
1.30977
1.3
1.29152
1.28296
1.27323
1.26359
1.25465
1.24556
1.2359
1.22655
1.21688
1.20783
1.19898
1.18898
1.17921
1.35939
1.35115
1.3416
1.33205
1.3239
1.31542
1.3055
1.29538
1.28654
1.27799
1.26831
1.25849
1.24922
1.24005
1.23054
1.22109
1.2109
1.20176
1.19323
1.18351
1.17345
1.35459
1.3465
1.33787
1.32818
1.31911
1.31066
1.30135
1.29115
1.28149
1.27281
1.26338
1.25364
1.24385
1.23429
1.22504
1.21575
1.20519
1.19572
1.1872
1.17774
1.16796
1.3501
1.34216
1.3339
1.324
1.31426
1.30588
1.29703
1.28683
1.2765
1.2676
1.2583
1.24868
1.23854
1.22852
1.21944
1.21033
1.1997
1.18973
1.18092
1.17178
1.16234
1.34623
1.33786
1.32945
1.31968
1.30967
1.3011
1.29228
1.28225
1.27174
1.26244
1.25294
1.24353
1.2334
1.22288
1.21373
1.20476
1.19424
1.18402
1.17459
1.16532
1.15642
1.34266
1.33322
1.32466
1.31545
1.30528
1.29599
1.28714
1.27756
1.26712
1.25718
1.24743
1.23828
1.2283
1.21738
1.20785
1.19896
1.18886
1.17843
1.16826
1.1588
1.15
1.3388
1.32868
1.31998
1.31109
1.30073
1.29082
1.28188
1.27261
1.26234
1.25192
1.24186
1.23292
1.22305
1.21187
1.20201
1.19303
1.18316
1.17291
1.16214
1.15214
1.14348
1.3348
1.32452
1.31545
1.30648
1.29608
1.28586
1.27668
1.26745
1.25738
1.24678
1.23633
1.22731
1.21762
1.20656
1.19618
1.18689
1.17727
1.16715
1.15625
1.14582
1.13666
1.33083
1.32061
1.31081
1.30168
1.29155
1.28119
1.27145
1.26213
1.2524
1.24172
1.23068
1.22155
1.21204
1.20118
1.19054
1.18057
1.17099
1.16125
1.15033
1.1396
1.13012
1.32676
1.31647
1.30615
1.29694
1.28706
1.27655
1.26622
1.2568
1.24731
1.23663
1.22507
1.2156
1.20627
1.19568
1.18483
1.17436
1.16461
1.15491
1.14431
1.13345
1.12347
1.32244
1.31215
1.30165
1.29234
1.28248
1.27191
1.26111
1.25146
1.24207
1.2315
1.21964
1.20971
1.20021
1.18983
1.17916
1.16813
1.15827
1.14851
1.13782
1.12727
1.11707
1.31789
1.30787
1.2973
1.28763
1.27777
1.26735
1.25617
1.24599
1.23656
1.22631
1.21443
1.20387
1.19405
1.1836
1.17322
1.16206
1.15174
1.14194
1.13146
1.12079
1.11045
1.31337
1.30361
1.2929
1.28278
1.27296
1.2628
1.25127
1.24041
1.23085
1.22086
1.20922
1.19816
1.18789
1.17737
1.1669
1.15565
1.14537
1.1352
1.12478
1.11443
1.10365
1.30891
1.29921
1.28836
1.27789
1.26804
1.25802
1.24638
1.23494
1.22505
1.21512
1.20366
1.19255
1.18192
1.17099
1.16064
1.14916
1.13859
1.12846
1.11792
1.10762
1.09694
1.30426
1.29462
1.28389
1.27301
1.26276
1.25288
1.24141
1.22969
1.21927
1.20909
1.19781
1.18661
1.17592
1.16482
1.15425
1.1427
1.13193
1.12131
1.11081
1.10073
1.0898
1.29952
1.28997
1.27939
1.26805
1.25717
1.24739
1.23619
1.22443
1.21367
1.20309
1.19171
1.18047
1.16961
1.1584
1.148
1.13632
1.12535
1.11445
1.10349
1.09336
1.08252
1.29495
1.28529
1.27474
1.26316
1.25161
1.24167
1.23054
1.2189
1.2081
1.19722
1.18574
1.17414
1.16307
1.15166
1.14129
1.1299
1.11905
1.10782
1.0964
1.08603
1.07485
1.29054
1.28049
1.26993
1.25836
1.24634
1.236
1.22462
1.21293
1.20227
1.1912
1.17977
1.16805
1.15661
1.14467
1.13412
1.12298
1.1125
1.10138
1.08968
1.07891
1.06731
1.28613
1.27553
1.26495
1.2535
1.24135
1.23065
1.21892
1.20689
1.19602
1.18472
1.17353
1.16195
1.15053
1.13807
1.12676
1.11546
1.10524
1.09454
1.08296
1.07217
1.06032
1.28167
1.27044
1.25968
1.24833
1.23631
1.22559
1.21358
1.20112
1.18987
1.1778
1.16674
1.15546
1.14439
1.13201
1.1198
1.10794
1.0973
1.08664
1.07573
1.06529
1.05341
1.27712
1.26538
1.25414
1.24272
1.23089
1.22035
1.20834
1.19559
1.18417
1.17141
1.1596
1.14825
1.13757
1.12576
1.11351
1.10097
1.08957
1.07837
1.06718
1.05742
1.04636
1.2724
1.26044
1.24881
1.23696
1.22502
1.21428
1.20248
1.19006
1.17873
1.16579
1.15321
1.14065
1.12995
1.11851
1.10676
1.09469
1.08256
1.07065
1.05868
1.04825
1.03774
1.26732
1.25546
1.24384
1.23166
1.21934
1.20785
1.19518
1.18358
1.17308
1.16043
1.14764
1.13417
1.12221
1.11038
1.09867
1.0877
1.07608
1.0638
1.05096
1.03949
1.02819
1.26167
1.25003
1.23876
1.22664
1.21419
1.20208
1.18841
1.17564
1.16579
1.15427
1.14218
1.12857
1.11571
1.10256
1.0899
1.07914
1.06856
1.05709
1.04431
1.03179
1.01949
1.25619
1.2441
1.23265
1.22091
1.20913
1.19685
1.18283
1.16878
1.15729
1.14565
1.13495
1.12258
1.10995
1.09649
1.08189
1.07006
1.05924
1.04898
1.03751
1.02499
1.01201
1.25147
1.23871
1.22605
1.21365
1.2028
1.19135
1.17761
1.16322
1.15068
1.13692
1.12524
1.11438
1.10371
1.09085
1.0757
1.06228
1.04941
1.03892
1.029
1.01768
1.00525
1.24681
1.2339
1.22066
1.20668
1.19476
1.18411
1.17186
1.15799
1.14523
1.13092
1.11662
1.10391
1.09446
1.08394
1.06983
1.05613
1.04149
1.02907
1.01863
1.00817
0.997461
1.24167
1.22911
1.21575
1.20139
1.18786
1.17514
1.16348
1.15212
1.13997
1.12562
1.11075
1.09557
1.08332
1.07359
1.06247
1.05022
1.03538
1.02144
1.00875
0.997129
0.987772
1.23452
1.22345
1.21098
1.19673
1.1827
1.16831
1.15373
1.14238
1.13314
1.12041
1.10545
1.08986
1.07504
1.06167
1.05142
1.04246
1.02942
1.01524
1.00133
0.987128
0.976991
1.22702
1.21477
1.20431
1.19187
1.17836
1.16335
1.14742
1.13204
1.12126
1.11214
1.09984
1.08491
1.06934
1.0537
1.03913
1.03026
1.02084
1.0089
0.995053
0.97974
0.967565
1.22206
1.20707
1.19386
1.18357
1.17282
1.15902
1.14325
1.1261
1.11036
1.09858
1.08994
1.07901
1.06435
1.04811
1.0313
1.01741
1.00748
0.998863
0.988086
0.97336
0.959952
1.21948
1.20308
1.1863
1.17164
1.16185
1.1521
1.13876
1.12274
1.1048
1.08779
1.07536
1.06766
1.05748
1.04293
1.02584
1.00951
0.994935
0.985087
0.976535
0.965321
0.952749
1.21491
1.20113
1.18387
1.16469
1.14881
1.1386
1.12974
1.11746
1.10202
1.08291
1.06439
1.05267
1.0443
1.03429
1.02059
1.00411
0.987798
0.972806
0.962834
0.953193
0.942975
)
;

boundaryField
{
    inlet
    {
        type            fixedValue;
        value           nonuniform 0();
    }
    outlet
    {
        type            zeroGradient;
    }
    triangle
    {
        type            zeroGradient;
    }
    top
    {
        type            symmetryPlane;
    }
    bottom
    {
        type            symmetryPlane;
    }
    defaultFaces
    {
        type            empty;
    }
    procBoundary6to5
    {
        type            processor;
        value           nonuniform List<scalar> 
140
(
1.21521
1.21063
1.20837
1.20841
1.20892
1.20778
1.20533
1.20171
1.19725
1.19254
1.18788
1.18338
1.17886
1.17407
1.16986
1.16688
1.16477
1.16291
1.1605
1.15745
1
1
1
1
1
1
1
1
1
1
1
1
1
1
1
1
1
1
1
1
1
1
1
1
1
1
1
1
1
1
1
1
1
1
1
1
1
1
1
1
1
1
1
1
1
1
1
1
1
1
1
1
1
1
1
1
1
1
1
1
1
1
1.00001
1.001
1.02129
1.12491
1.29427
1.39768
1.4409
1.43915
1.4403
1.44398
1.4402
1.43232
1.42615
1.42343
1.42039
1.4144
1.40864
1.40465
1.40143
1.39677
1.39212
1.38823
1.38493
1.38052
1.37542
1.37094
1.36729
1.36371
1.35981
1.35604
1.35247
1.34869
1.34448
1.33994
1.33563
1.33152
1.32726
1.32287
1.31854
1.31424
1.30989
1.30573
1.30179
1.29784
1.29368
1.28921
1.28443
1.27925
1.27394
1.26908
1.2645
1.25971
1.2537
1.24668
1.24122
1.23744
1.23359
1.22607
)
;
    }
    procBoundary6to7
    {
        type            processor;
        value           nonuniform List<scalar> 
147
(
0.922599
0.917384
0.912087
0.906646
0.901161
0.895725
0.89037
0.885253
0.880506
0.876072
0.871801
0.867307
0.862295
0.856722
0.850779
0.844929
0.839346
0.834054
0.828843
0.82342
0.817575
0.811214
0.804591
0.798153
0.792315
0.787127
0.782285
1
1
1
1
1
1
1
1
1
1
1
1
1
1
1
1
1
1
1
1
1
1
1
1
1
1
1
1
1
1
1
1
1
1
1
1
1
1
1
1
1
1
1
1
1
1
1
1
1.00002
1.0015
1.02614
1.12533
1.25445
1.32447
1.3465
1.34791
1.35283
1.35172
1.34352
1.33449
1.32925
1.32275
1.31528
1.30936
1.30364
1.29795
1.2928
1.28794
1.28201
1.27555
1.26873
1.26197
1.25577
1.25071
1.24626
1.24155
1.23632
1.23038
1.22384
1.21696
1.21038
1.20467
1.19974
1.19481
1.18955
1.18371
1.17739
1.17085
1.16428
1.15814
1.15219
1.14642
1.14031
1.13391
1.12722
1.12029
1.11361
1.10675
1.1001
1.09317
1.08621
1.07914
1.07187
1.06419
1.0565
1.04888
1.04198
1.03495
1.02762
1.01854
1.00893
1.00022
0.992509
0.985267
0.976852
0.966726
0.955623
0.945828
0.937728
0.929623
)
;
    }
    procBoundary6to13
    {
        type            processor;
        value           nonuniform List<scalar> 
14
(
1.15377
1.1489
1.1433
1.13803
1.13358
1.12967
1.12602
1.12244
1.11851
1.11357
1.10809
1.10294
1.09839
1.09419
)
;
    }
    procBoundary6to14
    {
        type            processor;
        value           nonuniform List<scalar> 
22
(
0.860911
0.845633
0.830939
0.814589
0.801743
0.789763
0.774434
0.763131
0.749268
1.0677
1.04821
1.03176
1.01271
0.992056
0.976833
0.959481
0.938636
0.920954
0.905845
0.888601
0.860911
0.868883
)
;
    }
    procBoundary6to15
    {
        type            processor;
        value           nonuniform List<scalar> 6(0.77731 0.771685 0.765104 0.75773 0.750139 0.743013);
    }
}


// ************************************************************************* //
