/*--------------------------------*- C++ -*----------------------------------*\
  =========                 |
  \\      /  F ield         | OpenFOAM: The Open Source CFD Toolbox
   \\    /   O peration     | Website:  https://openfoam.org
    \\  /    A nd           | Version:  7
     \\/     M anipulation  |
\*---------------------------------------------------------------------------*/
FoamFile
{
    version     2.0;
    format      ascii;
    class       volScalarField;
    location    "0.3";
    object      T;
}
// * * * * * * * * * * * * * * * * * * * * * * * * * * * * * * * * * * * * * //

dimensions      [0 0 0 1 0 0 0];

internalField   nonuniform List<scalar> 
3225
(
1.06024
1.05777
1.05428
1.04958
1.04411
1.04009
1.0376
1.0352
1.03214
1.02784
1.02207
1.01747
1.01423
1.01182
1.00917
1.00529
1.00064
0.995706
0.991909
0.988861
0.985989
1.05844
1.05624
1.05341
1.04939
1.04425
1.03909
1.03597
1.03355
1.03073
1.02702
1.02198
1.01668
1.0123
1.00969
1.00723
1.00409
0.999984
0.994876
0.990582
0.987213
0.984246
1.05705
1.05462
1.05204
1.04869
1.04418
1.03861
1.03448
1.03198
1.02926
1.02592
1.02138
1.01624
1.01118
1.0077
1.00519
1.0023
0.998985
0.994047
0.989455
0.985685
0.982492
1.05606
1.05305
1.05053
1.04759
1.04372
1.03858
1.03344
1.0302
1.02759
1.02454
1.02052
1.01586
1.01047
1.00612
1.00319
1.00026
0.997326
0.993073
0.988427
0.984319
0.980761
1.05546
1.05171
1.04905
1.04629
1.04294
1.03836
1.03283
1.02842
1.02569
1.02296
1.01943
1.01529
1.01002
1.00506
1.00147
0.998267
0.995392
0.991541
0.987329
0.983066
0.979092
1.05532
1.05071
1.04769
1.04495
1.04182
1.03774
1.03257
1.02729
1.02363
1.02117
1.01807
1.0145
1.00953
1.0042
1.00003
0.996504
0.993618
0.989835
0.985998
0.981802
0.977472
1.05519
1.05004
1.04637
1.04356
1.04056
1.03688
1.03216
1.02668
1.02195
1.01917
1.01631
1.0133
1.00878
1.00343
0.998828
0.994919
0.992019
0.988258
0.984599
0.980467
0.975913
1.05475
1.04966
1.04511
1.04209
1.03917
1.03576
1.03147
1.02636
1.021
1.01724
1.01423
1.01149
1.0077
1.00258
0.997769
0.993422
0.990476
0.986737
0.983201
0.979126
0.974429
1.05404
1.04937
1.04423
1.04048
1.03767
1.03447
1.03058
1.02591
1.02038
1.01582
1.01223
1.00937
1.00581
1.00143
0.996717
0.991971
0.988884
0.985129
0.981714
0.977753
0.973042
1.05314
1.04891
1.04367
1.03898
1.03598
1.03299
1.02942
1.02518
1.01993
1.01486
1.01063
1.00744
1.00369
0.999603
0.99546
0.990547
0.987189
0.983344
0.980062
0.9763
0.971716
1.05211
1.04823
1.04335
1.03803
1.0342
1.03127
1.02798
1.02425
1.01934
1.01407
1.00939
1.00588
1.00188
0.997835
0.99399
0.98912
0.985433
0.9814
0.978218
0.974673
0.970326
1.05103
1.0474
1.04291
1.03745
1.03275
1.02935
1.02624
1.02296
1.01853
1.01331
1.00831
1.00455
1.0004
0.99636
0.992594
0.987736
0.983745
0.979429
0.976226
0.972849
0.968797
1.04988
1.04643
1.04223
1.0371
1.03185
1.02756
1.02427
1.02124
1.01739
1.01244
1.00725
1.00329
0.999066
0.99501
0.991288
0.986441
0.982233
0.977618
0.974229
0.970877
0.967029
1.04861
1.04528
1.04136
1.03658
1.03124
1.0263
1.02243
1.01931
1.01554
1.01112
1.00605
1.00194
0.99765
0.993604
0.989974
0.985183
0.980891
0.976058
0.972351
0.968883
0.965113
1.04716
1.04393
1.04026
1.03582
1.03075
1.02541
1.02097
1.01756
1.01355
1.00925
1.00454
1.00037
0.995976
0.991963
0.988514
0.98388
0.979625
0.974699
0.970646
0.967004
0.963157
1.04565
1.04233
1.03888
1.03488
1.03011
1.02469
1.01984
1.01614
1.01182
1.00755
1.00303
0.998726
0.994083
0.990008
0.986778
0.982371
0.978298
0.973398
0.969067
0.965271
0.961291
1.04453
1.04064
1.03722
1.0336
1.02928
1.02394
1.01885
1.01497
1.01036
1.0061
1.00167
0.997235
0.992289
0.987897
0.984747
0.980522
0.97672
0.971993
0.967509
0.96366
0.959546
1.04371
1.03918
1.03548
1.03197
1.0281
1.02307
1.01789
1.0139
1.00904
1.00481
1.00043
0.995922
0.990795
0.98594
0.982631
0.97842
0.974818
0.970326
0.965852
0.962068
0.957853
1.04309
1.03813
1.03395
1.03026
1.02642
1.02177
1.01684
1.01279
1.00773
1.00354
0.999236
0.994696
0.98953
0.984311
0.980681
0.976308
0.972744
0.968403
0.964001
0.960372
0.956105
1.04247
1.03728
1.03271
1.02875
1.0247
1.01996
1.01538
1.01141
1.00624
1.00215
0.997971
0.993458
0.988342
0.982949
0.979016
0.974405
0.970714
0.966378
0.961984
0.958484
0.954171
1.04171
1.03649
1.03166
1.02749
1.0232
1.01827
1.01376
1.00973
1.00445
1.00046
0.996433
0.992036
0.987115
0.9817
0.977572
0.972753
0.968858
0.964443
0.959967
0.956455
0.95203
1.04082
1.03564
1.03067
1.02639
1.0219
1.01683
1.01236
1.00808
1.00252
0.99848
0.994523
0.990246
0.985631
0.980396
0.97621
0.971275
0.967178
0.962662
0.958091
0.954456
0.949788
1.03957
1.03466
1.02967
1.02535
1.02068
1.01554
1.01114
1.00665
1.0008
0.996481
0.9924
0.988115
0.983726
0.978815
0.974755
0.969815
0.965564
0.960982
0.956389
0.952623
0.94765
1.03809
1.03327
1.02852
1.02428
1.01946
1.01433
1.01003
1.00538
0.999353
0.994713
0.990389
0.985914
0.981534
0.976831
0.972995
0.968179
0.963881
0.959308
0.954792
0.950947
0.945741
1.03673
1.03175
1.02711
1.02298
1.0181
1.01313
1.00896
1.00419
0.998066
0.99321
0.988653
0.9839
0.979384
0.97467
0.970925
0.966211
0.96197
0.957512
0.953186
0.949321
0.944034
1.03555
1.03041
1.0257
1.02145
1.01645
1.01176
1.00778
1.00298
0.996834
0.991881
0.987154
0.98213
0.977456
0.972631
0.968788
0.96399
0.959773
0.95549
0.951415
0.947585
0.942393
1.03445
1.0292
1.02445
1.01993
1.01458
1.01006
1.00628
1.00158
0.995567
0.990631
0.985779
0.98051
0.975729
0.970831
0.96681
0.96179
0.957422
0.95324
0.949347
0.945594
0.940675
1.03337
1.02803
1.02332
1.0186
1.01283
1.00815
1.00439
0.999783
0.994077
0.989323
0.984413
0.978928
0.974097
0.969203
0.965037
0.959794
0.955144
0.950924
0.946992
0.943277
0.938755
1.03223
1.02688
1.02225
1.01739
1.01136
1.00637
1.00235
0.997604
0.992152
0.987736
0.982902
0.977265
0.972447
0.967622
0.963365
0.957979
0.953071
0.948749
0.944528
0.940731
0.936569
1.03091
1.0257
1.0212
1.01623
1.01007
1.00486
1.00048
0.995376
0.989965
0.985792
0.981104
0.975414
0.970673
0.965952
0.961652
0.95622
0.951182
0.946798
0.942175
0.93819
0.934153
1.0293
1.02435
1.02006
1.01505
1.00882
1.00352
0.998884
0.993372
0.987884
0.98373
0.979073
0.97334
0.968714
0.964083
0.959753
0.954355
0.949369
0.94501
0.940031
0.935865
0.931661
1.02755
1.02272
1.01863
1.01373
1.00752
1.00227
0.997445
0.991612
0.986052
0.981777
0.977001
0.971158
0.966624
0.961992
0.957592
0.952272
0.947507
0.943248
0.938043
0.933813
0.929308
1.02596
1.021
1.01691
1.01206
1.00602
1.00101
0.996028
0.989971
0.984396
0.979982
0.975018
0.969024
0.964531
0.959793
0.955243
0.949946
0.94547
0.941353
0.936076
0.931946
0.927209
1.02461
1.01941
1.01512
1.0101
1.0042
0.99955
0.994494
0.988313
0.982808
0.97828
0.973116
0.966991
1
1
1
1
1
1
1
1
1
1
1
1
1
1
1
1
1
1
1
1
1
1
1
1
1
1
1
1
1
1
1
1
1
1
1
1
1
1
1
1
1
1
1
1
1
1
1
1
1
1
1
1
1
1
1
1
1
1
1
1
1
1
1
1
1
1
1
1
1
1
1
1
1
1
1
1
1
1
1
1
1
1
1
1
1
1
1
1
1
1
1
1
1
1
1
1
1
1
1
1
1
1
1
1
1
1
1
1
1
1
1
1
1
1
1
1
1
1
1
1
1
1
1
1
1
1
1
1
1
1
1
1
1
1
1
1
1
1
1
1
1
1
1
1
1
1
1
1
1
1
1
1
1
1
1
1
1
1
1
1
1
1
1
1
1
1
1
1
1
1
1
1
1
1
1
1
1
1
1
1
1
1
1
1
1
1
1
1
1
1
1
1
1
1
1
1
1
1
1
1
1
1
1
1
1
1
1
1
1
1
1
1
1
1
1
1
1
1
1
1
1
1
1
1
1
1
1
1
1
1
1
1
1
1
1
1
1
1
1
1
1
1
1
1
1
1
1
1
1
1
1
1
1
1
1
1
1
1
1
1
1
1
1
1
1
1
1
1
1
1
1
1
1
1
1
1
1
1
1
1
1
1
1
1
1
1
1
1
1
1
1
1
1
1
1
1
1
1
1
1
1
1
1
1
1
1
1
1
1
1
1
1
1
1
1
1
1
1
1
1
1
1
1
1
1
1
1
1
1
1
1
1
1
1
1
1
1
1
1
1
1
1
1
1
1
1
1
1
1
1
1
1
1
1
1
1
1
1
1
1
1
1
1
1
1
1
1
1
1
1
1
1
1
1
1
1
1
1
1
1
1
1
1
1
1
1
1
1
1
1
1
1
1
1
1
1
1
1
1
1
1
1
1
1
1
1
1
1
1
1
1
1
1
1
1
1
1
1
1
1
1
1
1
1
1
1
1
1
1
1
1
1
1
1
1
1
1
1
1
1
1
1
1
1
1
1
1
1
1
1
1
1
1
1
1
1
1
1
1
1
1
1
1
1
1
1
1
1
1
1
1
1
1
1
1
1
1
1
1
1
1
1
1
1
1
1
1
1
1
1
1
1
1
1
1
1
1
1
1
1
1
1
1
1
1
1
1
1
1
1
1
1
1
1
1
1
1
1
1
1
1
1
1
1
1
1
1
1
1
1
1
1
1
1
1
1
1
1
1
1
1
1
1
1
1
1
1
1
1
1
1
1
1
1
1
1
1
1
1
1
1
1
1
1
1
1
1
1
1
1
1
1
1
1
1
1
1
1
1
1
1
1
1
1
1
1
1
1
1
1
1
1
1
1
1
1
1
1
1
1
1
1
1
1
1
1
1
1
1
1
1
1
1
1
1
1
1
1
1
1
1
1
1
1
1
1
1
1
1
1
1
1
1
1
1
1
1
1
1
1
1
1
1
1
1
1
1
1
1
1
1
1
1
1
1
1
1
1
1
1
1
1
1
1
1
1
1
1
1
1
1
1
1
1
1
1
1
1
1
1
1
1
1
1
1
1
1
1
1
1
1
1
1
1
1
1
1
1
1
1
1
1
1
1
1
1
1
1
1
1
1
1
1
1
1
1
1
1
1
1
1
1
1
1
1
1
1
1
1
1
1
1
1
1
1
1
1
1
1
1
1
1
1
1
1
1
1
1
1
1
1
1
1
1
1
1
1
1
1
1
1
1
1
1
1
1
1
1
1
1
1
1
1
1
1
1
1
1
1
1
1
1
1
1
1
1
1
1
1
1
1
1
1
1
1
1
1
1
1
1
1
1
1
1
1
1
1
1
1
1
1
1
1
1
1
1
1
1
1
1
1
1
1
1
1
1
1
1
1
1
1
1
1
1
1
1
1
1
1
1
1
1
1
1
1
1
1
1
1
1
1
1
1
1
1
1
1
1
1
1
1
1
1
1
1
1
1
1
1
1
1
1
1
1
1
1
1
1
1
1
1
1
1
1
1
1
1
1
1
1
1
1
1
1
1
1
1
1
1
1
1
1
1
1
1
1
1
1
1
1
1
1
1
1
1
1
1
1
1
1
1
1
1
1
1
1
1
1
1
1
1
1
1
1
1
1
1
1
1
1
1
1
1
1
1
1
1
1
1
1
1
1
1
1
1
1
1
1
1
1
1
1
1
1
1
1
1
1
1
1
1
1
1
1
1
1
1
1
1
1
1
1
1
1
1
1
1
1
1
1
1
1
1
1
1
1
1
1
1
1
1
1
1
1
1
1
1
1
1
1
1
1
1
1
1
1
1
1
1
1
1
1
1
1
1
1
1
1
1
1
1
1
1
1
1
1
1
1
1
1
1
1
1
1
1
1
1
1
1
1.00004
1
1
1
1
1
1
1
1
1
1
1
1
1
1
1
1
1
1
1.00002
1.00027
1.00183
1
1
1
1
1
1
1
1
1
1
1
1
1
1
1
1
1.00001
1.00013
1.00114
1.00561
1.01689
1
1
1
1
1
1
1
1
1
1
1
1
1
1
1
1.00006
1.00062
1.0037
1.01315
1.03035
1.05082
1
1
1
1
1
1
1
1
1
1
1
1
1
1.00002
1.00028
1.00215
1.00935
1.02482
1.04613
1.06524
1.07699
1
1
1
1
1
1
1
1
1
1
1
1
1.0001
1.00105
1.00582
1.01871
1.03973
1.06121
1.07608
1.08449
1.08922
1
1
1
1
1
1
1
1
1
1
1.00003
1.00043
1.00311
1.0127
1.03165
1.05476
1.07355
1.08369
1.09005
1.09191
1.09116
1
1
1
1
1
1
1
1
1.00001
1.00014
1.0014
1.00757
1.02313
1.04656
1.0687
1.08144
1.09005
1.09346
1.09332
1.09215
1.09192
1
1
1
1
1
1
1
1.00003
1.00051
1.00378
1.01504
1.03661
1.06141
1.07883
1.08893
1.09389
1.09526
1.09412
1.0936
1.09324
1.09249
1
1
1
1
1
1.00001
1.00015
1.00155
1.00852
1.02595
1.05108
1.07378
1.08651
1.09405
1.09688
1.09614
1.09519
1.09488
1.0944
1.09342
1.09153
1
1
1
1
1.00003
1.0005
1.00394
1.01612
1.03942
1.06562
1.08234
1.09307
1.09778
1.09833
1.09688
1.09672
1.0961
1.09539
1.09371
1.0917
1.08938
1
1
1
1.00012
1.00145
1.0085
1.02686
1.05377
1.07699
1.09043
1.09736
1.10013
1.09888
1.09835
1.0978
1.09741
1.09607
1.09404
1.09162
1.0893
1.0875
1
1.00002
1.00041
1.00359
1.01575
1.03996
1.06784
1.08526
1.09632
1.10114
1.10105
1.09989
1.09956
1.09917
1.09827
1.09647
1.09429
1.09195
1.08975
1.08788
1.08625
1.00009
1.00117
1.00762
1.02589
1.05421
1.07872
1.09326
1.10043
1.10331
1.10158
1.10137
1.10072
1.10038
1.0988
1.09676
1.0943
1.09213
1.0904
1.08882
1.08671
1.08461
1.00288
1.0141
1.03845
1.06808
1.08714
1.0988
1.10426
1.10393
1.10294
1.10235
1.10216
1.10112
1.0993
1.09698
1.09469
1.0925
1.0909
1.08931
1.08743
1.08526
1.08315
1.02332
1.05235
1.07916
1.0951
1.10307
1.10629
1.10454
1.10424
1.10357
1.10326
1.10177
1.0996
1.09721
1.09508
1.09336
1.09169
1.08961
1.08768
1.08586
1.08406
1.08207
1.06635
1.08779
1.10081
1.10702
1.10684
1.10586
1.1051
1.10501
1.10402
1.10224
1.0999
1.09762
1.09551
1.09407
1.09242
1.09039
1.08811
1.08614
1.08457
1.08289
1.08088
1.09601
1.10527
1.1091
1.10748
1.10706
1.10639
1.10608
1.10476
1.10259
1.10024
1.09805
1.09636
1.09473
1.0928
1.0909
1.08895
1.08697
1.08501
1.0832
1.08145
1.07955
1.10943
1.10973
1.10869
1.1079
1.1078
1.10693
1.10518
1.1029
1.10066
1.09854
1.09709
1.0955
1.09345
1.09122
1.08934
1.08779
1.08601
1.08386
1.08169
1.07989
1.07824
1.11035
1.10986
1.10918
1.1089
1.10769
1.10557
1.10326
1.10107
1.09934
1.09778
1.09592
1.09399
1.09199
1.08996
1.08815
1.08649
1.08468
1.08262
1.08043
1.07846
1.07678
1.11072
1.11052
1.10985
1.10816
1.10592
1.10367
1.10157
1.10008
1.09861
1.09658
1.09437
1.09243
1.09083
1.08903
1.08688
1.08491
1.08319
1.08146
1.0794
1.07709
1.07514
1.11166
1.11069
1.10869
1.10637
1.10419
1.10234
1.10086
1.09911
1.09719
1.09516
1.09309
1.09134
1.08971
1.08778
1.08557
1.08346
1.0818
1.08018
1.07821
1.07585
1.07359
1.11127
1.10916
1.10688
1.10479
1.1032
1.10182
1.09984
1.09767
1.09571
1.09402
1.09227
1.09023
1.0883
1.08645
1.08449
1.08235
1.08038
1.0787
1.0769
1.07474
1.0723
1.10967
1.10749
1.10555
1.10412
1.10251
1.10058
1.09854
1.09645
1.09472
1.09313
1.09118
1.08899
1.08697
1.08531
1.08351
1.0813
1.07898
1.07719
1.07555
1.07361
1.07119
1.10816
1.10639
1.10515
1.10334
1.10121
1.09923
1.09744
1.09577
1.09384
1.0919
1.08997
1.08794
1.08597
1.08418
1.08234
1.08021
1.07785
1.07582
1.07416
1.07232
1.07007
1.10729
1.10597
1.10416
1.10209
1.09998
1.0982
1.09675
1.0949
1.09271
1.09066
1.08893
1.08712
1.08497
1.08288
1.08106
1.07918
1.07693
1.07459
1.07269
1.07095
1.06894
1.10686
1.10484
1.10284
1.10097
1.09922
1.09745
1.09565
1.09373
1.09165
1.08972
1.08798
1.08607
1.08387
1.08168
1.07985
1.07806
1.07592
1.0735
1.0713
1.06953
1.06765
1.1057
1.10358
1.10169
1.10026
1.09856
1.09639
1.09434
1.09258
1.09082
1.0888
1.08678
1.08486
1.08282
1.08064
1.0786
1.07676
1.07476
1.0725
1.07011
1.06808
1.06622
1.10451
1.10263
1.101
1.09937
1.09746
1.09529
1.09326
1.09162
1.0898
1.08767
1.08554
1.08369
1.08179
1.07958
1.07728
1.07534
1.0735
1.07146
1.06905
1.06666
1.06465
1.10359
1.10208
1.1001
1.0981
1.09626
1.0944
1.09244
1.09049
1.08854
1.0865
1.08445
1.08253
1.08056
1.07841
1.0761
1.07398
1.07211
1.07018
1.06795
1.06541
1.06307
1.1029
1.10111
1.09897
1.0969
1.09526
1.09358
1.09146
1.08926
1.0873
1.08545
1.08338
1.08124
1.07922
1.07723
1.07504
1.07271
1.07063
1.06876
1.06674
1.06431
1.06164
1.10179
1.09993
1.09799
1.09605
1.09427
1.09243
1.09035
1.08822
1.08625
1.08432
1.0822
1.08
1.07794
1.07602
1.07392
1.07155
1.06921
1.06727
1.06539
1.06316
1.06044
1.10058
1.09882
1.09723
1.09525
1.09309
1.09115
1.08931
1.08735
1.08519
1.08309
1.08102
1.0789
1.07675
1.07473
1.07269
1.07043
1.06797
1.06581
1.06395
1.0619
1.05932
1.09967
1.09798
1.09628
1.09422
1.092
1.09005
1.08829
1.08631
1.08407
1.0819
1.07992
1.07784
1.07556
1.07341
1.07142
1.0693
1.06684
1.06443
1.06248
1.06053
1.05816
1.09906
1.09703
1.09512
1.09319
1.09115
1.08907
1.08712
1.08514
1.08301
1.08085
1.07879
1.07669
1.07442
1.07217
1.07012
1.06806
1.06569
1.06317
1.06103
1.05907
1.05682
1.09826
1.09601
1.09401
1.09228
1.09034
1.08804
1.08588
1.084
1.08202
1.07978
1.07757
1.07549
1.07332
1.07099
1.06878
1.06672
1.06447
1.06199
1.05967
1.05754
1.05534
1.09733
1.09516
1.09313
1.09133
1.08935
1.08706
1.08481
1.08291
1.08092
1.07867
1.07638
1.0743
1.07217
1.06982
1.06747
1.06537
1.06316
1.06077
1.05836
1.056
1.05378
1.0964
1.09448
1.0923
1.09024
1.08831
1.0862
1.08388
1.08177
1.07976
1.07761
1.07529
1.07308
1.07093
1.06864
1.06624
1.06403
1.06175
1.05943
1.05708
1.05457
1.05222
1.09557
1.09369
1.09141
1.0892
1.08733
1.08535
1.08297
1.08064
1.07861
1.07655
1.0742
1.07185
1.06966
1.06743
1.06504
1.06272
1.0603
1.05802
1.05578
1.05324
1.05074
1.09466
1.09275
1.09054
1.0883
1.08639
1.08438
1.08203
1.07962
1.07749
1.07543
1.07309
1.07069
1.06842
1.06616
1.0638
1.06144
1.05889
1.05658
1.05441
1.05193
1.04934
1.09362
1.09175
1.08974
1.08747
1.08534
1.08334
1.08113
1.07869
1.07636
1.07427
1.07197
1.06959
1.06719
1.06482
1.06252
1.0602
1.05754
1.05514
1.05297
1.05054
1.04802
1.09266
1.09082
1.08889
1.08657
1.08428
1.08229
1.08018
1.07774
1.07525
1.07309
1.07082
1.06847
1.06597
1.06349
1.06122
1.05893
1.05625
1.05372
1.05146
1.04911
1.04666
1.09184
1.08989
1.08793
1.08564
1.08327
1.08124
1.07913
1.07672
1.07418
1.07192
1.06961
1.0673
1.0648
1.06218
1.05989
1.05763
1.05497
1.05236
1.04994
1.04754
1.04523
1.0911
1.0889
1.08689
1.08473
1.08232
1.08011
1.07799
1.07568
1.07316
1.07074
1.06835
1.0661
1.06363
1.0609
1.05851
1.05627
1.0537
1.05103
1.04842
1.04596
1.04366
1.09029
1.08792
1.08588
1.08379
1.08133
1.07896
1.07682
1.07458
1.07209
1.06955
1.06708
1.06487
1.06242
1.05962
1.05714
1.05486
1.05235
1.04972
1.04694
1.04434
1.04207
1.08944
1.08704
1.08491
1.08278
1.08031
1.07787
1.07566
1.07343
1.07098
1.06838
1.06581
1.06357
1.06116
1.05838
1.05576
1.0534
1.05094
1.04834
1.04551
1.04279
1.04038
1.0886
1.08621
1.0839
1.08173
1.07932
1.07684
1.07449
1.07223
1.06985
1.06723
1.0645
1.06223
1.05985
1.05712
1.05442
1.05188
1.04942
1.0469
1.04406
1.04125
1.03875
1.08773
1.08532
1.08288
1.08069
1.07833
1.0758
1.0733
1.07101
1.06869
1.06606
1.06319
1.06083
1.05848
1.05581
1.05305
1.05037
1.04786
1.04534
1.04258
1.03972
1.03708
1.08679
1.08437
1.08188
1.07966
1.0773
1.07475
1.07213
1.06978
1.06747
1.06486
1.06192
1.05943
1.05703
1.0544
1.05168
1.04885
1.0463
1.04376
1.04096
1.03817
1.03546
1.08578
1.08342
1.08091
1.0786
1.07623
1.07371
1.07099
1.0685
1.06618
1.06364
1.06069
1.05804
1.05556
1.0529
1.05024
1.04737
1.04469
1.04213
1.03938
1.03655
1.03379
1.08477
1.08246
1.07992
1.07749
1.07513
1.07267
1.06985
1.06719
1.06484
1.06237
1.05947
1.05669
1.05409
1.05141
1.04873
1.04582
1.04315
1.04048
1.03773
1.03498
1.0321
1.08378
1.08149
1.0789
1.0764
1.07402
1.07159
1.06875
1.06594
1.0635
1.06104
1.05819
1.0554
1.05271
1.04992
1.04727
1.0443
1.04154
1.03888
1.03609
1.03334
1.03048
1.08278
1.08049
1.07794
1.07533
1.07286
1.07046
1.06767
1.06479
1.06222
1.05969
1.05688
1.05407
1.05137
1.04854
1.04582
1.04283
1.04002
1.03722
1.03443
1.03174
1.02879
1.0818
1.07953
1.07702
1.0743
1.07168
1.06931
1.06658
1.06369
1.06104
1.05841
1.05557
1.05274
1.04999
1.04713
1.04446
1.04143
1.03856
1.03569
1.03277
1.03005
1.02711
1.08091
1.07862
1.07612
1.07334
1.07056
1.06816
1.06544
1.06258
1.05992
1.05721
1.05434
1.05141
1.0486
1.04568
1.04301
1.04005
1.03721
1.03424
1.03119
1.02839
1.02535
1.08011
1.07773
1.07522
1.07246
1.06956
1.06705
1.06427
1.0614
1.05876
1.056
1.05313
1.05016
1.04724
1.04418
1.04144
1.03854
1.03578
1.03283
1.0297
1.02678
1.02361
1.07934
1.07683
1.07431
1.07156
1.06863
1.06603
1.06316
1.06019
1.05749
1.05465
1.05183
1.04888
1.04595
1.04273
1.03978
1.03682
1.03411
1.03126
1.02814
1.02522
1.02197
1.07855
1.07588
1.07331
1.07057
1.06765
1.06504
1.06209
1.05899
1.05618
1.05313
1.05032
1.04743
1.04457
1.04135
1.03815
1.03501
1.03218
1.02932
1.02637
1.02352
1.02024
1.07768
1.07488
1.07217
1.0694
1.06651
1.06392
1.06095
1.05776
1.05489
1.05165
1.04862
1.04569
1.04291
1.03981
1.03658
1.03324
1.03018
1.02716
1.02411
1.02143
1.01837
1.07669
1.07381
1.07099
1.0681
1.06516
1.0625
1.05955
1.05642
1.05355
1.05024
1.047
1.04373
1.04093
1.03791
1.03478
1.03155
1.02828
1.02504
1.02176
1.01888
1.01595
1.0755
1.07263
1.06979
1.06679
1.06374
1.06087
1.05769
1.05475
1.05207
1.04881
1.0455
1.04198
1.03882
1.03568
1.03255
1.0296
1.02644
1.02309
1.01955
1.01636
1.01319
1.07408
1.07125
1.06848
1.06548
1.06238
1.05934
1.05588
1.05263
1.0501
1.04712
1.04398
1.04041
1.03701
1.0335
1.03009
1.02718
1.0243
1.02114
1.0176
1.0141
1.01063
1.07265
1.06969
1.06687
1.06395
1.061
1.05791
1.05436
1.05076
1.0478
1.04478
1.04199
1.03874
1.03539
1.03178
1.02784
1.02462
1.02166
1.01882
1.01563
1.01211
1.00843
1.07138
1.06825
1.06513
1.06204
1.05932
1.05643
1.05294
1.04925
1.04602
1.04243
1.03937
1.0365
1.03367
1.03022
1.02612
1.02246
1.01891
1.01599
1.01322
1.01002
1.00648
1.07016
1.06699
1.06371
1.06022
1.05723
1.05454
1.05143
1.04787
1.04457
1.04084
1.03707
1.0337
1.03118
1.02836
1.02453
1.02078
1.01673
1.01326
1.01031
1.00734
1.00427
1.06885
1.06577
1.06246
1.05887
1.05547
1.05224
1.04927
1.04635
1.04321
1.03946
1.03554
1.0315
1.02821
1.02559
1.02256
1.0192
1.01508
1.01117
1.00757
1.00424
1.00155
1.06708
1.06436
1.06127
1.05771
1.05417
1.05051
1.04677
1.04385
1.04145
1.03812
1.03418
1.03002
1.02602
1.02238
1.01958
1.01711
1.01348
1.00949
1.00553
1.00145
0.998517
1.06524
1.06221
1.05961
1.05649
1.05308
1.04926
1.04517
1.04117
1.03836
1.03597
1.03272
1.02873
1.02452
1.02024
1.01622
1.01376
1.01113
1.00776
1.00381
0.999394
0.995855
1.06401
1.06029
1.05699
1.0544
1.05168
1.04816
1.0441
1.03963
1.0355
1.03238
1.03008
1.02715
1.02318
1.01873
1.01407
1.01018
1.00738
1.00494
1.00186
0.997599
0.99369
1.06336
1.05928
1.05507
1.05136
1.04886
1.04636
1.04292
1.03874
1.03401
1.02947
1.02613
1.02406
1.02129
1.01729
1.01254
1.00794
1.0038
1.00099
0.998533
0.995282
0.991605
1.06221
1.05878
1.05443
1.04955
1.04547
1.04283
1.04054
1.03732
1.03324
1.02812
1.0231
1.0199
1.01761
1.01486
1.01104
1.00639
1.00173
0.997408
0.994521
0.991711
0.988711
)
;

boundaryField
{
    inlet
    {
        type            fixedValue;
        value           nonuniform 0();
    }
    outlet
    {
        type            inletOutlet;
        inletValue      nonuniform 0();
        value           nonuniform 0();
    }
    triangle
    {
        type            zeroGradient;
    }
    top
    {
        type            symmetryPlane;
    }
    bottom
    {
        type            symmetryPlane;
    }
    defaultFaces
    {
        type            empty;
    }
    procBoundary6to5
    {
        type            processor;
        value           nonuniform List<scalar> 
140
(
1.06224
1.06108
1.0605
1.0605
1.06062
1.06032
1.05969
1.05877
1.05763
1.05643
1.05524
1.05409
1.05293
1.0517
1.05061
1.04984
1.04929
1.0488
1.04817
1.04737
1
1
1
1
1
1
1
1
1
1
1
1
1
1
1
1
1
1
1
1
1
1
1
1
1
1
1
1
1
1
1
1
1
1
1
1
1
1
1
1
1
1
1
1
1
1
1
1
1
1
1
1
1
1
1
1
1
1
1
1
1
1
1
1.00029
1.00616
1.035
1.07795
1.10221
1.1119
1.11155
1.11186
1.11271
1.11192
1.11023
1.1089
1.10835
1.10772
1.10644
1.1052
1.10436
1.10369
1.1027
1.10171
1.1009
1.10022
1.09929
1.0982
1.09724
1.09647
1.09572
1.0949
1.09411
1.09337
1.09258
1.09169
1.09072
1.0898
1.08891
1.08797
1.087
1.08605
1.08513
1.08424
1.08344
1.08276
1.0821
1.08138
1.08055
1.07956
1.07837
1.07705
1.07577
1.07455
1.0733
1.07178
1.07005
1.06872
1.0678
1.06684
1.06496
)
;
    }
    procBoundary6to7
    {
        type            processor;
        value           nonuniform List<scalar> 
147
(
0.982613
0.981008
0.979366
0.977672
0.975959
0.974253
0.972564
0.970942
0.969429
0.968009
0.966636
0.965188
0.963571
0.961768
0.959839
0.957931
0.956101
0.954358
0.952635
0.950833
0.948884
0.946752
0.944521
0.942339
0.940349
0.938569
0.9369
1
1
1
1
1
1
1
1
1
1
1
1
1
1
1
1
1
1
1
1
1
1
1
1
1
1
1
1
1
1
1
1
1
1
1
1
1
1
1
1
1
1
1
1
1
1
1
1
1
1.00043
1.00754
1.03494
1.06786
1.08468
1.08983
1.0902
1.09136
1.09113
1.08926
1.08719
1.086
1.08451
1.08278
1.08142
1.0801
1.07879
1.0776
1.07647
1.07509
1.07358
1.07198
1.07038
1.06892
1.06773
1.06669
1.06558
1.06434
1.06293
1.06136
1.05971
1.05813
1.05675
1.05558
1.0544
1.05313
1.05172
1.05018
1.04858
1.04697
1.04547
1.04402
1.04261
1.04112
1.03954
1.03788
1.03614
1.03445
1.0327
1.03101
1.02928
1.02758
1.0259
1.02421
1.02243
1.02063
1.0188
1.01707
1.01518
1.01311
1.01047
1.00763
1.00506
1.00281
1.00075
0.998385
0.995524
0.992354
0.989527
0.987158
0.984741
)
;
    }
    procBoundary6to13
    {
        type            processor;
        value           nonuniform List<scalar> 
14
(
1.04641
1.04514
1.04367
1.04229
1.04112
1.04009
1.03912
1.03817
1.03712
1.0358
1.03434
1.03296
1.03173
1.03059
)
;
    }
    procBoundary6to14
    {
        type            processor;
        value           nonuniform List<scalar> 
22
(
0.962519
0.957623
0.952862
0.94749
0.943228
0.939205
0.933991
0.930114
0.925287
1.02339
1.01802
1.01344
1.00808
1.00218
0.997781
0.992701
0.986506
0.981173
0.97656
0.971221
0.962519
0.965029
)
;
    }
    procBoundary6to15
    {
        type            processor;
        value           nonuniform List<scalar> 6(0.935179 0.933224 0.930929 0.928342 0.925661 0.923127);
    }
}


// ************************************************************************* //
