/*--------------------------------*- C++ -*----------------------------------*\
  =========                 |
  \\      /  F ield         | OpenFOAM: The Open Source CFD Toolbox
   \\    /   O peration     | Website:  https://openfoam.org
    \\  /    A nd           | Version:  8
     \\/     M anipulation  |
\*---------------------------------------------------------------------------*/
FoamFile
{
    version     2.0;
    format      ascii;
    class       volScalarField;
    location    "1.4";
    object      p;
}
// * * * * * * * * * * * * * * * * * * * * * * * * * * * * * * * * * * * * * //

dimensions      [1 -1 -2 0 0 0 0];

internalField   nonuniform List<scalar> 
2600
(
0.745895
0.646092
0.596637
0.623396
0.730981
0.92971
1.09489
1.19891
1.30797
1.29444
0.753324
0.635577
0.579916
0.616209
0.746284
0.952255
1.10689
1.20996
1.31889
1.30441
0.757064
0.627932
0.568256
0.615741
0.766129
0.972715
1.10927
1.22304
1.33259
1.30013
0.759599
0.624476
0.563569
0.616234
0.781875
0.996103
1.11893
1.21276
1.32151
1.29409
0.763837
0.620187
0.56365
0.621461
0.795199
1.01161
1.12731
1.21371
1.31333
1.31113
0.769613
0.622861
0.563796
0.622736
0.802231
1.02076
1.1337
1.22321
1.32137
1.32391
0.773473
0.628793
0.561815
0.622919
0.804082
1.02558
1.13397
1.22205
1.32239
1.32572
0.780147
0.633563
0.558713
0.624344
0.806275
1.02779
1.13527
1.22408
1.32505
1.31995
0.78247
0.636446
0.55709
0.624536
0.808298
1.03197
1.13742
1.22623
1.33129
1.30683
0.786014
0.638197
0.558144
0.628945
0.811047
1.03097
1.13445
1.22357
1.32904
1.31505
0.786033
0.639431
0.560542
0.62935
0.810904
1.03096
1.13463
1.2235
1.32203
1.32511
0.782507
0.637763
0.558332
0.624464
0.808193
1.0321
1.13753
1.22569
1.32266
1.33525
0.780238
0.633607
0.558423
0.623636
0.806252
1.02792
1.1352
1.22324
1.32427
1.32132
0.77339
0.628138
0.561405
0.623454
0.80421
1.02569
1.13379
1.22141
1.32315
1.31373
0.769354
0.622319
0.563437
0.623043
0.802419
1.02154
1.13261
1.22314
1.32776
1.31225
0.764024
0.620083
0.563257
0.621365
0.79578
1.01088
1.1262
1.21594
1.31789
1.30799
0.76014
0.624698
0.563742
0.616781
0.782104
0.995203
1.12115
1.21364
1.31194
1.31444
0.757224
0.628253
0.568554
0.616367
0.766353
0.973659
1.10911
1.22104
1.33099
1.30658
0.753309
0.636043
0.580202
0.616184
0.746323
0.95264
1.10483
1.209
1.32648
1.29071
0.745961
0.645728
0.5957
0.623166
0.731338
0.929394
1.09366
1.19963
1.31289
1.28268
0.836163
0.650811
0.625298
0.635361
0.71808
0.901594
1.07693
1.19705
1.30541
1.28106
0.920548
0.670951
0.669862
0.656551
0.710054
0.869969
1.05375
1.19481
1.30489
1.28083
1.00771
0.703454
0.708713
0.680731
0.710511
0.839991
1.02856
1.18797
1.30724
1.2762
1.08932
0.751349
0.742365
0.708779
0.718185
0.814763
1.00186
1.1778
1.30486
1.26724
1.16923
0.816351
0.7698
0.733812
0.728936
0.796638
0.974127
1.16641
1.29553
1.2588
1.24249
0.88535
0.798515
0.75482
0.740641
0.784133
0.942696
1.15362
1.28465
1.25302
1.31604
0.951575
0.828809
0.775681
0.752334
0.783149
0.913639
1.1377
1.27721
1.25138
1.38818
1.01274
0.85704
0.796585
0.763916
0.784284
0.888622
1.11689
1.27478
1.24811
1.45604
1.07142
0.882744
0.816039
0.775132
0.787877
0.868755
1.09341
1.26955
1.24138
1.5157
1.12729
0.908696
0.830615
0.786551
0.791454
0.851711
1.06878
1.2577
1.23425
1.56667
1.17788
0.941819
0.841707
0.79709
0.791318
0.836129
1.04247
1.24464
1.22924
1.60943
1.22303
0.978563
0.854224
0.802228
0.790342
0.821778
1.01419
1.23263
1.22574
1.64459
1.26667
1.01168
0.872901
0.805353
0.789608
0.809637
0.984436
1.22177
1.22279
1.67442
1.30897
1.04458
0.895535
0.807936
0.788622
0.79994
0.956003
1.21087
1.21869
1.70012
1.34858
1.08156
0.917123
0.811126
0.784213
0.789075
0.928152
1.19722
1.21301
1.723
1.38533
1.11985
0.942426
0.819382
0.77738
0.775814
0.899356
1.181
1.20667
1.74334
1.41975
1.15638
0.972332
0.834714
0.770873
0.760787
0.869273
1.16251
1.20112
1.76198
1.45275
1.19118
1.0024
0.852984
0.767288
0.747212
0.838514
1.14241
1.19707
1.77931
1.48354
1.22587
1.03112
0.875499
0.769375
0.738522
0.809044
1.12016
1.19148
1.79564
1.51262
1.2594
1.05895
0.899622
0.777928
0.731543
0.781491
1.09395
1.18515
3.14076
2.98378
2.87566
2.77043
2.66824
2.56824
2.46233
2.34523
2.18418
1.99958
2.93026
2.78203
2.71212
2.63605
2.55966
2.47621
2.38096
2.26453
2.10162
1.87592
2.85558
2.74638
2.68848
2.61447
2.54228
2.46273
2.36934
2.25145
2.0886
1.86383
2.76342
2.68231
2.63465
2.56741
2.50236
2.42489
2.33252
2.21455
2.05604
1.83058
2.68487
2.62172
2.58329
2.52276
2.46211
2.38632
2.29685
2.18229
2.03126
1.81156
2.6117
2.56041
2.52737
2.47349
2.41893
2.34709
2.26284
2.15324
2.0108
1.80098
2.54599
2.50497
2.47651
2.42823
2.37826
2.31049
2.23284
2.12971
1.99675
1.80313
2.4857
2.45321
2.42778
2.38439
2.33918
2.27753
2.20814
2.11231
1.98943
1.81331
2.43319
2.40723
2.3847
2.3469
2.30785
2.25339
2.19133
2.1023
1.98946
1.83035
2.38944
2.36763
2.34917
2.31835
2.28632
2.23824
2.18224
2.09878
1.99542
1.85384
2.35663
2.33873
2.32606
2.30201
2.27469
2.23001
2.17842
2.10107
2.00786
1.87884
2.33644
2.32274
2.31436
2.2938
2.26871
2.22655
2.17911
2.10895
2.02253
1.90117
2.32906
2.31687
2.30844
2.2878
2.26358
2.225
2.18199
2.11692
2.03484
1.9194
2.32111
2.30997
2.30002
2.27892
2.25648
2.22205
2.18364
2.12265
2.04386
1.9338
2.30566
2.29496
2.28423
2.2653
2.24765
2.21893
2.18488
2.12744
2.05082
1.94578
2.28882
2.27813
2.26796
2.25342
2.24162
2.218
2.18568
2.12965
2.0551
1.95572
2.27446
2.26545
2.25915
2.25021
2.2405
2.21865
2.18632
2.13163
2.05899
1.96418
2.26383
2.25701
2.25447
2.24925
2.24111
2.21938
2.18539
2.13138
2.06083
1.97161
2.25558
2.25251
2.25314
2.24975
2.24157
2.21819
2.18256
2.12941
2.06213
1.97754
2.24783
2.24867
2.25142
2.24907
2.23949
2.21488
2.17895
2.1272
2.06409
1.98395
1.00808
1.0268
1.04927
1.08922
1.19342
1.28518
1.30358
1.36611
2.09922
2.54178
1.00808
1.02679
1.04927
1.08922
1.19341
1.28523
1.30344
1.36584
2.09697
2.53
1.00808
1.02679
1.04927
1.08922
1.1934
1.2853
1.30313
1.36529
2.09347
2.51283
1.00808
1.02679
1.04927
1.08922
1.19338
1.28542
1.30272
1.36445
2.0884
2.49182
1.00808
1.02679
1.04927
1.08921
1.19334
1.28557
1.30222
1.36322
2.08185
2.46975
1.00808
1.02679
1.04927
1.08921
1.19331
1.28575
1.30172
1.36156
2.07375
2.4465
1.00808
1.02679
1.04928
1.0892
1.19326
1.28594
1.30124
1.3594
2.06419
2.42346
1.00808
1.02679
1.04928
1.08919
1.19321
1.28616
1.30081
1.35673
2.05316
2.39993
1.00808
1.02679
1.04928
1.08918
1.19316
1.28638
1.30044
1.35353
2.04048
2.3759
1.00808
1.02679
1.04929
1.08918
1.19311
1.2866
1.30014
1.34983
2.02592
2.35027
1.00808
1.02679
1.04929
1.08917
1.19305
1.28683
1.29989
1.34568
2.009
2.32279
1.00808
1.02678
1.04929
1.08916
1.193
1.28706
1.2997
1.34114
1.98958
2.29359
1.00808
1.02678
1.0493
1.08915
1.19295
1.28728
1.29953
1.33617
1.96836
2.26477
1.00808
1.02678
1.0493
1.08915
1.1929
1.2875
1.29941
1.33107
1.94735
2.24114
1.00808
1.02678
1.04931
1.08914
1.19285
1.28771
1.29925
1.32592
1.92719
2.22635
1.00808
1.02678
1.04931
1.08913
1.19281
1.28791
1.29906
1.32105
1.90694
2.21718
1.00808
1.02678
1.04931
1.08913
1.19277
1.28809
1.29883
1.31648
1.88556
2.20988
1.00808
1.02678
1.04931
1.08912
1.19274
1.28827
1.29857
1.31255
1.86346
2.20199
1.00808
1.02678
1.04932
1.08911
1.19271
1.28842
1.29834
1.30919
1.84099
2.19496
1.00808
1.02678
1.04932
1.08911
1.19269
1.28854
1.29815
1.3063
1.81834
2.18958
1.00808
1.02678
1.04932
1.08911
1.19269
1.28854
1.29815
1.3063
1.81834
2.18958
1.00808
1.02678
1.04932
1.08911
1.19271
1.28842
1.29834
1.30919
1.84099
2.19496
1.00808
1.02678
1.04931
1.08912
1.19274
1.28827
1.29857
1.31255
1.86346
2.20199
1.00808
1.02678
1.04931
1.08913
1.19277
1.28809
1.29883
1.31648
1.88556
2.20988
1.00808
1.02678
1.04931
1.08913
1.19281
1.28791
1.29906
1.32105
1.90694
2.21718
1.00808
1.02678
1.04931
1.08914
1.19285
1.28771
1.29925
1.32592
1.92719
2.22635
1.00808
1.02678
1.0493
1.08915
1.1929
1.2875
1.29941
1.33107
1.94735
2.24114
1.00808
1.02678
1.0493
1.08915
1.19295
1.28728
1.29953
1.33617
1.96836
2.26477
1.00808
1.02678
1.04929
1.08916
1.193
1.28706
1.2997
1.34114
1.98958
2.29359
1.00808
1.02679
1.04929
1.08917
1.19305
1.28683
1.29989
1.34568
2.009
2.32279
1.00808
1.02679
1.04929
1.08918
1.19311
1.2866
1.30014
1.34983
2.02592
2.35027
1.00808
1.02679
1.04928
1.08918
1.19316
1.28638
1.30044
1.35353
2.04048
2.3759
1.00808
1.02679
1.04928
1.08919
1.19321
1.28616
1.30081
1.35673
2.05316
2.39993
1.00808
1.02679
1.04928
1.0892
1.19326
1.28594
1.30124
1.3594
2.06419
2.42346
1.00808
1.02679
1.04927
1.08921
1.19331
1.28575
1.30172
1.36156
2.07375
2.4465
1.00808
1.02679
1.04927
1.08921
1.19334
1.28557
1.30222
1.36322
2.08185
2.46975
1.00808
1.02679
1.04927
1.08922
1.19338
1.28542
1.30272
1.36445
2.0884
2.49182
1.00808
1.02679
1.04927
1.08922
1.1934
1.2853
1.30313
1.36529
2.09347
2.51283
1.00808
1.02679
1.04927
1.08922
1.19341
1.28523
1.30344
1.36584
2.09697
2.53
1.00808
1.0268
1.04927
1.08922
1.19342
1.28518
1.30358
1.36611
2.09922
2.54178
2.24783
2.24867
2.25142
2.24907
2.23949
2.21488
2.17895
2.1272
2.06409
1.98394
2.25558
2.25251
2.25314
2.24975
2.24157
2.21819
2.18256
2.12941
2.06213
1.97754
2.26383
2.25701
2.25447
2.24925
2.24111
2.21939
2.18539
2.13138
2.06083
1.9716
2.27446
2.26546
2.25915
2.25021
2.2405
2.21865
2.18632
2.13163
2.05898
1.96417
2.28882
2.27814
2.26796
2.25342
2.24162
2.218
2.18568
2.12965
2.0551
1.95572
2.30566
2.29496
2.28423
2.2653
2.24765
2.21893
2.18488
2.12743
2.05082
1.94578
2.32111
2.30997
2.30002
2.27892
2.25648
2.22205
2.18363
2.12265
2.04386
1.9338
2.32906
2.31687
2.30844
2.2878
2.26358
2.225
2.18199
2.11692
2.03485
1.9194
2.33644
2.32274
2.31436
2.2938
2.26871
2.22654
2.1791
2.10895
2.02253
1.90117
2.35663
2.33873
2.32606
2.30201
2.27469
2.23
2.17842
2.10107
2.00786
1.87883
2.38945
2.36763
2.34917
2.31835
2.28632
2.23824
2.18224
2.09878
1.99542
1.85383
2.43319
2.40723
2.3847
2.3469
2.30785
2.25339
2.19133
2.1023
1.98947
1.83035
2.4857
2.45321
2.42778
2.38439
2.33918
2.27752
2.20814
2.11231
1.98943
1.81332
2.54599
2.50497
2.47651
2.42823
2.37826
2.31049
2.23284
2.12971
1.99675
1.80315
2.6117
2.56041
2.52737
2.47349
2.41893
2.34709
2.26284
2.15324
2.01081
1.80099
2.68487
2.62172
2.58329
2.52276
2.46211
2.38632
2.29685
2.18229
2.03127
1.81154
2.76342
2.68231
2.63465
2.56741
2.50236
2.42489
2.33252
2.21455
2.05605
1.83055
2.85558
2.74638
2.68848
2.61447
2.54228
2.46273
2.36934
2.25145
2.0886
1.86381
2.93026
2.78203
2.71212
2.63605
2.55966
2.47621
2.38096
2.26453
2.10162
1.8759
3.14076
2.98378
2.87566
2.77043
2.66824
2.56824
2.46233
2.34523
2.18418
1.99956
1.79563
1.51259
1.25938
1.05893
0.899578
0.777954
0.731521
0.78163
1.09328
1.18505
1.7793
1.48352
1.22585
1.03111
0.875406
0.769326
0.738498
0.809166
1.12151
1.19068
1.76198
1.45274
1.19115
1.00233
0.852993
0.767226
0.747128
0.838402
1.14402
1.19632
1.74333
1.41973
1.15629
0.972292
0.834862
0.770774
0.760737
0.868902
1.16308
1.20284
1.72299
1.38528
1.11974
0.94252
0.81929
0.777303
0.775843
0.899035
1.17981
1.20926
1.70011
1.3485
1.08151
0.917254
0.810769
0.784249
0.789248
0.928195
1.19567
1.21363
1.6744
1.30889
1.04461
0.895498
0.807831
0.78876
0.800244
0.956288
1.21044
1.21693
1.64457
1.26662
1.01171
0.872768
0.805367
0.789822
0.809875
0.984335
1.2239
1.22075
1.60941
1.22303
0.97855
0.854253
0.802373
0.790399
0.821871
1.01366
1.23383
1.22558
1.56664
1.17791
0.941813
0.841822
0.79722
0.791283
0.836152
1.04225
1.24412
1.23138
1.51566
1.12732
0.908696
0.830612
0.786534
0.791408
0.851778
1.06931
1.25508
1.23798
1.45601
1.07134
0.882794
0.815829
0.77512
0.787863
0.868837
1.09401
1.26786
1.24182
1.38818
1.01249
0.857089
0.796276
0.763944
0.784343
0.888653
1.11661
1.27767
1.24339
1.31609
0.951254
0.828746
0.775499
0.752278
0.783185
0.91367
1.13702
1.28011
1.24863
1.24257
0.885213
0.798325
0.75489
0.740494
0.7841
0.942961
1.15359
1.28338
1.25624
1.16927
0.81649
0.769627
0.734038
0.728841
0.796601
0.974655
1.16692
1.29062
1.2654
1.0893
0.751478
0.742336
0.709039
0.71823
0.814626
1.00216
1.17857
1.30106
1.26975
1.00762
0.703014
0.708667
0.680869
0.710536
0.839903
1.02825
1.1885
1.30905
1.26869
0.920351
0.670428
0.669703
0.656485
0.709804
0.870291
1.05324
1.19522
1.30927
1.27258
0.836151
0.65142
0.625737
0.635168
0.717543
0.90218
1.07676
1.19644
1.30561
1.28182
2.03614
1.89999
1.73824
1.56783
1.38592
1.20531
1.03762
0.849197
0.640219
0.650819
2.03581
1.89969
1.73602
1.56518
1.38361
1.20325
1.0356
0.846213
0.64188
0.653148
2.03527
1.89851
1.73285
1.56105
1.37936
1.19935
1.03168
0.841354
0.643904
0.654619
2.0339
1.89525
1.7283
1.55498
1.37312
1.19353
1.02602
0.834444
0.647366
0.65813
2.03141
1.89057
1.72223
1.54739
1.36478
1.18555
1.01822
0.82593
0.649425
0.664891
2.02782
1.88469
1.7141
1.53743
1.35426
1.17556
1.00834
0.815872
0.651429
0.676049
2.02297
1.87727
1.70452
1.52569
1.34183
1.16358
0.99635
0.805014
0.651216
0.694059
2.01719
1.86806
1.6929
1.51209
1.32749
1.14988
0.98239
0.793622
0.648639
0.717796
2.01071
1.85694
1.6795
1.49683
1.31119
1.13424
0.966166
0.781564
0.646788
0.744923
2.00349
1.84404
1.66395
1.47922
1.29256
1.11655
0.947697
0.769365
0.646498
0.776276
1.9952
1.82972
1.64613
1.459
1.27126
1.09652
0.926601
0.756393
0.647745
0.81214
1.98541
1.81351
1.62574
1.43551
1.24686
1.07362
0.903264
0.744315
0.651733
0.853201
1.97379
1.79565
1.60244
1.40827
1.21935
1.04828
0.876763
0.731986
0.661075
0.899599
1.95986
1.77523
1.57485
1.37724
1.18865
1.01969
0.848268
0.721425
0.678624
0.949713
1.94346
1.75065
1.54327
1.34216
1.15481
0.98827
0.817585
0.711703
0.708701
1.00218
1.92502
1.72201
1.50665
1.30265
1.11789
0.953954
0.786156
0.705864
0.756922
1.0518
1.90368
1.68824
1.46529
1.25945
1.0773
0.91535
0.76027
0.701991
0.825231
1.09328
1.87883
1.64957
1.4182
1.21162
1.03313
0.873831
0.744906
0.703659
0.901586
1.12562
1.85079
1.6045
1.36599
1.15972
0.985446
0.832425
0.732756
0.716406
0.978069
1.15092
1.81992
1.55414
1.30751
1.10361
0.934815
0.79777
0.72862
0.748888
1.04722
1.17379
1.81992
1.55416
1.3075
1.10366
0.934771
0.79769
0.728624
0.748825
1.04799
1.17323
1.85079
1.60451
1.36599
1.1597
0.985479
0.832437
0.732706
0.716334
0.977806
1.15083
1.87884
1.64958
1.41821
1.21161
1.03314
0.873874
0.744845
0.703619
0.90119
1.12569
1.90368
1.68825
1.4653
1.25946
1.07731
0.915366
0.76031
0.701978
0.825147
1.09322
1.92502
1.72202
1.50666
1.30266
1.11791
0.95396
0.786152
0.705867
0.756873
1.0517
1.94346
1.75065
1.54327
1.34217
1.15483
0.988278
0.817596
0.711718
0.708685
1.00214
1.95986
1.77523
1.57486
1.37725
1.18866
1.01969
0.848275
0.721447
0.678643
0.949738
1.97379
1.79565
1.60244
1.40827
1.21934
1.04828
0.876771
0.732002
0.661086
0.899619
1.98541
1.8135
1.62574
1.43551
1.24686
1.07362
0.903259
0.74431
0.65173
0.853209
1.9952
1.82973
1.64613
1.459
1.27126
1.09652
0.926596
0.756372
0.647731
0.812127
2.00349
1.84404
1.66395
1.47922
1.29256
1.11654
0.947694
0.76935
0.646487
0.776251
2.01071
1.85695
1.6795
1.49683
1.31119
1.13424
0.966161
0.781552
0.646782
0.744908
2.01719
1.86806
1.6929
1.51209
1.32749
1.14988
0.982387
0.793621
0.648643
0.717806
2.02297
1.87727
1.70452
1.52569
1.34183
1.16358
0.996346
0.805013
0.651227
0.694086
2.02782
1.88469
1.7141
1.53743
1.35426
1.17555
1.00834
0.815871
0.651439
0.676071
2.03141
1.89057
1.72223
1.54739
1.36478
1.18555
1.01821
0.825928
0.64943
0.664906
2.0339
1.89525
1.7283
1.55498
1.37312
1.19353
1.02602
0.834443
0.647365
0.658139
2.03527
1.89851
1.73285
1.56105
1.37936
1.19935
1.03168
0.841354
0.643904
0.654619
2.03581
1.89969
1.73602
1.56518
1.38361
1.20325
1.0356
0.846214
0.64188
0.653138
2.03614
1.89999
1.73824
1.56783
1.38592
1.20532
1.03762
0.849199
0.640217
0.650812
2.24795
2.25118
2.25318
2.24916
2.23554
2.20906
2.17407
2.12565
2.06583
1.99365
2.25153
2.25439
2.25484
2.24752
2.22979
2.20273
2.16916
2.12477
2.0701
2.00721
2.25652
2.25701
2.25329
2.24115
2.22226
2.19671
2.1655
2.12544
2.07692
2.0214
2.25929
2.25694
2.24885
2.23494
2.21703
2.19365
2.16566
2.13056
2.08717
2.03588
2.2607
2.25518
2.24572
2.23221
2.2152
2.19338
2.16655
2.13369
2.09322
2.04666
2.26464
2.25602
2.24633
2.23344
2.21725
2.19632
2.17062
2.13956
2.10149
2.05752
2.27371
2.2615
2.25139
2.23836
2.22204
2.20157
2.176
2.14551
2.10925
2.0676
2.28444
2.2687
2.25773
2.24359
2.22651
2.20587
2.18097
2.15089
2.11633
2.07646
2.29351
2.27561
2.26391
2.24873
2.2312
2.21009
2.18544
2.15575
2.12253
2.08389
2.30124
2.28193
2.26987
2.25373
2.23584
2.2142
2.18981
2.16075
2.12838
2.09057
2.30844
2.28758
2.2749
2.25793
2.23961
2.2179
2.19377
2.16562
2.13365
2.09669
2.31492
2.29245
2.27907
2.26151
2.24276
2.22114
2.19707
2.16975
2.13804
2.10192
2.32048
2.29633
2.2823
2.26434
2.24521
2.22373
2.19965
2.17299
2.14162
2.1063
2.325
2.29928
2.28461
2.2663
2.24684
2.22551
2.20145
2.17526
2.14443
2.10987
2.32875
2.30173
2.28646
2.26776
2.24795
2.22661
2.20258
2.17649
2.14622
2.11242
2.33213
2.30401
2.28813
2.26896
2.24875
2.22713
2.20309
2.17687
2.1471
2.11392
2.3355
2.30654
2.29005
2.27024
2.24952
2.22731
2.20298
2.17654
2.14734
2.11471
2.33852
2.30898
2.292
2.27155
2.25028
2.22732
2.20259
2.1759
2.14708
2.11492
2.34048
2.31071
2.29338
2.27242
2.25062
2.22704
2.20199
2.17501
2.14635
2.11457
2.34154
2.31188
2.29459
2.27341
2.25136
2.22734
2.20205
2.17474
2.14595
2.11427
1.00808
1.02678
1.04932
1.08911
1.19268
1.28864
1.29811
1.30342
1.78915
2.18421
1.00808
1.02677
1.04932
1.0891
1.19268
1.28868
1.2983
1.30087
1.75342
2.18167
1.00808
1.02677
1.04932
1.0891
1.19269
1.28865
1.29863
1.2993
1.71775
2.18039
1.00808
1.02678
1.04932
1.0891
1.19272
1.28855
1.29904
1.29821
1.68284
2.18042
1.00808
1.02678
1.04932
1.0891
1.19277
1.2884
1.29951
1.29736
1.64936
2.18176
1.00808
1.02678
1.04932
1.0891
1.19283
1.28822
1.30001
1.29667
1.61748
2.18248
1.00808
1.02678
1.04931
1.0891
1.1929
1.28801
1.30051
1.29612
1.58741
2.18244
1.00808
1.02678
1.04931
1.0891
1.19298
1.2878
1.30098
1.29566
1.5594
2.18233
1.00808
1.02678
1.04931
1.0891
1.19306
1.28758
1.30141
1.29525
1.53356
2.18238
1.00808
1.02678
1.0493
1.0891
1.19315
1.28738
1.30177
1.29488
1.50984
2.1828
1.00808
1.02678
1.0493
1.0891
1.19324
1.2872
1.30206
1.29456
1.48837
2.18352
1.00808
1.02679
1.0493
1.0891
1.19332
1.28704
1.30226
1.2943
1.46947
2.18424
1.00808
1.02679
1.04929
1.08909
1.1934
1.28692
1.30237
1.29412
1.45347
2.1847
1.00808
1.02679
1.04929
1.08909
1.19347
1.28684
1.30237
1.294
1.44052
2.18463
1.00808
1.02679
1.04929
1.08909
1.19353
1.28679
1.30229
1.29396
1.43052
2.18396
1.00808
1.02679
1.04929
1.08908
1.19359
1.28677
1.30216
1.29396
1.42294
2.18323
1.00808
1.02679
1.04929
1.08908
1.19363
1.28677
1.30204
1.29397
1.41684
2.18292
1.00808
1.02679
1.04929
1.08908
1.19366
1.28677
1.30192
1.29399
1.41233
2.18289
1.00808
1.02679
1.04929
1.08907
1.19368
1.28678
1.30182
1.29401
1.40923
2.1827
1.00808
1.02679
1.04928
1.08907
1.1937
1.28678
1.30173
1.29403
1.4076
2.18275
1.00808
1.02679
1.04928
1.08907
1.1937
1.28678
1.30173
1.29403
1.4076
2.18275
1.00808
1.02679
1.04929
1.08907
1.19368
1.28678
1.30182
1.29401
1.40923
2.1827
1.00808
1.02679
1.04929
1.08908
1.19366
1.28677
1.30192
1.29399
1.41233
2.18289
1.00808
1.02679
1.04929
1.08908
1.19363
1.28677
1.30204
1.29397
1.41684
2.18292
1.00808
1.02679
1.04929
1.08908
1.19359
1.28677
1.30216
1.29396
1.42294
2.18323
1.00808
1.02679
1.04929
1.08909
1.19353
1.28679
1.30229
1.29396
1.43052
2.18396
1.00808
1.02679
1.04929
1.08909
1.19347
1.28684
1.30237
1.294
1.44052
2.18463
1.00808
1.02679
1.04929
1.08909
1.1934
1.28692
1.30237
1.29412
1.45347
2.1847
1.00808
1.02679
1.0493
1.0891
1.19332
1.28704
1.30226
1.2943
1.46947
2.18424
1.00808
1.02678
1.0493
1.0891
1.19324
1.2872
1.30206
1.29456
1.48837
2.18352
1.00808
1.02678
1.0493
1.0891
1.19315
1.28738
1.30177
1.29488
1.50984
2.1828
1.00808
1.02678
1.04931
1.0891
1.19306
1.28758
1.30141
1.29525
1.53356
2.18238
1.00808
1.02678
1.04931
1.0891
1.19298
1.2878
1.30098
1.29566
1.5594
2.18233
1.00808
1.02678
1.04931
1.0891
1.1929
1.28801
1.30051
1.29612
1.58741
2.18244
1.00808
1.02678
1.04932
1.0891
1.19283
1.28822
1.30001
1.29667
1.61748
2.18248
1.00808
1.02678
1.04932
1.0891
1.19277
1.2884
1.29951
1.29736
1.64936
2.18176
1.00808
1.02678
1.04932
1.0891
1.19272
1.28855
1.29904
1.29821
1.68284
2.18042
1.00808
1.02677
1.04932
1.0891
1.19269
1.28865
1.29863
1.2993
1.71775
2.18039
1.00808
1.02677
1.04932
1.0891
1.19268
1.28868
1.2983
1.30087
1.75342
2.18167
1.00808
1.02678
1.04932
1.08911
1.19268
1.28864
1.29811
1.30342
1.78915
2.18421
2.34154
2.31188
2.29459
2.27341
2.25136
2.22734
2.20205
2.17474
2.14595
2.11427
2.34048
2.31071
2.29338
2.27242
2.25062
2.22704
2.20199
2.17501
2.14635
2.11457
2.33852
2.30898
2.292
2.27155
2.25028
2.22732
2.20259
2.1759
2.14708
2.11492
2.3355
2.30654
2.29005
2.27024
2.24952
2.22731
2.20298
2.17654
2.14734
2.11471
2.33213
2.30401
2.28813
2.26896
2.24875
2.22713
2.20309
2.17687
2.1471
2.11391
2.32875
2.30173
2.28646
2.26776
2.24795
2.22661
2.20258
2.17649
2.14622
2.11241
2.325
2.29928
2.28461
2.2663
2.24683
2.22551
2.20145
2.17526
2.14443
2.10987
2.32048
2.29633
2.2823
2.26434
2.24521
2.22373
2.19965
2.17299
2.14162
2.1063
2.31492
2.29245
2.27907
2.26151
2.24276
2.22114
2.19707
2.16975
2.13803
2.10192
2.30844
2.28758
2.2749
2.25793
2.23961
2.21789
2.19377
2.16562
2.13365
2.09669
2.30124
2.28193
2.26987
2.25373
2.23584
2.2142
2.18981
2.16075
2.12838
2.09057
2.29351
2.27561
2.2639
2.24872
2.2312
2.21009
2.18544
2.15575
2.12253
2.08389
2.28444
2.26869
2.25773
2.24359
2.22651
2.20586
2.18097
2.15089
2.11634
2.07646
2.27371
2.26149
2.25139
2.23836
2.22204
2.20157
2.176
2.14551
2.10925
2.0676
2.26464
2.25602
2.24633
2.23344
2.21725
2.19632
2.17062
2.13956
2.10149
2.05752
2.2607
2.25518
2.24572
2.23221
2.2152
2.19338
2.16655
2.13369
2.09322
2.04666
2.25929
2.25694
2.24885
2.23494
2.21703
2.19365
2.16566
2.13056
2.08717
2.03589
2.25652
2.25701
2.25329
2.24115
2.22226
2.19671
2.1655
2.12544
2.07692
2.0214
2.25153
2.25439
2.25484
2.24752
2.22979
2.20273
2.16916
2.12477
2.0701
2.00721
2.24795
2.25118
2.25318
2.24916
2.23554
2.20906
2.17407
2.12565
2.06583
1.99364
)
;

boundaryField
{
    inlet
    {
        type            fixedValue;
        value           uniform 1;
    }
    outlet
    {
        type            zeroGradient;
    }
    triangle
    {
        type            zeroGradient;
    }
    top
    {
        type            symmetryPlane;
    }
    bottom
    {
        type            symmetryPlane;
    }
    defaultFaces
    {
        type            empty;
    }
}


// ************************************************************************* //
