/*--------------------------------*- C++ -*----------------------------------*\
  =========                 |
  \\      /  F ield         | OpenFOAM: The Open Source CFD Toolbox
   \\    /   O peration     | Website:  https://openfoam.org
    \\  /    A nd           | Version:  8
     \\/     M anipulation  |
\*---------------------------------------------------------------------------*/
FoamFile
{
    version     2.0;
    format      ascii;
    class       volScalarField;
    location    "1.4";
    object      rho;
}
// * * * * * * * * * * * * * * * * * * * * * * * * * * * * * * * * * * * * * //

dimensions      [1 -3 0 0 0 0 0];

internalField   nonuniform List<scalar> 
2600
(
0.891643
0.804464
0.790302
0.88098
1.04134
1.28334
1.45969
1.55997
1.66377
1.65016
0.890042
0.789265
0.756914
0.84385
1.03227
1.28629
1.45672
1.55986
1.66787
1.65242
0.894978
0.782391
0.736924
0.816632
1.0212
1.27827
1.43491
1.55134
1.66784
1.63673
0.898821
0.77901
0.726027
0.793483
0.998988
1.25925
1.40199
1.5046
1.63373
1.61213
0.902564
0.773563
0.720131
0.77796
0.967925
1.21676
1.34776
1.44868
1.58533
1.59727
0.905776
0.77299
0.716277
0.764405
0.935452
1.16222
1.28613
1.3938
1.53936
1.5687
0.906689
0.775452
0.712834
0.758978
0.916997
1.12244
1.24034
1.34808
1.49101
1.52961
0.910994
0.778811
0.710127
0.76106
0.915796
1.11086
1.22677
1.33387
1.46225
1.49306
0.912544
0.781545
0.709448
0.764109
0.921343
1.1171
1.23012
1.33536
1.45519
1.46476
0.91536
0.783286
0.710969
0.769997
0.927213
1.11974
1.23016
1.33448
1.45031
1.46529
0.915385
0.784386
0.713281
0.770381
0.927075
1.1197
1.23029
1.3345
1.44482
1.47369
0.912574
0.782707
0.710612
0.764091
0.921249
1.11717
1.23018
1.33509
1.4485
1.4879
0.911012
0.778881
0.70986
0.760473
0.915803
1.11095
1.22665
1.33332
1.46198
1.4939
0.906563
0.775011
0.712679
0.759503
0.917108
1.12242
1.24022
1.34759
1.49208
1.51908
0.905583
0.772586
0.71602
0.764773
0.935539
1.16265
1.28542
1.39381
1.54488
1.55814
0.902781
0.773446
0.719601
0.777898
0.968288
1.216
1.34702
1.45079
1.58939
1.59399
0.899317
0.77918
0.726001
0.793881
0.999071
1.25835
1.40404
1.50569
1.62522
1.63008
0.895116
0.782634
0.737101
0.817106
1.02134
1.27902
1.43472
1.55
1.6657
1.64311
0.890011
0.789663
0.757162
0.84377
1.03227
1.28663
1.45483
1.55942
1.67424
1.64049
0.891686
0.804152
0.789434
0.880707
1.0417
1.28304
1.45847
1.561
1.66825
1.6392
1.04695
0.838608
0.852648
0.926771
1.04877
1.26809
1.45098
1.56356
1.6636
1.64089
1.21101
0.914349
0.946355
0.980236
1.05737
1.24327
1.43224
1.56391
1.66399
1.64248
1.34582
1.00033
1.02933
1.02784
1.06956
1.21595
1.40832
1.55783
1.66627
1.63857
1.45167
1.08314
1.0914
1.07269
1.08618
1.19203
1.3821
1.5477
1.66347
1.62966
1.54487
1.17145
1.13589
1.1082
1.10326
1.17492
1.35526
1.53713
1.65428
1.62109
1.62184
1.25643
1.17631
1.13443
1.11737
1.16328
1.3254
1.52638
1.64412
1.6151
1.69256
1.3317
1.21369
1.15732
1.13021
1.16313
1.29793
1.51357
1.63749
1.61303
1.75785
1.39717
1.24418
1.17898
1.14335
1.16527
1.27414
1.49625
1.63569
1.60965
1.81729
1.4569
1.27
1.19913
1.15636
1.17043
1.25524
1.47592
1.63149
1.60332
1.86903
1.51173
1.29585
1.21469
1.16946
1.17521
1.23885
1.45384
1.62129
1.59673
1.91386
1.56054
1.3294
1.22708
1.18139
1.17626
1.22366
1.42952
1.61004
1.59222
1.95282
1.60423
1.36714
1.24126
1.18781
1.17641
1.20954
1.40266
1.60011
1.58914
1.98646
1.64694
1.40167
1.26201
1.19235
1.17653
1.19749
1.37374
1.59186
1.58653
2.01621
1.68887
1.43621
1.28692
1.1964
1.17639
1.18774
1.34558
1.58393
1.58294
2.04237
1.72852
1.47481
1.31082
1.20125
1.17262
1.17631
1.31759
1.57301
1.57826
2.06535
1.76533
1.51455
1.33855
1.21134
1.16615
1.16165
1.28851
1.55859
1.57337
2.08486
1.7994
1.5523
1.37086
1.22875
1.15956
1.14494
1.25802
1.54059
1.56931
2.10133
1.83125
1.58792
1.40298
1.24903
1.15566
1.13034
1.2264
1.51967
1.56644
2.11508
1.85994
1.6227
1.43314
1.27328
1.15755
1.12104
1.19565
1.49586
1.56166
2.12687
1.88577
1.65526
1.46158
1.29852
1.16648
1.11348
1.16655
1.46866
1.55573
3.09238
2.97922
2.898
2.81896
2.74273
2.66828
2.58892
2.50022
2.37691
2.21966
2.95025
2.84203
2.78868
2.73097
2.6731
2.60974
2.53694
2.44719
2.32024
2.1363
2.90794
2.82888
2.78744
2.73312
2.67865
2.61763
2.54534
2.45361
2.32539
2.1458
2.84982
2.79052
2.75676
2.70789
2.65933
2.60024
2.5287
2.43634
2.31022
2.12784
2.79864
2.75176
2.72359
2.67877
2.63339
2.57577
2.50663
2.41673
2.29591
2.11606
2.74886
2.71036
2.68544
2.64461
2.60304
2.54788
2.48248
2.39624
2.28195
2.10882
2.70216
2.67095
2.64901
2.6118
2.57314
2.52052
2.45978
2.37825
2.27135
2.11117
2.65656
2.63144
2.61156
2.57787
2.54269
2.49459
2.44008
2.36411
2.26541
2.12001
2.61392
2.59399
2.57665
2.54747
2.5172
2.47484
2.42622
2.35591
2.26542
2.13454
2.57829
2.56217
2.54853
2.52508
2.50046
2.46328
2.41973
2.35399
2.271
2.15509
2.55642
2.54294
2.53369
2.51552
2.49454
2.45985
2.41952
2.35827
2.28334
2.17814
2.54854
2.53716
2.53058
2.51485
2.49554
2.46257
2.42499
2.36901
2.29933
2.20055
2.55313
2.54091
2.53268
2.51614
2.49778
2.46792
2.43378
2.3814
2.31468
2.22056
2.55432
2.54292
2.53279
2.51518
2.49809
2.47158
2.44102
2.39162
2.32725
2.23727
2.54559
2.53601
2.52617
2.51027
2.49611
2.47318
2.44558
2.399
2.33673
2.25101
2.53472
2.52581
2.51703
2.50455
2.49415
2.47416
2.44745
2.40224
2.34229
2.26162
2.52679
2.51772
2.51085
2.50238
2.49347
2.47462
2.44782
2.40378
2.34572
2.26922
2.51861
2.51012
2.50533
2.49979
2.49221
2.47382
2.44585
2.40224
2.34579
2.27409
2.50502
2.50049
2.49946
2.49593
2.48873
2.46975
2.44102
2.39817
2.34422
2.27631
2.48786
2.48879
2.49131
2.48953
2.48227
2.46323
2.43486
2.39331
2.34271
2.27852
1.40808
1.4267
1.44895
1.4882
1.58849
1.6744
1.69153
1.74794
2.37415
2.68428
1.40808
1.4267
1.44895
1.4882
1.58848
1.67444
1.6914
1.74767
2.37217
2.6777
1.40808
1.4267
1.44895
1.4882
1.58847
1.67451
1.69111
1.74711
2.36864
2.66931
1.40808
1.4267
1.44895
1.4882
1.58844
1.67462
1.69072
1.74627
2.36341
2.6583
1.40808
1.4267
1.44895
1.48819
1.58841
1.67476
1.69027
1.74508
2.3568
2.64544
1.40808
1.4267
1.44895
1.48818
1.58838
1.67492
1.6898
1.74352
2.34907
2.63045
1.40808
1.4267
1.44896
1.48818
1.58834
1.6751
1.68935
1.74154
2.34049
2.61504
1.40808
1.4267
1.44896
1.48817
1.58829
1.6753
1.68896
1.7391
2.33108
2.5999
1.40808
1.4267
1.44896
1.48816
1.58824
1.67551
1.68861
1.7362
2.32045
2.58613
1.40808
1.4267
1.44897
1.48816
1.58819
1.67572
1.68833
1.73287
2.30795
2.57267
1.40808
1.42669
1.44897
1.48815
1.58814
1.67593
1.6881
1.72914
2.29281
2.55763
1.40808
1.42669
1.44897
1.48814
1.58809
1.67614
1.68793
1.72509
2.27512
2.53948
1.40808
1.42669
1.44898
1.48813
1.58804
1.67635
1.68776
1.72069
2.25599
2.5184
1.40808
1.42669
1.44898
1.48813
1.58799
1.67655
1.68766
1.7162
2.23772
2.49731
1.40808
1.42669
1.44898
1.48812
1.58795
1.67675
1.68751
1.71169
2.2212
2.48064
1.40808
1.42669
1.44899
1.48811
1.58791
1.67693
1.68733
1.70742
2.20547
2.46807
1.40808
1.42669
1.44899
1.48811
1.58788
1.67711
1.68712
1.70338
2.18925
2.45742
1.40808
1.42669
1.44899
1.4881
1.58785
1.67727
1.68687
1.69983
2.17241
2.44809
1.40808
1.42669
1.449
1.4881
1.58782
1.67741
1.68666
1.69674
2.15499
2.44193
1.40808
1.42668
1.449
1.48809
1.5878
1.67752
1.68648
1.69407
2.13691
2.44026
1.40808
1.42668
1.449
1.48809
1.5878
1.67752
1.68648
1.69407
2.13691
2.44026
1.40808
1.42669
1.449
1.4881
1.58782
1.67741
1.68666
1.69674
2.15499
2.44193
1.40808
1.42669
1.44899
1.4881
1.58785
1.67727
1.68687
1.69983
2.17241
2.44809
1.40808
1.42669
1.44899
1.48811
1.58788
1.67711
1.68712
1.70338
2.18925
2.45742
1.40808
1.42669
1.44899
1.48811
1.58791
1.67693
1.68733
1.70742
2.20547
2.46807
1.40808
1.42669
1.44898
1.48812
1.58795
1.67675
1.68751
1.71169
2.22119
2.48064
1.40808
1.42669
1.44898
1.48813
1.58799
1.67655
1.68766
1.7162
2.23772
2.49731
1.40808
1.42669
1.44898
1.48813
1.58804
1.67635
1.68776
1.72069
2.25599
2.5184
1.40808
1.42669
1.44897
1.48814
1.58809
1.67614
1.68793
1.72509
2.27512
2.53949
1.40808
1.42669
1.44897
1.48815
1.58814
1.67593
1.6881
1.72914
2.29281
2.55763
1.40808
1.4267
1.44897
1.48816
1.58819
1.67572
1.68833
1.73287
2.30795
2.57267
1.40808
1.4267
1.44896
1.48816
1.58824
1.67551
1.68861
1.7362
2.32045
2.58613
1.40808
1.4267
1.44896
1.48817
1.58829
1.6753
1.68896
1.7391
2.33108
2.5999
1.40808
1.4267
1.44896
1.48818
1.58834
1.6751
1.68935
1.74154
2.34049
2.61504
1.40808
1.4267
1.44895
1.48818
1.58838
1.67492
1.6898
1.74352
2.34907
2.63045
1.40808
1.4267
1.44895
1.48819
1.58841
1.67476
1.69027
1.74508
2.3568
2.64544
1.40808
1.4267
1.44895
1.4882
1.58844
1.67462
1.69072
1.74627
2.36341
2.6583
1.40808
1.4267
1.44895
1.4882
1.58847
1.67451
1.69111
1.74711
2.36864
2.66931
1.40808
1.4267
1.44895
1.4882
1.58848
1.67444
1.6914
1.74767
2.37217
2.6777
1.40808
1.4267
1.44895
1.4882
1.58849
1.6744
1.69153
1.74794
2.37415
2.68428
2.48786
2.48879
2.49131
2.48953
2.48227
2.46323
2.43486
2.39331
2.34271
2.27852
2.50502
2.5005
2.49947
2.49593
2.48873
2.46975
2.44102
2.39817
2.34422
2.27631
2.51861
2.51012
2.50533
2.49979
2.49221
2.47382
2.44585
2.40224
2.34579
2.27409
2.52679
2.51772
2.51085
2.50238
2.49347
2.47462
2.44782
2.40378
2.34572
2.26922
2.53472
2.52581
2.51703
2.50455
2.49415
2.47416
2.44745
2.40223
2.34229
2.26162
2.54559
2.53601
2.52617
2.51027
2.49611
2.47318
2.44558
2.399
2.33673
2.25101
2.55432
2.54292
2.53279
2.51518
2.49809
2.47158
2.44102
2.39162
2.32725
2.23727
2.55313
2.54091
2.53268
2.51614
2.49778
2.46792
2.43378
2.3814
2.31468
2.22056
2.54854
2.53716
2.53058
2.51485
2.49553
2.46257
2.42499
2.36901
2.29933
2.20055
2.55642
2.54294
2.53369
2.51552
2.49454
2.45985
2.41952
2.35827
2.28334
2.17814
2.57829
2.56217
2.54853
2.52508
2.50046
2.46328
2.41973
2.35399
2.271
2.15509
2.61392
2.59399
2.57665
2.54747
2.5172
2.47483
2.42622
2.35591
2.26543
2.13454
2.65656
2.63144
2.61156
2.57787
2.54269
2.49459
2.44008
2.36411
2.26541
2.12002
2.70217
2.67095
2.64901
2.6118
2.57314
2.52052
2.45978
2.37825
2.27135
2.11119
2.74886
2.71036
2.68544
2.64461
2.60303
2.54788
2.48248
2.39624
2.28195
2.10882
2.79864
2.75176
2.72359
2.67877
2.63339
2.57577
2.50663
2.41673
2.29591
2.11604
2.84982
2.79052
2.75676
2.70789
2.65933
2.60024
2.5287
2.43634
2.31023
2.12781
2.90794
2.82888
2.78744
2.73312
2.67865
2.61763
2.54534
2.45361
2.32539
2.14578
2.95025
2.84203
2.78868
2.73097
2.6731
2.60974
2.53694
2.44719
2.32024
2.13628
3.09238
2.97922
2.898
2.81896
2.74273
2.66828
2.58892
2.50022
2.37691
2.21964
2.12687
1.88575
1.65524
1.46157
1.29848
1.1665
1.11346
1.16669
1.46802
1.55569
2.11508
1.85993
1.62268
1.43313
1.27318
1.1575
1.12101
1.19578
1.49711
1.56093
2.10133
1.83124
1.58789
1.40291
1.24903
1.15559
1.13025
1.22628
1.52116
1.56577
2.08485
1.79938
1.55221
1.37082
1.2289
1.15945
1.14489
1.25764
1.54109
1.57092
2.06535
1.76528
1.51444
1.33864
1.21125
1.16607
1.16169
1.28818
1.55743
1.57573
2.04236
1.72845
1.47476
1.31095
1.20086
1.17266
1.1765
1.31763
1.5716
1.57876
2.0162
1.6888
1.43624
1.28688
1.19627
1.17653
1.18806
1.34587
1.58366
1.58122
1.98645
1.6469
1.40169
1.26187
1.19237
1.17675
1.19773
1.37364
1.59391
1.58462
1.9528
1.60422
1.36713
1.24129
1.18799
1.17647
1.20963
1.40213
1.60122
1.58905
1.91383
1.56057
1.3294
1.2272
1.18154
1.17622
1.22369
1.42932
1.60956
1.59422
1.869
1.51175
1.29585
1.21469
1.16944
1.17516
1.23891
1.45439
1.61884
1.60014
1.81726
1.45681
1.27005
1.19891
1.15635
1.17041
1.25532
1.47654
1.6298
1.60372
1.75785
1.3969
1.24421
1.17866
1.14338
1.16533
1.27416
1.49607
1.63808
1.60535
1.69259
1.33136
1.2136
1.15714
1.13016
1.16316
1.29795
1.51303
1.63997
1.61046
1.62189
1.25628
1.17608
1.13451
1.11722
1.16324
1.32565
1.52645
1.64293
1.6179
1.54489
1.17162
1.1357
1.10843
1.10318
1.17488
1.35577
1.53765
1.64981
1.62705
1.45163
1.08333
1.09139
1.07294
1.08624
1.19189
1.38239
1.54841
1.66009
1.63181
1.3457
0.999973
1.02931
1.02795
1.06956
1.21586
1.40803
1.55823
1.66823
1.63123
1.21083
0.913955
0.94625
0.980139
1.05706
1.24359
1.43176
1.56407
1.66856
1.63468
1.04695
0.839204
0.853091
0.926578
1.04817
1.26868
1.4509
1.56265
1.6641
1.64196
2.31429
2.20128
2.06417
1.91711
1.75694
1.59302
1.4342
1.24525
1.01626
1.02763
2.31416
2.20119
2.06249
1.91501
1.75505
1.59121
1.43227
1.24212
1.01814
1.03026
2.31416
2.20073
2.06043
1.9121
1.75182
1.58791
1.42857
1.23701
1.02049
1.0319
2.31383
2.19899
2.05769
1.90799
1.74719
1.58302
1.42321
1.22967
1.02442
1.03577
2.31288
2.19642
2.05408
1.90294
1.74089
1.57615
1.41566
1.22052
1.02666
1.04311
2.31114
2.19305
2.04897
1.89596
1.7326
1.56724
1.40591
1.20959
1.02876
1.05504
2.30828
2.18842
2.04267
1.88737
1.72237
1.55622
1.39386
1.19765
1.02829
1.07412
2.30445
2.18216
2.0345
1.87693
1.71015
1.54332
1.37967
1.18503
1.02505
1.09901
2.29993
2.17417
2.02448
1.86466
1.69584
1.52841
1.36311
1.17161
1.02265
1.12691
2.29511
2.16456
2.01204
1.84969
1.67901
1.51141
1.34422
1.15802
1.02209
1.15846
2.2901
2.15351
1.99681
1.83157
1.65922
1.492
1.32261
1.14364
1.02318
1.19377
2.28436
2.14018
1.97835
1.80963
1.63595
1.46955
1.29857
1.1303
1.02726
1.23368
2.2766
2.12441
1.95649
1.78362
1.60918
1.44435
1.27099
1.11672
1.03735
1.27869
2.26511
2.1054
1.93061
1.75403
1.57908
1.41554
1.24092
1.10501
1.05652
1.32776
2.24935
2.0824
1.90175
1.72133
1.54606
1.38359
1.20807
1.09392
1.08939
1.38043
2.23055
2.05649
1.86974
1.68566
1.51054
1.34858
1.17396
1.08664
1.14149
1.43141
2.20966
2.02772
1.83496
1.64756
1.47202
1.30916
1.14546
1.08182
1.21266
1.47266
2.18787
1.99655
1.79579
1.60535
1.43019
1.26659
1.1283
1.0834
1.28752
1.5023
2.16606
1.96095
1.7515
1.55832
1.38433
1.22373
1.11486
1.09688
1.3589
1.52437
2.14389
1.9205
1.69973
1.50534
1.33426
1.18746
1.1103
1.1318
1.42352
1.5451
2.14389
1.92051
1.69972
1.50539
1.33422
1.18738
1.1103
1.13173
1.42428
1.54454
2.16606
1.96096
1.7515
1.55831
1.38436
1.22374
1.11481
1.09681
1.35866
1.52428
2.18787
1.99656
1.7958
1.60534
1.43019
1.26663
1.12823
1.08336
1.28713
1.50237
2.20966
2.02773
1.83497
1.64758
1.47203
1.30918
1.1455
1.0818
1.21257
1.47262
2.23055
2.0565
1.86975
1.68567
1.51056
1.34859
1.17395
1.08665
1.14144
1.43132
2.24935
2.08241
1.90176
1.72134
1.54607
1.3836
1.20808
1.09394
1.08938
1.3804
2.26511
2.1054
1.93061
1.75404
1.57908
1.41555
1.24093
1.10504
1.05654
1.32778
2.2766
2.12441
1.95649
1.78362
1.60918
1.44435
1.27099
1.11674
1.03736
1.27871
2.28436
2.14018
1.97834
1.80963
1.63595
1.46955
1.29856
1.13029
1.02725
1.23369
2.2901
2.15351
1.99681
1.83157
1.65922
1.492
1.32261
1.14362
1.02316
1.19376
2.29511
2.16456
2.01204
1.84969
1.67901
1.51141
1.34422
1.15801
1.02208
1.15843
2.29993
2.17417
2.02448
1.86466
1.69584
1.52841
1.3631
1.1716
1.02265
1.12689
2.30445
2.18216
2.0345
1.87693
1.71015
1.54332
1.37967
1.18502
1.02506
1.09902
2.30829
2.18842
2.04267
1.88737
1.72237
1.55621
1.39386
1.19765
1.0283
1.07415
2.31115
2.19306
2.04897
1.89596
1.7326
1.56724
1.40591
1.20959
1.02878
1.05507
2.31288
2.19642
2.05408
1.90294
1.74089
1.57615
1.41566
1.22052
1.02666
1.04312
2.31383
2.19899
2.05769
1.90799
1.74719
1.58302
1.42321
1.22967
1.02442
1.03578
2.31416
2.20073
2.06043
1.9121
1.75182
1.58791
1.42857
1.23701
1.02049
1.0319
2.31416
2.20119
2.06249
1.91502
1.75505
1.59121
1.43227
1.24212
1.01814
1.03025
2.31429
2.20128
2.06417
1.91711
1.75694
1.59302
1.4342
1.24525
1.01626
1.02762
2.48142
2.4853
2.48821
2.48579
2.47578
2.45545
2.42806
2.3896
2.34157
2.28343
2.48549
2.48853
2.48967
2.48464
2.47114
2.45008
2.42375
2.38852
2.34433
2.29284
2.49553
2.49645
2.4937
2.48431
2.46956
2.44941
2.42447
2.39185
2.35205
2.30577
2.5093
2.50685
2.4995
2.48776
2.47314
2.45415
2.43122
2.40201
2.36544
2.32177
2.52118
2.51378
2.5037
2.49107
2.47658
2.45872
2.43685
2.40974
2.37574
2.33567
2.52528
2.51518
2.50454
2.49238
2.47869
2.46184
2.4414
2.41655
2.38549
2.34841
2.523
2.51234
2.50347
2.49271
2.47978
2.4639
2.44416
2.42043
2.39168
2.35759
2.51957
2.50786
2.50029
2.4902
2.47769
2.4623
2.44353
2.42059
2.39387
2.36227
2.5197
2.50675
2.49921
2.48883
2.47638
2.4609
2.44246
2.4199
2.39434
2.3642
2.52285
2.50884
2.50106
2.48999
2.47729
2.4614
2.44309
2.42084
2.39578
2.36625
2.52757
2.51232
2.50405
2.49231
2.47925
2.46325
2.44508
2.42345
2.39854
2.36944
2.53219
2.51569
2.5069
2.4947
2.48132
2.46542
2.44731
2.42634
2.40159
2.37302
2.53598
2.51819
2.50891
2.49642
2.48278
2.46703
2.44894
2.42853
2.40407
2.37612
2.53878
2.51976
2.50999
2.49724
2.48333
2.4677
2.44965
2.42961
2.40561
2.37832
2.54094
2.52089
2.51061
2.49753
2.48332
2.46766
2.44963
2.42966
2.4061
2.3794
2.54293
2.52198
2.51115
2.49762
2.48306
2.46715
2.44907
2.429
2.40582
2.37958
2.54504
2.5234
2.51203
2.49792
2.48289
2.46644
2.4481
2.42782
2.40507
2.37927
2.54699
2.52488
2.51308
2.49842
2.48291
2.46583
2.44712
2.42662
2.40415
2.37871
2.54826
2.52596
2.51385
2.49878
2.48283
2.46525
2.44627
2.42551
2.40316
2.37804
2.54899
2.52678
2.5147
2.49944
2.48328
2.46535
2.44619
2.42517
2.40271
2.37767
1.40808
1.42668
1.449
1.48809
1.58779
1.67761
1.68646
1.69139
2.11277
2.44105
1.40808
1.42668
1.449
1.48808
1.58779
1.67765
1.68664
1.68903
2.08257
2.44362
1.40808
1.42668
1.449
1.48808
1.58781
1.67761
1.68695
1.68757
2.0522
2.44404
1.40808
1.42668
1.449
1.48808
1.58784
1.67751
1.68734
1.68656
2.02253
2.44242
1.40808
1.42668
1.449
1.48808
1.58788
1.67736
1.68778
1.68577
1.99425
2.44037
1.40808
1.42669
1.44899
1.48808
1.58794
1.67718
1.68824
1.68514
1.96749
2.43928
1.40808
1.42669
1.44899
1.48808
1.58801
1.67698
1.68871
1.68463
1.94229
2.4402
1.40808
1.42669
1.44899
1.48808
1.58808
1.67677
1.68914
1.6842
1.9186
2.44228
1.40808
1.42669
1.44899
1.48808
1.58817
1.67657
1.68954
1.68382
1.89638
2.44451
1.40808
1.42669
1.44898
1.48808
1.58825
1.67637
1.68988
1.68348
1.87569
2.44622
1.40808
1.42669
1.44898
1.48808
1.58833
1.67619
1.69014
1.68319
1.85675
2.44741
1.40808
1.42669
1.44898
1.48808
1.58842
1.67604
1.69033
1.68295
1.83992
2.44817
1.40808
1.4267
1.44897
1.48807
1.58849
1.67592
1.69043
1.68278
1.82558
2.44845
1.40808
1.4267
1.44897
1.48807
1.58856
1.67584
1.69044
1.68267
1.81392
2.44808
1.40808
1.4267
1.44897
1.48807
1.58862
1.67579
1.69036
1.68263
1.80489
2.44717
1.40808
1.4267
1.44897
1.48806
1.58867
1.67577
1.69024
1.68264
1.79805
2.4462
1.40808
1.4267
1.44897
1.48806
1.58871
1.67576
1.69013
1.68265
1.79254
2.44556
1.40808
1.4267
1.44896
1.48806
1.58875
1.67576
1.69001
1.68267
1.78845
2.44517
1.40807
1.4267
1.44896
1.48805
1.58877
1.67576
1.68993
1.68269
1.78563
2.44471
1.40807
1.4267
1.44896
1.48805
1.58878
1.67576
1.68984
1.68271
1.78413
2.44461
1.40807
1.4267
1.44896
1.48805
1.58878
1.67576
1.68984
1.68271
1.78413
2.44461
1.40807
1.4267
1.44896
1.48805
1.58877
1.67576
1.68993
1.68269
1.78563
2.44471
1.40808
1.4267
1.44896
1.48806
1.58875
1.67576
1.69001
1.68267
1.78845
2.44517
1.40808
1.4267
1.44897
1.48806
1.58871
1.67576
1.69013
1.68265
1.79254
2.44556
1.40808
1.4267
1.44897
1.48806
1.58867
1.67577
1.69024
1.68264
1.79805
2.4462
1.40808
1.4267
1.44897
1.48807
1.58862
1.67579
1.69036
1.68263
1.80489
2.44717
1.40808
1.4267
1.44897
1.48807
1.58856
1.67584
1.69044
1.68267
1.81392
2.44808
1.40808
1.4267
1.44897
1.48807
1.58849
1.67592
1.69043
1.68278
1.82558
2.44845
1.40808
1.42669
1.44898
1.48808
1.58842
1.67604
1.69033
1.68295
1.83992
2.44817
1.40808
1.42669
1.44898
1.48808
1.58833
1.67619
1.69014
1.68319
1.85675
2.44741
1.40808
1.42669
1.44898
1.48808
1.58825
1.67637
1.68988
1.68348
1.87569
2.44622
1.40808
1.42669
1.44899
1.48808
1.58817
1.67657
1.68954
1.68382
1.89638
2.44451
1.40808
1.42669
1.44899
1.48808
1.58808
1.67677
1.68914
1.6842
1.9186
2.44228
1.40808
1.42669
1.44899
1.48808
1.58801
1.67698
1.68871
1.68463
1.94229
2.4402
1.40808
1.42669
1.44899
1.48808
1.58794
1.67718
1.68824
1.68514
1.96749
2.43928
1.40808
1.42668
1.449
1.48808
1.58788
1.67736
1.68778
1.68577
1.99425
2.44037
1.40808
1.42668
1.449
1.48808
1.58784
1.67751
1.68734
1.68656
2.02253
2.44242
1.40808
1.42668
1.449
1.48808
1.58781
1.67761
1.68695
1.68757
2.0522
2.44404
1.40808
1.42668
1.449
1.48808
1.58779
1.67765
1.68664
1.68903
2.08257
2.44362
1.40808
1.42668
1.449
1.48809
1.58779
1.67761
1.68646
1.69139
2.11277
2.44105
2.54899
2.52678
2.5147
2.49944
2.48328
2.46535
2.44619
2.42517
2.40271
2.37767
2.54826
2.52596
2.51385
2.49878
2.48283
2.46525
2.44627
2.42551
2.40316
2.37804
2.54699
2.52488
2.51308
2.49842
2.48291
2.46583
2.44712
2.42662
2.40415
2.37871
2.54504
2.5234
2.51203
2.49792
2.48289
2.46644
2.4481
2.42782
2.40507
2.37927
2.54292
2.52198
2.51115
2.49762
2.48306
2.46715
2.44907
2.429
2.40582
2.37957
2.54094
2.52089
2.51061
2.49753
2.48332
2.46766
2.44962
2.42966
2.4061
2.3794
2.53878
2.51976
2.50999
2.49724
2.48333
2.4677
2.44965
2.42961
2.40561
2.37831
2.53598
2.51819
2.50891
2.49642
2.48278
2.46702
2.44894
2.42853
2.40407
2.37612
2.53219
2.51569
2.5069
2.4947
2.48132
2.46542
2.44731
2.42633
2.40159
2.37302
2.52757
2.51232
2.50405
2.49231
2.47925
2.46325
2.44508
2.42345
2.39854
2.36944
2.52285
2.50883
2.50106
2.48998
2.47729
2.4614
2.44309
2.42084
2.39578
2.36625
2.5197
2.50675
2.49921
2.48882
2.47638
2.4609
2.44246
2.4199
2.39434
2.3642
2.51957
2.50786
2.50029
2.4902
2.47769
2.4623
2.44353
2.42059
2.39387
2.36227
2.523
2.51234
2.50347
2.49271
2.47978
2.4639
2.44416
2.42043
2.39168
2.35759
2.52528
2.51518
2.50454
2.49238
2.47869
2.46184
2.4414
2.41655
2.38549
2.34841
2.52118
2.51378
2.50369
2.49107
2.47658
2.45872
2.43685
2.40974
2.37574
2.33567
2.5093
2.50685
2.4995
2.48776
2.47314
2.45415
2.43122
2.40201
2.36544
2.32177
2.49553
2.49644
2.4937
2.48431
2.46956
2.44941
2.42447
2.39185
2.35205
2.30577
2.48549
2.48853
2.48967
2.48464
2.47114
2.45008
2.42375
2.38852
2.34433
2.29284
2.48142
2.4853
2.48821
2.48579
2.47578
2.45545
2.42806
2.3896
2.34157
2.28342
)
;

boundaryField
{
    inlet
    {
        type            calculated;
        value           uniform 1.40001;
    }
    outlet
    {
        type            calculated;
        value           nonuniform List<scalar> 
100
(
1.54455
1.52424
1.50233
1.47259
1.43132
1.38042
1.32781
1.27871
1.23363
1.19366
1.15833
1.1268
1.09893
1.07406
1.05496
1.04299
1.03563
1.03175
1.03008
1.02745
1.64053
1.6423
1.63875
1.62989
1.62121
1.61507
1.61282
1.60969
1.60346
1.5968
1.5922
1.58907
1.58649
1.58297
1.57829
1.57335
1.56925
1.56638
1.5617
1.55581
1.65052
1.65246
1.63588
1.6122
1.59807
1.56896
1.52943
1.49336
1.46448
1.46484
1.47428
1.48841
1.49412
1.51947
1.55825
1.59356
1.62987
1.64378
1.64088
1.63914
1.55564
1.5609
1.56581
1.571
1.57576
1.5786
1.58109
1.58461
1.58912
1.59433
1.60017
1.60353
1.60529
1.61053
1.61818
1.62722
1.63151
1.63098
1.63485
1.64228
1.02746
1.03009
1.03175
1.03562
1.04298
1.05494
1.07404
1.09892
1.12681
1.15835
1.19368
1.23362
1.27869
1.32779
1.38046
1.43141
1.47262
1.50226
1.52435
1.54513
)
;
    }
    triangle
    {
        type            calculated;
        value           nonuniform List<scalar> 
40
(
3.09238
2.97922
2.898
2.81896
2.74273
2.66828
2.58892
2.50022
2.37691
2.21966
0.891643
0.890042
0.894978
0.898821
0.902564
0.905776
0.906689
0.910994
0.912544
0.91536
0.915385
0.912574
0.911012
0.906563
0.905583
0.902781
0.899317
0.895116
0.890011
0.891686
3.09238
2.97922
2.898
2.81896
2.74273
2.66828
2.58892
2.50022
2.37691
2.21964
)
;
    }
    top
    {
        type            symmetryPlane;
    }
    bottom
    {
        type            symmetryPlane;
    }
    defaultFaces
    {
        type            empty;
    }
}


// ************************************************************************* //
