/*--------------------------------*- C++ -*----------------------------------*\
  =========                 |
  \\      /  F ield         | OpenFOAM: The Open Source CFD Toolbox
   \\    /   O peration     | Website:  https://openfoam.org
    \\  /    A nd           | Version:  8
     \\/     M anipulation  |
\*---------------------------------------------------------------------------*/
FoamFile
{
    version     2.0;
    format      ascii;
    class       volScalarField;
    location    "1.4";
    object      T;
}
// * * * * * * * * * * * * * * * * * * * * * * * * * * * * * * * * * * * * * //

dimensions      [0 0 0 1 0 0 0];

internalField   nonuniform List<scalar> 
2600
(
1.17116
1.12439
1.05693
0.990666
0.98275
1.01423
1.05012
1.07597
1.1006
1.09821
1.18495
1.12739
1.07263
1.02233
1.01214
1.03644
1.06379
1.08596
1.10708
1.10515
1.18427
1.12362
1.07957
1.05561
1.05032
1.06535
1.08229
1.10373
1.1186
1.11209
1.18315
1.12228
1.08674
1.08727
1.09574
1.10745
1.11734
1.12845
1.13245
1.12381
1.18482
1.12242
1.09579
1.11837
1.15017
1.16396
1.17101
1.17293
1.1598
1.14921
1.18955
1.1281
1.10197
1.14054
1.20063
1.2296
1.23408
1.22866
1.20175
1.18153
1.19431
1.13523
1.1034
1.14903
1.22761
1.27918
1.27994
1.26912
1.24167
1.21339
1.19892
1.13891
1.10149
1.14851
1.23258
1.29531
1.29559
1.28477
1.26865
1.23768
1.20045
1.14009
1.09935
1.14428
1.22823
1.29332
1.2945
1.28558
1.28081
1.24906
1.20218
1.14068
1.09907
1.14354
1.22461
1.28902
1.29109
1.28365
1.28294
1.25646
1.20217
1.14128
1.10022
1.14371
1.22457
1.28905
1.29115
1.28355
1.28103
1.25885
1.20047
1.14075
1.09999
1.14417
1.2282
1.29341
1.29456
1.28529
1.27837
1.25638
1.19904
1.13888
1.10134
1.14809
1.23253
1.29538
1.29563
1.28441
1.26814
1.23827
1.19435
1.13469
1.10284
1.14922
1.22766
1.27935
1.27986
1.26892
1.2415
1.21075
1.1894
1.12771
1.10167
1.14055
1.2008
1.23008
1.23357
1.22858
1.20325
1.17907
1.18482
1.1224
1.09583
1.11829
1.15058
1.16385
1.1705
1.17338
1.16086
1.14882
1.18334
1.12244
1.08711
1.08769
1.09597
1.10724
1.11793
1.12846
1.13013
1.12891
1.18434
1.12384
1.07988
1.05606
1.05048
1.06576
1.08227
1.10288
1.11869
1.11327
1.18497
1.12765
1.0728
1.02239
1.01219
1.03659
1.0632
1.0854
1.10921
1.10151
1.17121
1.12419
1.05643
0.990608
0.982891
1.01412
1.04982
1.07591
1.10179
1.09551
1.11814
1.08649
1.02671
0.959794
0.958565
0.995386
1.03909
1.07183
1.09857
1.093
1.06421
1.02733
0.990971
0.937708
0.940143
0.979642
1.03003
1.06958
1.09787
1.09175
1.04828
0.984512
0.963933
0.927212
0.93003
0.967138
1.02248
1.06762
1.09835
1.0904
1.05055
0.971152
0.952274
0.925055
0.925688
0.956917
1.01483
1.0654
1.0982
1.08866
1.05959
0.975625
0.94879
0.927039
0.924996
0.949257
1.00629
1.06236
1.0964
1.08712
1.07254
0.986518
0.95037
0.931526
0.92798
0.943705
0.995759
1.05811
1.09391
1.08615
1.08857
1.00038
0.956039
0.938334
0.931923
0.942642
0.985491
1.05234
1.09198
1.08612
1.10559
1.0148
0.96438
0.945922
0.935399
0.942274
0.976408
1.04504
1.09109
1.08555
1.12171
1.02958
0.973105
0.952737
0.938452
0.942418
0.96895
1.03717
1.08942
1.08396
1.13534
1.04398
0.981731
0.957336
0.941612
0.942845
0.962509
1.0292
1.08604
1.08218
1.14603
1.05671
0.991837
0.960323
0.944588
0.94184
0.956624
1.02095
1.08227
1.08085
1.15382
1.06733
1.00209
0.963469
0.945538
0.940558
0.951183
1.01228
1.07848
1.07986
1.15906
1.07675
1.01048
0.968348
0.945613
0.939589
0.946563
1.00326
1.07452
1.07903
1.16267
1.08508
1.01825
0.974229
0.945436
0.938531
0.942902
0.994672
1.07026
1.07785
1.1654
1.09228
1.0267
0.979524
0.945336
0.936279
0.939133
0.986211
1.06554
1.07601
1.16794
1.09864
1.03516
0.985695
0.946996
0.933269
0.934997
0.977181
1.06084
1.07371
1.17067
1.10462
1.04293
0.993004
0.951053
0.930723
0.93027
0.967379
1.05642
1.07154
1.17392
1.11064
1.05021
1.00028
0.95609
0.92952
0.925471
0.957212
1.05245
1.06988
1.17775
1.11668
1.05763
1.00728
0.962637
0.930522
0.922301
0.947319
1.04838
1.06815
1.18197
1.12297
1.06519
1.01434
0.969929
0.933671
0.919785
0.93789
1.04281
1.06652
1.42191
1.40215
1.38922
1.37591
1.36198
1.34752
1.33155
1.31322
1.28649
1.2612
1.39052
1.37045
1.36157
1.35134
1.34059
1.32837
1.31393
1.29551
1.26809
1.22937
1.3748
1.35917
1.3503
1.33923
1.32873
1.31716
1.3032
1.28465
1.25745
1.21604
1.35756
1.34572
1.33799
1.32738
1.31737
1.30559
1.29139
1.27256
1.24597
1.20443
1.34309
1.33385
1.32789
1.31847
1.30895
1.29703
1.28284
1.26419
1.23863
1.19855
1.33015
1.32255
1.3176
1.30942
1.30099
1.28967
1.27614
1.25803
1.23365
1.19564
1.31909
1.313
1.30884
1.3016
1.29398
1.28335
1.27084
1.2537
1.23075
1.19573
1.30996
1.30518
1.30148
1.29493
1.28795
1.27819
1.26693
1.25089
1.22945
1.19747
1.30321
1.29921
1.29571
1.28978
1.28357
1.27474
1.26447
1.2493
1.22946
1.20049
1.29746
1.29371
1.29049
1.28539
1.28011
1.2721
1.2626
1.24822
1.23012
1.2043
1.29059
1.28758
1.28528
1.28118
1.27662
1.26919
1.2605
1.24732
1.2311
1.20763
1.28349
1.28169
1.28039
1.27695
1.27275
1.26582
1.25805
1.24632
1.23147
1.20954
1.27714
1.27656
1.27605
1.27295
1.26874
1.26221
1.25517
1.24452
1.23075
1.21013
1.27218
1.27176
1.27134
1.2685
1.2646
1.25866
1.25239
1.24255
1.22953
1.2101
1.26805
1.26693
1.26592
1.26338
1.26065
1.25608
1.25076
1.24153
1.22871
1.21017
1.26419
1.26273
1.26147
1.25963
1.25826
1.25506
1.25026
1.24115
1.22835
1.21064
1.2602
1.25973
1.25966
1.25892
1.25797
1.25519
1.25045
1.2415
1.22887
1.21181
1.25838
1.25884
1.25982
1.25969
1.25895
1.25601
1.25092
1.24215
1.22994
1.21378
1.2606
1.26116
1.26203
1.26192
1.26097
1.25741
1.25177
1.24311
1.23154
1.21625
1.26493
1.26494
1.26519
1.26478
1.26308
1.25885
1.25286
1.24434
1.2335
1.21901
1.0023
1.00758
1.01383
1.02467
1.05182
1.07457
1.07892
1.09419
1.23788
1.32568
1.0023
1.00758
1.01383
1.02467
1.05181
1.07458
1.07888
1.09414
1.23759
1.32278
1.0023
1.00758
1.01383
1.02467
1.05181
1.0746
1.07881
1.09404
1.23736
1.31793
1.0023
1.00758
1.01383
1.02467
1.0518
1.07463
1.07871
1.0939
1.2371
1.31233
1.0023
1.00758
1.01383
1.02467
1.0518
1.07467
1.0786
1.09366
1.23667
1.30703
1.0023
1.00758
1.01383
1.02467
1.05179
1.07471
1.07848
1.0933
1.23592
1.3021
1.0023
1.00758
1.01383
1.02466
1.05177
1.07476
1.07837
1.09281
1.23473
1.29744
1.0023
1.00758
1.01383
1.02466
1.05176
1.07481
1.07827
1.09219
1.23309
1.29232
1.0023
1.00758
1.01383
1.02466
1.05175
1.07486
1.07818
1.09143
1.23109
1.2862
1.0023
1.00758
1.01383
1.02466
1.05173
1.07491
1.07811
1.09055
1.22893
1.27898
1.0023
1.00758
1.01383
1.02466
1.05172
1.07497
1.07805
1.08954
1.22671
1.27146
1.0023
1.00758
1.01383
1.02465
1.05171
1.07502
1.078
1.08841
1.2243
1.26445
1.0023
1.00758
1.01383
1.02465
1.05169
1.07507
1.07796
1.08715
1.22151
1.25901
1.0023
1.00758
1.01384
1.02465
1.05168
1.07512
1.07793
1.08583
1.21834
1.2564
1.0023
1.00758
1.01384
1.02465
1.05167
1.07517
1.07789
1.08448
1.21469
1.25649
1.0023
1.00758
1.01384
1.02465
1.05166
1.07522
1.07785
1.0832
1.2105
1.25769
1.0023
1.00758
1.01384
1.02465
1.05165
1.07527
1.0778
1.08201
1.2058
1.25898
1.0023
1.00758
1.01384
1.02464
1.05164
1.07531
1.07774
1.08103
1.2009
1.25926
1.0023
1.00757
1.01384
1.02464
1.05163
1.07534
1.07768
1.08023
1.19601
1.25842
1.0023
1.00757
1.01384
1.02464
1.05162
1.07537
1.07763
1.07955
1.19129
1.25619
1.0023
1.00757
1.01384
1.02464
1.05162
1.07537
1.07763
1.07955
1.19129
1.25619
1.0023
1.00757
1.01384
1.02464
1.05163
1.07534
1.07768
1.08023
1.19601
1.25842
1.0023
1.00758
1.01384
1.02464
1.05164
1.07531
1.07774
1.08103
1.2009
1.25926
1.0023
1.00758
1.01384
1.02465
1.05165
1.07527
1.0778
1.08201
1.2058
1.25898
1.0023
1.00758
1.01384
1.02465
1.05166
1.07522
1.07785
1.0832
1.2105
1.25769
1.0023
1.00758
1.01384
1.02465
1.05167
1.07517
1.07789
1.08448
1.21469
1.25649
1.0023
1.00758
1.01384
1.02465
1.05168
1.07512
1.07793
1.08583
1.21834
1.2564
1.0023
1.00758
1.01383
1.02465
1.05169
1.07507
1.07796
1.08715
1.22151
1.25901
1.0023
1.00758
1.01383
1.02465
1.05171
1.07502
1.078
1.08841
1.2243
1.26445
1.0023
1.00758
1.01383
1.02466
1.05172
1.07497
1.07805
1.08954
1.22671
1.27146
1.0023
1.00758
1.01383
1.02466
1.05173
1.07491
1.07811
1.09055
1.22893
1.27898
1.0023
1.00758
1.01383
1.02466
1.05175
1.07486
1.07818
1.09143
1.23109
1.2862
1.0023
1.00758
1.01383
1.02466
1.05176
1.07481
1.07827
1.09219
1.23309
1.29232
1.0023
1.00758
1.01383
1.02466
1.05177
1.07476
1.07837
1.09281
1.23473
1.29744
1.0023
1.00758
1.01383
1.02467
1.05179
1.07471
1.07848
1.0933
1.23592
1.3021
1.0023
1.00758
1.01383
1.02467
1.0518
1.07467
1.0786
1.09366
1.23667
1.30703
1.0023
1.00758
1.01383
1.02467
1.0518
1.07463
1.07871
1.0939
1.2371
1.31233
1.0023
1.00758
1.01383
1.02467
1.05181
1.0746
1.07881
1.09404
1.23736
1.31793
1.0023
1.00758
1.01383
1.02467
1.05181
1.07458
1.07888
1.09414
1.23759
1.32278
1.0023
1.00758
1.01383
1.02467
1.05182
1.07457
1.07892
1.09419
1.23788
1.32568
1.26493
1.26494
1.26519
1.26478
1.26308
1.25885
1.25286
1.24434
1.2335
1.21901
1.2606
1.26116
1.26203
1.26192
1.26097
1.25741
1.25177
1.24311
1.23154
1.21625
1.25838
1.25884
1.25982
1.25969
1.25895
1.25601
1.25092
1.24215
1.22994
1.21378
1.2602
1.25973
1.25966
1.25892
1.25797
1.25519
1.25045
1.2415
1.22887
1.21181
1.26419
1.26273
1.26147
1.25963
1.25826
1.25506
1.25026
1.24115
1.22835
1.21064
1.26805
1.26693
1.26592
1.26338
1.26065
1.25608
1.25076
1.24153
1.22871
1.21017
1.27218
1.27176
1.27134
1.2685
1.2646
1.25866
1.25239
1.24255
1.22953
1.2101
1.27714
1.27656
1.27605
1.27295
1.26874
1.26221
1.25517
1.24452
1.23075
1.21013
1.28349
1.28169
1.28039
1.27695
1.27275
1.26582
1.25805
1.24632
1.23147
1.20954
1.29059
1.28758
1.28528
1.28118
1.27662
1.26919
1.2605
1.24732
1.2311
1.20762
1.29746
1.29371
1.29049
1.28539
1.28011
1.2721
1.2626
1.24822
1.23012
1.2043
1.30321
1.29921
1.29571
1.28978
1.28357
1.27473
1.26447
1.2493
1.22946
1.20049
1.30996
1.30518
1.30148
1.29493
1.28795
1.27818
1.26693
1.25089
1.22945
1.19747
1.31909
1.31301
1.30884
1.3016
1.29398
1.28335
1.27084
1.2537
1.23075
1.19574
1.33015
1.32255
1.3176
1.30942
1.30099
1.28967
1.27614
1.25803
1.23365
1.19564
1.34309
1.33385
1.32789
1.31847
1.30895
1.29703
1.28284
1.26419
1.23863
1.19854
1.35756
1.34572
1.33799
1.32738
1.31737
1.30559
1.29139
1.27256
1.24597
1.20442
1.3748
1.35917
1.3503
1.33923
1.32873
1.31716
1.3032
1.28465
1.25745
1.21604
1.39052
1.37045
1.36157
1.35134
1.34059
1.32837
1.31393
1.29551
1.26809
1.22937
1.42191
1.40215
1.38922
1.37591
1.36198
1.34752
1.33155
1.31322
1.28649
1.26119
1.18197
1.12297
1.06518
1.01433
0.969916
0.933681
0.919777
0.937938
1.04263
1.06645
1.17775
1.11668
1.05763
1.00727
0.962609
0.930505
0.922292
0.94736
1.04877
1.06792
1.17392
1.11064
1.05021
1.00025
0.956095
0.929496
0.92544
0.957174
1.0529
1.06967
1.17067
1.10462
1.0429
0.992992
0.951099
0.930687
0.930251
0.967258
1.0566
1.07197
1.16794
1.09863
1.03513
0.985723
0.946962
0.933245
0.934999
0.977078
1.06055
1.0744
1.1654
1.09226
1.02669
0.979564
0.945221
0.936292
0.939189
0.98622
1.06512
1.07622
1.16267
1.08506
1.01826
0.974218
0.945413
0.938578
0.943006
0.994755
1.07006
1.07747
1.15906
1.07674
1.01049
0.968308
0.945613
0.939665
0.946645
1.00323
1.07501
1.07853
1.15382
1.06734
1.00208
0.96348
0.945568
0.940578
0.951215
1.01212
1.07878
1.07978
1.14603
1.05671
0.991836
0.960361
0.944627
0.941828
0.956633
1.02088
1.08214
1.08137
1.13533
1.04399
0.981735
0.957335
0.941607
0.942829
0.962532
1.02933
1.08542
1.08314
1.1217
1.02956
0.973127
0.952666
0.938447
0.942412
0.968979
1.0373
1.0891
1.08408
1.10559
1.01474
0.964407
0.945814
0.935407
0.942293
0.976423
1.04492
1.09197
1.08434
1.08859
1.0003
0.956038
0.938265
0.9319
0.942657
0.985511
1.05208
1.0928
1.08546
1.07258
0.986484
0.950325
0.931547
0.92792
0.943692
0.995853
1.05803
1.09361
1.08705
1.05962
0.975647
0.948734
0.927129
0.924949
0.949242
1.00646
1.06246
1.0952
1.08882
1.05056
0.971146
0.952244
0.925175
0.925692
0.956864
1.01492
1.06561
1.09722
1.08937
1.04828
0.984249
0.963883
0.927302
0.930055
0.967109
1.02239
1.06782
1.09858
1.08885
1.06414
1.02697
0.990845
0.937705
0.940088
0.979751
1.02988
1.06985
1.09854
1.08988
1.11812
1.08673
1.0269
0.959702
0.958394
0.995565
1.03898
1.07191
1.09841
1.09294
1.23174
1.20839
1.17894
1.14494
1.10436
1.05928
1.01288
0.954733
0.88197
0.886653
1.23161
1.20825
1.1784
1.14425
1.10371
1.05867
1.01227
0.953772
0.882625
0.887554
1.23128
1.20775
1.17742
1.14297
1.10234
1.05742
1.01105
0.952217
0.883368
0.888135
1.23063
1.20663
1.1759
1.14098
1.10026
1.05554
1.00929
0.950032
0.884707
0.889567
1.22963
1.20506
1.17382
1.13843
1.09754
1.05306
1.00695
0.947385
0.885591
0.892384
1.22838
1.20315
1.1712
1.13526
1.0943
1.05012
1.0041
0.944309
0.886504
0.897093
1.22696
1.20095
1.16824
1.13172
1.09068
1.04678
1.00074
0.94103
0.886625
0.904634
1.22549
1.19849
1.16494
1.12787
1.08674
1.0431
0.996868
0.937595
0.885904
0.914386
1.22395
1.19573
1.16144
1.12384
1.08246
1.03895
0.992319
0.933919
0.885448
0.925448
1.22212
1.1927
1.1578
1.1196
1.07777
1.03425
0.987026
0.930134
0.885535
0.938135
1.21973
1.18951
1.15414
1.11522
1.07265
1.02891
0.980823
0.925949
0.886306
0.952442
1.21679
1.18631
1.15048
1.11057
1.06703
1.02281
0.973823
0.92192
0.888221
0.968229
1.21379
1.18335
1.14666
1.10539
1.06084
1.01609
0.965764
0.917672
0.892183
0.984944
1.21134
1.18045
1.14203
1.09926
1.05385
1.0085
0.957014
0.914013
0.899251
1.00139
1.20962
1.17696
1.1361
1.09161
1.04572
0.999992
0.947483
0.910841
0.910768
1.01639
1.20824
1.1723
1.12813
1.0819
1.03609
0.990331
0.93753
0.909417
0.92834
1.02872
1.20614
1.16562
1.11796
1.0702
1.0246
0.978869
0.929218
0.908462
0.952724
1.03934
1.20226
1.1567
1.10563
1.05664
1.01133
0.965876
0.924285
0.909292
0.980355
1.04897
1.19623
1.14552
1.09186
1.0419
0.996606
0.952333
0.92017
0.914383
1.00765
1.05702
1.18845
1.13294
1.07695
1.02638
0.980877
0.94056
0.918736
0.926357
1.02992
1.06356
1.18845
1.13294
1.07695
1.0264
0.980863
0.940533
0.918737
0.926334
1.03013
1.06344
1.19623
1.14552
1.09186
1.04189
0.996616
0.952337
0.920152
0.914356
1.00756
1.05701
1.20226
1.1567
1.10563
1.05664
1.01133
0.965889
0.924265
0.909277
0.980222
1.04899
1.20614
1.16562
1.11796
1.07021
1.0246
0.978873
0.929233
0.908457
0.952694
1.03932
1.20824
1.1723
1.12814
1.08191
1.0361
0.990333
0.937529
0.909418
0.928323
1.02869
1.20962
1.17697
1.1361
1.09162
1.04572
0.999994
0.947486
0.910846
0.910763
1.01638
1.21134
1.18045
1.14203
1.09927
1.05386
1.0085
0.957016
0.914022
0.89926
1.0014
1.21379
1.18335
1.14666
1.10539
1.06084
1.0161
0.965767
0.917678
0.892189
0.984952
1.21679
1.18631
1.15048
1.11057
1.06703
1.02281
0.973821
0.921918
0.88822
0.968232
1.21973
1.18951
1.15414
1.11522
1.07265
1.02891
0.980822
0.925941
0.8863
0.952438
1.22212
1.1927
1.1578
1.1196
1.07777
1.03425
0.987025
0.930129
0.885531
0.938126
1.22395
1.19573
1.16144
1.12384
1.08246
1.03895
0.992318
0.933915
0.885446
0.925443
1.22549
1.19849
1.16494
1.12787
1.08674
1.04309
0.996867
0.937595
0.885905
0.91439
1.22696
1.20095
1.16824
1.13172
1.09068
1.04678
1.00074
0.94103
0.88663
0.904644
1.22838
1.20315
1.1712
1.13526
1.0943
1.05012
1.0041
0.944309
0.886508
0.897101
1.22963
1.20506
1.17382
1.13843
1.09754
1.05306
1.00695
0.947385
0.885592
0.89239
1.23063
1.20663
1.1759
1.14098
1.10026
1.05554
1.00929
0.950032
0.884707
0.88957
1.23128
1.20775
1.17742
1.14297
1.10235
1.05742
1.01105
0.952217
0.883368
0.888135
1.23161
1.20825
1.1784
1.14425
1.10371
1.05867
1.01227
0.953773
0.882626
0.88755
1.23174
1.20839
1.17894
1.14494
1.10436
1.05928
1.01288
0.954734
0.881969
0.88665
1.26828
1.26812
1.26777
1.26673
1.26416
1.25952
1.25356
1.24536
1.23515
1.22234
1.26823
1.26828
1.26796
1.2664
1.26327
1.25866
1.25295
1.24541
1.23624
1.2256
1.26592
1.26573
1.26504
1.26298
1.25981
1.25557
1.25046
1.24407
1.23624
1.22734
1.26051
1.26044
1.25961
1.25773
1.25503
1.2514
1.24709
1.24179
1.23531
1.22762
1.25536
1.25598
1.25575
1.25452
1.25225
1.24892
1.24472
1.23963
1.23351
1.22677
1.25551
1.25575
1.25567
1.25455
1.25234
1.24901
1.24473
1.23953
1.23333
1.22659
1.26168
1.26022
1.25904
1.25715
1.25449
1.25095
1.24641
1.24099
1.23468
1.2278
1.26935
1.26649
1.26419
1.26136
1.25807
1.2542
1.24957
1.24402
1.2377
1.23062
1.27433
1.27091
1.26819
1.26494
1.2614
1.25732
1.25268
1.24718
1.24108
1.23401
1.27703
1.27338
1.27059
1.26717
1.26355
1.2594
1.25486
1.24959
1.24375
1.2369
1.27864
1.27477
1.27189
1.26835
1.26468
1.26055
1.25611
1.25106
1.24539
1.23884
1.27988
1.27577
1.27278
1.26914
1.26541
1.26129
1.25685
1.25195
1.24637
1.24006
1.28103
1.27666
1.27355
1.26985
1.26604
1.26194
1.25749
1.25269
1.24716
1.24103
1.28212
1.2775
1.2743
1.27054
1.26668
1.2626
1.25816
1.25344
1.248
1.24198
1.28309
1.27829
1.27501
1.27121
1.26731
1.26325
1.25882
1.25412
1.24879
1.24291
1.28395
1.27901
1.27566
1.27183
1.26789
1.2638
1.25939
1.25468
1.24945
1.24371
1.28474
1.27969
1.27629
1.2724
1.26842
1.26427
1.25983
1.2551
1.24998
1.24433
1.28542
1.28029
1.27685
1.27288
1.26883
1.26459
1.26011
1.25536
1.25031
1.24475
1.28585
1.2807
1.27722
1.27318
1.26907
1.26473
1.26021
1.25541
1.25039
1.2449
1.28606
1.28093
1.27747
1.2734
1.26925
1.26484
1.26028
1.25544
1.25039
1.24491
1.0023
1.00757
1.01384
1.02464
1.05162
1.0754
1.07762
1.07887
1.18556
1.2527
1.0023
1.00757
1.01384
1.02464
1.05162
1.07541
1.07766
1.07827
1.17873
1.24993
1.0023
1.00757
1.01384
1.02464
1.05162
1.07541
1.07773
1.0779
1.17184
1.24898
1.0023
1.00757
1.01384
1.02464
1.05163
1.07539
1.07783
1.07764
1.16487
1.24982
1.0023
1.00757
1.01384
1.02464
1.05164
1.07536
1.07794
1.07743
1.15789
1.25164
1.0023
1.00757
1.01384
1.02464
1.05166
1.07532
1.07806
1.07727
1.15095
1.25262
1.0023
1.00758
1.01384
1.02464
1.05167
1.07528
1.07818
1.07714
1.1442
1.25212
1.0023
1.00758
1.01384
1.02464
1.05169
1.07523
1.07829
1.07703
1.1379
1.25099
1.0023
1.00758
1.01384
1.02464
1.05171
1.07519
1.07839
1.07693
1.13215
1.24988
1.0023
1.00758
1.01384
1.02464
1.05173
1.07514
1.07847
1.07684
1.12694
1.24925
1.0023
1.00758
1.01383
1.02464
1.05176
1.07511
1.07854
1.07676
1.12225
1.24905
1.0023
1.00758
1.01383
1.02464
1.05178
1.07507
1.07859
1.0767
1.11813
1.24907
1.0023
1.00758
1.01383
1.02464
1.05179
1.07505
1.07861
1.07666
1.11464
1.24919
1.0023
1.00758
1.01383
1.02464
1.05181
1.07503
1.07862
1.07663
1.11181
1.24934
1.0023
1.00758
1.01383
1.02463
1.05183
1.07502
1.07859
1.07661
1.10961
1.24943
1.0023
1.00758
1.01383
1.02463
1.05184
1.07502
1.07857
1.07661
1.10793
1.24951
1.0023
1.00758
1.01383
1.02463
1.05185
1.07502
1.07854
1.07661
1.10658
1.24965
1.0023
1.00758
1.01383
1.02463
1.05186
1.07503
1.07851
1.07662
1.10557
1.24983
1.0023
1.00758
1.01383
1.02463
1.05186
1.07503
1.07848
1.07662
1.10489
1.24996
1.0023
1.00758
1.01383
1.02463
1.05186
1.07504
1.07846
1.07662
1.10454
1.25004
1.0023
1.00758
1.01383
1.02463
1.05186
1.07504
1.07846
1.07662
1.10454
1.25004
1.0023
1.00758
1.01383
1.02463
1.05186
1.07503
1.07848
1.07662
1.10489
1.24996
1.0023
1.00758
1.01383
1.02463
1.05186
1.07503
1.07851
1.07662
1.10557
1.24983
1.0023
1.00758
1.01383
1.02463
1.05185
1.07502
1.07854
1.07661
1.10658
1.24965
1.0023
1.00758
1.01383
1.02463
1.05184
1.07502
1.07857
1.07661
1.10793
1.24951
1.0023
1.00758
1.01383
1.02463
1.05183
1.07502
1.07859
1.07661
1.10961
1.24943
1.0023
1.00758
1.01383
1.02464
1.05181
1.07503
1.07862
1.07663
1.11181
1.24934
1.0023
1.00758
1.01383
1.02464
1.05179
1.07505
1.07861
1.07666
1.11464
1.24919
1.0023
1.00758
1.01383
1.02464
1.05178
1.07507
1.07859
1.0767
1.11813
1.24907
1.0023
1.00758
1.01383
1.02464
1.05176
1.07511
1.07854
1.07676
1.12225
1.24905
1.0023
1.00758
1.01384
1.02464
1.05173
1.07514
1.07847
1.07684
1.12694
1.24925
1.0023
1.00758
1.01384
1.02464
1.05171
1.07519
1.07839
1.07693
1.13215
1.24988
1.0023
1.00758
1.01384
1.02464
1.05169
1.07523
1.07829
1.07703
1.1379
1.25099
1.0023
1.00758
1.01384
1.02464
1.05167
1.07528
1.07818
1.07714
1.1442
1.25212
1.0023
1.00757
1.01384
1.02464
1.05166
1.07532
1.07806
1.07727
1.15095
1.25262
1.0023
1.00757
1.01384
1.02464
1.05164
1.07536
1.07794
1.07743
1.15789
1.25164
1.0023
1.00757
1.01384
1.02464
1.05163
1.07539
1.07783
1.07764
1.16487
1.24982
1.0023
1.00757
1.01384
1.02464
1.05162
1.07541
1.07773
1.0779
1.17184
1.24898
1.0023
1.00757
1.01384
1.02464
1.05162
1.07541
1.07766
1.07827
1.17873
1.24993
1.0023
1.00757
1.01384
1.02464
1.05162
1.0754
1.07762
1.07887
1.18556
1.2527
1.28606
1.28093
1.27747
1.2734
1.26925
1.26484
1.26028
1.25544
1.25039
1.24491
1.28585
1.2807
1.27722
1.27318
1.26907
1.26473
1.26021
1.25541
1.25039
1.2449
1.28542
1.28029
1.27685
1.27288
1.26883
1.26459
1.26011
1.25536
1.25031
1.24475
1.28474
1.27969
1.27629
1.2724
1.26842
1.26427
1.25983
1.2551
1.24998
1.24433
1.28395
1.27901
1.27566
1.27183
1.26789
1.2638
1.25939
1.25468
1.24945
1.24371
1.28309
1.27829
1.27501
1.27121
1.26731
1.26325
1.25882
1.25412
1.24879
1.24291
1.28212
1.2775
1.2743
1.27054
1.26668
1.2626
1.25816
1.25344
1.248
1.24198
1.28103
1.27666
1.27355
1.26985
1.26604
1.26194
1.25749
1.25269
1.24716
1.24103
1.27988
1.27577
1.27278
1.26914
1.26541
1.26129
1.25685
1.25195
1.24637
1.24006
1.27864
1.27477
1.27189
1.26835
1.26468
1.26055
1.25611
1.25106
1.24539
1.23884
1.27703
1.27338
1.27059
1.26717
1.26355
1.2594
1.25486
1.24959
1.24375
1.2369
1.27433
1.27091
1.26819
1.26494
1.2614
1.25732
1.25268
1.24718
1.24108
1.23401
1.26935
1.26649
1.26419
1.26136
1.25807
1.2542
1.24957
1.24402
1.2377
1.23062
1.26168
1.26022
1.25904
1.25715
1.25449
1.25095
1.24641
1.24099
1.23468
1.2278
1.25551
1.25575
1.25567
1.25455
1.25234
1.24901
1.24473
1.23953
1.23333
1.22659
1.25536
1.25598
1.25575
1.25452
1.25225
1.24892
1.24472
1.23963
1.23351
1.22677
1.26051
1.26044
1.25961
1.25773
1.25503
1.2514
1.24709
1.24179
1.23531
1.22762
1.26592
1.26573
1.26504
1.26298
1.25981
1.25557
1.25046
1.24407
1.23624
1.22734
1.26823
1.26828
1.26796
1.2664
1.26327
1.25866
1.25295
1.24541
1.23624
1.2256
1.26828
1.26812
1.26777
1.26673
1.26416
1.25952
1.25356
1.24536
1.23515
1.22234
)
;

boundaryField
{
    inlet
    {
        type            fixedValue;
        value           uniform 1;
    }
    outlet
    {
        type            inletOutlet;
        inletValue      uniform 1;
        value           nonuniform List<scalar> 
100
(
1.06344
1.05704
1.04901
1.03934
1.02869
1.01636
1.00137
0.984956
0.968278
0.952515
0.938212
0.925522
0.91446
0.904718
0.897194
0.892501
0.889695
0.888269
0.887692
0.886798
1.09324
1.09186
1.09027
1.08851
1.08704
1.08617
1.08626
1.08552
1.08387
1.08214
1.08086
1.07991
1.07906
1.07783
1.07599
1.07372
1.07158
1.06992
1.06812
1.06646
1.09797
1.10513
1.11267
1.12377
1.14863
1.18134
1.21353
1.23743
1.24929
1.25684
1.25835
1.25594
1.23809
1.21044
1.17899
1.14912
1.12906
1.11282
1.10124
1.09555
1.06649
1.06795
1.06964
1.07191
1.07438
1.07633
1.07756
1.07853
1.07973
1.08129
1.08312
1.08421
1.08438
1.08541
1.08687
1.0887
1.08957
1.08902
1.08977
1.09272
0.886801
0.887696
0.888269
0.889691
0.892496
0.897185
0.904707
0.914456
0.925526
0.938221
0.95252
0.968276
0.984949
1.00137
1.01637
1.02872
1.03936
1.049
1.05703
1.06354
)
;
    }
    triangle
    {
        type            zeroGradient;
    }
    top
    {
        type            symmetryPlane;
    }
    bottom
    {
        type            symmetryPlane;
    }
    defaultFaces
    {
        type            empty;
    }
}


// ************************************************************************* //
