/*--------------------------------*- C++ -*----------------------------------*\
  =========                 |
  \\      /  F ield         | OpenFOAM: The Open Source CFD Toolbox
   \\    /   O peration     | Website:  https://openfoam.org
    \\  /    A nd           | Version:  7
     \\/     M anipulation  |
\*---------------------------------------------------------------------------*/
FoamFile
{
    version     2.0;
    format      ascii;
    class       volScalarField;
    location    "1.1";
    object      p;
}
// * * * * * * * * * * * * * * * * * * * * * * * * * * * * * * * * * * * * * //

dimensions      [1 -1 -2 0 0 0 0];

internalField   nonuniform List<scalar> 
325
(
3.7729
8.49676
11.1933
9.1074
0.99661
1.01258
1.06223
3.36829
8.00947
7.62986
1.00081
1.00084
1.00088
1.06618
6.51779
8.09738
1.00074
1.00082
1.00091
1.00112
2.63113
7.56638
1.00072
1.0008
1.00088
1.00108
1.03262
5.58155
1.00072
1.00079
1.00089
1.001
1.00124
2.06811
1.00071
1.00078
1.00088
1.00098
1.00119
1.01674
1.0007
1.00077
1.00085
1.00095
1.00106
1.0013
1.00064
1.0007
1.00078
1.00089
1.00099
1.00122
1.0006
1.00065
1.00073
1.00082
1.00094
1.00105
1.00055
1.00061
1.00067
1.00075
1.00086
1.00096
1.00051
1.00056
1.00062
1.0007
1.00077
1.00088
1.00046
1.0005
1.00056
1.00063
1.00071
1.0008
1.0004
1.00044
1.00049
1.00055
1.00063
1.00073
1.00036
1.0004
1.00044
1.0005
1.00057
1.00067
1.00032
1.00035
1.00039
1.00045
1.00052
1.00061
1.0003
1.00033
1.00036
1.00041
1.00047
1.00055
1.00026
1.00029
1.00033
1.00037
1.00043
1.0005
1.00022
1.00025
1.00028
1.00032
1.00037
1.00044
1.00019
1.00021
1.00024
1.00027
1.00032
1.00038
1.00045
1.0005
1
1.00046
1
1.00044
1
1.00043
1
1.00042
1
1.00042
1
1.00042
1
1.00038
1
1.00036
1
1.00033
1
1.00031
1
1.00028
1
1.00025
1
1.00022
1
1.0002
1
1.00017
1
1.00015
1
1.00013
1
1.00011
1.00014
1.00016
1.00018
1.00021
1.00025
1.00029
1.0001
1.00011
1.00013
1.00014
1.00017
1.0002
1.00024
1.00007
1.00008
1.00008
1.0001
1.00011
1.00013
1.00015
1.00005
1.00005
1.00006
1.00006
1.00007
1.00009
1.0001
1.00003
1.00003
1.00004
1.00004
1.00005
1.00006
1.00007
1.00002
1.00002
1.00002
1.00003
1.00003
1.00004
1.00004
1.00001
1.00001
1.00001
1.00002
1.00002
1.00002
1.00003
1.00001
1.00001
1.00001
1.00001
1.00001
1.00001
1.00002
1
1
1.00001
1.00001
1.00001
1.00001
1.00001
1
1
1
1
1
1.00001
1.00001
1
1
1
1
1
1
1
1
1
1
1
1
1
1
1
1
1
1
1
1
1
1
1
1
1
1
1
1
1
1
1
1
1
1
1
1
1
1
1
1
1
1
1
1
1
1
1
1
1
1
1
1
1
1
1
1
1
1
1
1
1
1
1
1
1
1
1
1
1
1
1
1.00008
1
1.00006
1
1.00004
1
1.00003
1
1.00002
1
1.00001
1
1.00001
1
1
1
1
1
1
1
1
1
1
1
1
1
1
1
1
)
;

boundaryField
{
    inlet
    {
        type            fixedValue;
        value           nonuniform 0();
    }
    outlet
    {
        type            zeroGradient;
    }
    triangle
    {
        type            zeroGradient;
    }
    top
    {
        type            symmetryPlane;
    }
    bottom
    {
        type            symmetryPlane;
    }
    defaultFaces
    {
        type            empty;
    }
    procBoundary5to1
    {
        type            processor;
        value           nonuniform List<scalar> 6(1.75245 2.54241 2.54241 1.00047 1 1);
    }
    procBoundary5to4
    {
        type            processor;
        value           nonuniform List<scalar> 
39
(
1
1
1
1
1
1
1
1
1
1
1
1
1
1
1
1
1
1
1
1
1
1
1
1
1
1
1
1
1
1
1
1
1
1
1
1
1
1
1
)
;
    }
    procBoundary5to6
    {
        type            processor;
        value           nonuniform List<scalar> 
43
(
7.89478
7.49757
7.67276
7.60489
7.54327
6.91873
4.98607
2.02522
1.03183
1.00139
1.00122
1.00099
1.0009
1.00083
1.00079
1.00072
1.00065
1.00059
1.00052
1.00052
1.00054
1.00035
1.00035
1.00035
1.00028
1.00018
1.00012
1.00008
1.00005
1.00003
1.00002
1.00001
1.00001
1
1
1
1
1
1
1
1
1
1
)
;
    }
}


// ************************************************************************* //
