/*--------------------------------*- C++ -*----------------------------------*\
  =========                 |
  \\      /  F ield         | OpenFOAM: The Open Source CFD Toolbox
   \\    /   O peration     | Website:  https://openfoam.org
    \\  /    A nd           | Version:  7
     \\/     M anipulation  |
\*---------------------------------------------------------------------------*/
FoamFile
{
    version     2.0;
    format      ascii;
    class       volScalarField;
    location    "0.2";
    object      T;
}
// * * * * * * * * * * * * * * * * * * * * * * * * * * * * * * * * * * * * * //

dimensions      [0 0 0 1 0 0 0];

internalField   nonuniform List<scalar> 
3225
(
0.675211
0.704316
0.73929
0.77525
0.429914
0.434435
0.440302
0.44736
0.45496
0.463065
0.47172
0.48152
0.492373
0.504005
0.516055
0.528658
0.5427
0.559233
0.578749
0.600979
0.624611
0.648589
0.674088
0.703363
0.737708
0.77291
0.429315
0.434131
0.440082
0.447076
0.454522
0.462427
0.470855
0.480472
0.4913
0.5031
0.515158
0.527563
0.541415
0.557768
0.577217
0.599737
0.62381
0.647932
0.673677
0.703098
0.735665
0.768894
0.428869
0.433979
0.439899
0.446707
0.453958
0.461713
0.469925
0.479283
0.48983
0.501543
0.513807
0.526491
0.540358
0.556519
0.575747
0.597975
0.622003
0.646842
0.673338
0.702698
0.733608
0.766421
0.428922
0.434041
0.439644
0.446195
0.45338
0.461195
0.46938
0.478523
0.488591
0.499786
0.51184
0.52485
0.5392
0.555564
0.574592
0.596171
0.619613
0.644794
0.672003
0.701289
0.732012
0.766453
0.429033
0.433375
0.438745
0.445365
0.45261
0.460347
0.468293
0.477194
0.487099
0.498226
0.510411
0.523589
0.538074
0.554647
0.573548
0.594485
0.61718
0.642042
0.669297
0.698639
0.730764
0.76741
0.428395
0.432527
0.438262
0.444596
0.45152
0.459428
0.467664
0.476302
0.485337
0.495817
0.508064
0.521798
0.536883
0.553663
0.572391
0.592749
0.614682
0.638845
0.665531
0.694769
0.728619
0.766868
0.427332
0.432332
0.437801
0.443811
0.450719
0.458503
0.466405
0.475231
0.484535
0.494797
0.506266
0.51961
0.535207
0.552539
0.57117
0.591083
0.612353
0.635602
0.661418
0.690549
0.725187
0.763242
0.425819
0.432559
0.437457
0.442955
0.449699
0.457701
0.465938
0.474176
0.482842
0.493186
0.504715
0.518079
0.533629
0.551185
0.569805
0.589136
0.609688
0.63219
0.657356
0.68647
0.720778
0.757214
0.425455
0.4318
0.436662
0.44249
0.448992
0.456238
0.464446
0.473605
0.482439
0.491494
0.502226
0.515782
0.531892
0.549509
0.567959
0.587047
0.607006
0.628761
0.653427
0.682425
0.71585
0.751257
0.438682
0.431399
0.436659
0.442428
0.448582
0.455289
0.463001
0.471878
0.48125
0.490963
0.501439
0.513897
0.529635
0.547625
0.565953
0.58451
0.603897
0.625167
0.649409
0.677902
0.710808
0.746354
0.505302
0.428947
0.436281
0.441689
0.447665
0.4542
0.461962
0.470673
0.479325
0.489127
0.500145
0.512886
0.528059
0.54536
0.563572
0.581799
0.600556
0.621368
0.645174
0.673128
0.706026
0.741888
0.614668
0.42818
0.435895
0.440684
0.44656
0.452826
0.460249
0.469259
0.478745
0.488059
0.497985
0.510572
0.526042
0.543164
0.560866
0.578835
0.597106
0.6173
0.640623
0.668007
0.701088
0.735974
0.709901
0.433617
0.435234
0.440277
0.446204
0.452173
0.459179
0.467473
0.476857
0.48726
0.498034
0.509982
0.524266
0.540749
0.558163
0.5756
0.593263
0.612863
0.635799
0.6631
0.695327
0.727862
0.775205
0.484648
0.433243
0.439236
0.445093
0.450834
0.457688
0.465749
0.474473
0.484339
0.49594
0.508786
0.522998
0.538689
0.555235
0.572032
0.58918
0.608434
0.631092
0.658065
0.68866
0.718558
0.816504
0.597042
0.431753
0.439266
0.444773
0.450743
0.45721
0.464743
0.473473
0.483626
0.494666
0.507018
0.520907
0.535986
0.551799
0.56777
0.584335
0.603296
0.626453
0.652805
0.681657
0.709392
0.839272
0.708456
0.434557
0.438395
0.443462
0.44967
0.456073
0.463218
0.471404
0.481918
0.494247
0.507413
0.520972
0.535135
0.549453
0.563542
0.578932
0.598111
0.621571
0.647869
0.674983
0.701921
0.844804
0.781461
0.481755
0.436501
0.442685
0.449378
0.455722
0.462348
0.469556
0.478858
0.491168
0.505857
0.520382
0.534118
0.547176
0.559607
0.57432
0.592921
0.616809
0.6436
0.66788
0.696543
0.842843
0.825629
0.586419
0.434764
0.442272
0.447787
0.454592
0.462003
0.469692
0.478695
0.490313
0.504563
0.51997
0.534153
0.545965
0.556994
0.571215
0.58972
0.612867
0.641422
0.66136
0.692488
0.843623
0.852258
0.699696
0.436925
0.443094
0.447867
0.453976
0.460569
0.468189
0.477279
0.489159
0.504002
0.519403
0.533479
0.544488
0.555306
0.569768
0.589573
0.613116
0.63995
0.656889
0.689111
0.846217
0.860317
0.77639
0.47369
0.442776
0.447854
0.453969
0.461039
0.468836
0.477581
0.489032
0.503532
0.519052
0.532932
0.543467
0.554775
0.571373
0.591167
0.615849
0.63818
0.658396
0.689238
0.846629
0.859581
0.82476
0.562109
0.443399
0.448637
0.454666
0.460835
0.468764
0.478546
0.490359
0.50498
0.51932
0.530819
0.541483
0.555236
0.573565
0.595445
0.61804
0.635474
0.662711
0.689045
0.846466
0.860065
0.859316
0.679057
0.442908
0.449318
0.455609
0.462196
0.470428
0.48074
0.493716
0.507939
0.521531
0.529708
0.540547
0.557035
0.577139
0.599178
0.617667
0.637064
0.666465
0.68434
0.845458
0.862782
0.875549
0.771318
0.467828
0.450429
0.457185
0.46521
0.475488
0.487722
0.500347
0.512657
0.520644
0.529813
0.542237
0.55962
0.581007
0.601415
0.619396
0.64197
0.665782
0.670925
0.843332
0.863626
0.87791
0.829479
0.544324
0.451082
0.459521
0.469442
0.481902
0.496028
0.508867
0.515865
0.521306
0.532029
0.547141
0.566254
0.586894
0.603621
0.624866
0.64888
0.662302
0.653501
0.840355
0.862118
0.87759
0.868544
0.660264
0.452097
0.463555
0.474423
0.487786
0.49981
0.508254
0.516004
0.524968
0.538015
0.556046
0.574453
0.588555
0.607753
0.633069
0.650949
0.6541
0.643157
0.837765
0.859465
0.876919
0.887245
0.761145
0.467373
0.469334
0.480223
0.491006
0.50009
0.508978
0.519306
0.534729
0.553366
0.569556
0.581504
0.594516
0.615241
0.640228
0.650174
0.646022
0.64392
0.835501
0.856066
0.875277
0.88848
0.816205
0.527357
0.480411
0.489162
0.496695
0.506451
0.521556
0.540624
0.556668
0.569946
0.580086
0.589064
0.603148
0.625877
0.645986
0.648988
0.643188
0.641871
0.833911
0.852573
0.871021
0.88429
0.847988
0.610596
0.48922
0.501454
0.513295
0.529168
0.544896
0.557309
0.570997
0.580858
0.585577
0.596402
0.614245
0.636495
0.651292
0.649455
0.643156
0.636418
0.833344
0.85038
0.867309
0.8791
0.869247
0.702023
0.500408
0.520323
0.533033
0.544024
0.55507
0.565592
0.574482
0.583579
0.592898
0.605827
0.626769
0.644673
0.654266
0.649979
0.643971
0.634807
0.833582
0.849861
0.864884
0.875607
0.879081
0.771357
0.529732
0.532863
0.542908
0.552553
0.561354
0.570418
0.578264
0.588756
0.602759
0.620777
0.640787
0.652568
0.654882
0.650015
0.645802
0.637878
0.8342
0.850207
0.863418
0.872769
0.878728
0.814546
0.582625
0.538937
0.550453
0.559776
0.569148
0.581903
0.594466
0.61059
0.624959
0.641423
0.655369
0.661198
0.656502
0.652977
0.649146
0.642193
0.834784
0.850866
0.863226
0.871235
0.877242
0.846886
0.665506
0.544726
0.561239
0.574899
0.588559
0.60356
0.616614
0.631051
0.645259
0.659519
0.668172
0.667246
0.661733
0.660774
0.65505
0.646116
0.835207
0.851391
0.863852
0.871486
0.876883
0.868875
0.750746
0.566531
0.581232
0.59604
0.609925
0.622515
0.635081
0.64914
0.661501
0.674218
0.679611
0.675433
0.671459
0.667333
0.657661
0.646115
0.83576
0.851884
0.865112
0.872877
0.877202
0.875022
0.798622
0.632064
0.607719
0.621362
0.632214
0.64285
0.654754
0.668245
0.679438
0.688993
0.691462
0.687581
0.681644
0.670958
0.655259
0.637813
0.836712
0.852742
0.866779
0.875203
0.878462
0.874463
0.822523
0.701631
0.643085
0.649742
0.658469
0.66839
0.680111
0.692121
0.701113
0.705711
0.705189
0.700442
0.689164
0.67247
0.649836
0.627705
0.838968
0.854554
0.868947
0.878263
0.881274
0.875682
0.83911
0.749441
0.687576
0.68155
0.687517
0.695916
0.707058
0.716289
0.723145
0.723209
0.719422
0.712075
0.694927
0.672803
0.646456
0.622638
0.843055
0.857516
0.871883
0.882543
0.885924
0.87888
0.850658
0.782687
0.730244
0.714692
0.717279
0.723489
0.732276
0.738393
0.74316
0.73897
0.73253
0.722649
0.701397
0.675158
0.647147
0.622445
0.848286
0.861892
0.875725
0.887219
0.891358
0.884179
0.861256
0.809413
0.768303
0.747537
0.74682
0.750889
0.756452
0.75952
0.760725
0.752722
0.744192
0.729593
0.706241
0.678816
0.651789
0.627028
0.853007
0.867918
0.881595
0.893233
0.898334
0.893651
0.875556
0.835445
0.803198
0.779921
0.776425
0.777768
0.779083
0.779597
0.775901
0.76409
0.752697
0.732041
0.707524
0.680972
0.655859
0.632276
0.855552
0.874258
0.889598
0.90231
0.908306
0.906622
0.893388
0.861282
0.835738
0.812692
0.805935
0.803271
0.800056
0.79657
0.787373
0.773005
0.756516
0.731733
0.706477
0.680645
0.656138
0.633264
0.856001
0.879055
0.898135
0.913691
0.922152
0.923105
0.911924
0.885915
0.866541
0.845928
0.835326
0.828183
0.819732
0.81084
0.794507
0.778671
0.756651
0.727735
0.703314
0.679443
0.654868
0.633526
0.855397
0.881481
0.90508
0.924746
0.937286
0.940962
0.930644
0.909218
0.892142
0.874168
0.86181
0.851477
0.838319
0.821946
0.80041
0.781077
0.752417
0.721659
0.697668
0.675839
0.651344
0.630957
0.854216
0.882234
0.908913
0.931787
0.948062
0.954295
0.946455
0.929909
0.91203
0.893165
0.87891
0.866139
0.849639
0.828039
0.803715
0.778377
0.745216
0.71555
0.691632
0.671575
0.646043
0.626369
0.851732
0.881422
0.909813
0.933942
0.951682
0.958478
0.953221
0.94046
0.92375
0.90329
0.88507
0.869213
0.850495
0.824905
0.798499
0.767566
0.736018
0.709912
0.688027
0.667831
0.63816
0.624118
0.846637
0.877195
0.906889
0.932012
0.949437
0.956566
0.952545
0.942197
0.927319
0.906876
0.884594
0.861186
0.83604
0.806702
0.779868
0.750352
0.726213
0.704835
0.68577
0.662306
0.630534
0.625761
0.841031
0.869225
0.898515
0.924511
0.942349
0.94859
0.94433
0.93339
0.918317
0.897302
0.871472
0.840312
0.808649
0.779886
0.754243
0.733104
0.716947
0.699512
0.683047
0.65598
0.626881
0.626618
0.83834
0.861588
0.886562
0.910517
0.926926
0.930834
0.924823
0.910848
0.892045
0.869742
0.842725
0.811126
0.780819
0.7548
0.733533
0.72029
0.708656
0.693645
0.678885
0.650216
0.626079
0.628713
0.840385
0.858913
0.876844
0.893514
0.904936
0.905643
0.898425
0.881164
0.858261
0.834717
0.810303
0.783487
0.758468
0.736873
0.721226
0.711974
0.700352
0.687092
0.673999
0.646712
0.627126
0.628737
0.850517
0.862009
0.87469
0.883156
0.886168
0.881799
0.871218
0.852256
0.829243
0.805682
0.786463
0.76507
0.744737
0.727677
0.715715
0.706975
0.693006
0.680474
0.669482
0.644756
0.629513
0.629624
0.868022
0.872382
0.878597
0.881511
0.878921
0.869973
0.855263
0.837201
0.81356
0.790224
0.773368
0.754635
0.737332
0.723007
0.712631
0.702181
0.685587
0.674209
0.664673
0.643043
0.630663
0.629405
0.888854
0.887901
0.88729
0.885758
0.879607
0.867712
0.849775
0.832229
0.808003
0.785229
0.76805
0.749158
0.732593
0.71877
0.70806
0.69537
0.678172
0.669081
0.660539
0.640695
0.629707
0.630758
0.899302
0.898634
0.895408
0.890977
0.882868
0.869442
0.849551
0.830749
0.807003
0.784481
0.766356
0.745577
0.727526
0.712393
0.700322
0.686331
0.671316
0.663696
0.655677
0.638848
0.628783
0.631202
0.901981
0.901535
0.898727
0.894047
0.884827
0.872042
0.850623
0.830138
0.805735
0.782882
0.763341
0.740977
0.720776
0.704578
0.691728
0.677934
0.666421
0.659894
0.652212
0.638694
0.628984
0.632562
0.888365
0.890316
0.889478
0.885597
0.877798
0.866543
0.846006
0.825069
0.800661
0.776543
0.756607
0.73405
0.711901
0.695676
0.682564
0.670499
0.661564
0.655933
0.64887
0.637891
0.631125
0.634734
0.860245
0.864008
0.867045
0.864759
0.859911
0.850835
0.83348
0.81286
0.790515
0.765977
0.746811
0.72612
0.703724
0.688874
0.675469
0.665442
0.658064
0.65351
0.647757
0.64092
0.636295
0.640429
0.827143
0.832467
0.839026
0.839692
0.836617
0.829426
0.815652
0.797738
0.77849
0.756167
0.738257
0.720387
0.699139
0.685426
0.672544
0.662398
0.655899
0.652432
0.649389
0.645732
0.644673
0.64885
0.804995
0.809862
0.816432
0.820362
0.818751
0.813644
0.802706
0.787754
0.771059
0.750996
0.734093
0.718183
0.698118
0.684583
0.67257
0.661494
0.655579
0.655331
0.654763
0.652292
0.653034
0.657968
0.795553
0.801501
0.807607
0.812298
0.811664
0.807562
0.798085
0.784428
0.769129
0.750057
0.733533
0.718438
0.700345
0.687506
0.676358
0.664057
0.660038
0.660672
0.661073
0.659097
0.660537
0.665708
0.790661
0.797352
0.804797
0.809702
0.809508
0.806069
0.797847
0.785161
0.770879
0.753044
0.736777
0.722172
0.705357
0.693693
0.683495
0.67079
0.668026
0.668049
0.668132
0.666167
0.668114
0.672907
0.788372
0.795479
0.803243
0.808643
0.809082
0.80685
0.800139
0.788699
0.775231
0.758765
0.743256
0.729124
0.712315
0.701356
0.692137
0.680176
0.678324
0.677624
0.676719
0.67438
0.676572
0.68011
0.787958
0.794744
0.802837
0.808671
0.80963
0.808541
0.803877
0.794381
0.781841
0.765904
0.751444
0.738286
0.721587
0.710323
0.701393
0.690032
0.687746
0.687152
0.685401
0.683127
0.685623
0.688394
0.788666
0.794678
0.802406
0.809573
0.811367
0.811017
0.808061
0.800553
0.789601
0.774189
0.75992
0.74736
0.731552
0.720416
0.711709
0.700227
0.696555
0.695685
0.693432
0.691619
0.694488
0.696955
0.790721
0.79598
0.803013
0.811048
0.813836
0.81367
0.811509
0.805506
0.79621
0.782269
0.768112
0.755638
0.740484
0.730292
0.722197
0.711009
0.706355
0.703923
0.700679
0.699247
0.702328
0.704472
0.793049
0.798693
0.805503
0.812742
0.815825
0.815799
0.813955
0.809059
0.801266
0.788986
0.775935
0.764065
0.749285
0.739623
0.731751
0.721269
0.716736
0.713374
0.70875
0.70688
0.709472
0.711012
0.794503
0.800127
0.807177
0.813807
0.816555
0.816833
0.81554
0.811704
0.805376
0.794611
0.782882
0.77207
0.758214
0.748438
0.740386
0.730039
0.725834
0.722709
0.717426
0.715499
0.717407
0.718218
0.795014
0.800403
0.807628
0.814451
0.816995
0.817834
0.81704
0.814163
0.809159
0.799859
0.789269
0.779421
0.766635
0.756967
0.748866
0.738181
0.734206
0.731102
0.725464
0.723968
0.725692
0.726188
0.795618
0.800601
0.807713
0.814994
0.818368
0.819679
0.819263
0.817122
0.813155
0.805223
0.795496
0.78613
0.773779
0.764452
0.756775
0.746431
0.742551
0.739072
0.732928
0.731699
0.73348
0.73366
0.79684
0.801283
0.808108
0.815547
0.820382
0.822465
0.822277
0.820658
0.8174
0.810314
0.801071
0.792164
0.779994
0.771003
0.763964
0.754529
0.750909
0.74687
0.740216
0.739286
0.74102
0.740806
0.798842
0.802863
0.809319
0.816753
0.823371
0.825948
0.825844
0.824328
0.821294
0.814673
0.805816
0.797572
0.786063
0.777528
0.770978
0.762076
0.758607
0.754435
0.747835
0.747528
0.748745
0.747972
0.801319
0.805121
0.811427
0.819538
0.826715
0.828941
0.828911
0.827143
0.824091
0.818176
0.810076
0.802625
0.792104
0.784366
0.778234
0.769384
0.765509
0.761298
0.755692
0.755929
0.756646
0.755256
0.803774
0.807412
0.813436
0.822119
0.828908
0.830965
0.830938
0.829123
0.826256
0.821277
0.814246
0.807771
0.798259
0.791143
0.785195
0.776476
0.772445
0.768247
0.763533
0.763839
0.764059
0.762079
0.806085
0.809167
0.814545
0.823
0.830221
0.832756
0.832472
0.830869
0.828454
0.824499
0.818618
0.813152
0.804683
0.797769
0.791559
0.782739
0.779303
0.775819
0.771738
0.771462
0.77068
0.768223
0.808394
0.81051
0.815128
0.823212
0.831026
0.834244
0.833903
0.832787
0.831048
0.828135
0.823226
0.818418
0.810605
0.803689
0.797422
0.788815
0.785971
0.782987
0.77908
0.778318
0.776664
0.774345
0.810854
0.81198
0.815661
0.822823
0.83111
0.834889
0.835588
0.835119
0.834064
0.832008
0.827698
0.823145
0.815553
0.808705
0.80286
0.795127
0.792753
0.789691
0.785448
0.784519
0.782468
0.780952
0.8135
0.813889
0.816585
0.822286
0.83022
0.835249
0.837328
0.837684
0.836982
0.835379
0.831379
0.827005
0.819735
0.813211
0.808041
0.801236
0.79908
0.795673
0.791049
0.790276
0.788208
0.787658
0.816573
0.816556
0.818515
0.82315
0.829999
0.835888
0.839012
0.839781
0.839223
0.837934
0.834315
0.830315
0.8237
0.817747
0.813183
0.806775
0.804533
0.801039
0.796647
0.796255
0.794353
0.794348
0.819423
0.818751
0.820625
0.824457
0.830254
0.83691
0.840618
0.841335
0.840813
0.839882
0.836877
0.83353
0.82785
0.82248
0.81826
0.811962
0.809555
0.80612
0.802608
0.802647
0.800742
0.80078
0.824349
0.821425
0.822872
0.825879
0.831025
0.837922
0.841996
0.842685
0.842248
0.841661
0.839392
0.836919
0.832323
0.827347
0.823182
0.816994
0.814825
0.811802
0.808939
0.809221
0.807263
0.807299
0.830578
0.826044
0.825817
0.827719
0.832117
0.838545
0.842988
0.843855
0.843703
0.843528
0.841987
0.840394
0.836824
0.832163
0.828041
0.822054
0.820297
0.817857
0.815254
0.815358
0.813348
0.813449
0.836978
0.83165
0.829253
0.830351
0.833449
0.838918
0.843518
0.844818
0.84519
0.845497
0.844456
0.843484
0.840713
0.836515
0.832788
0.827368
0.82594
0.82384
0.820999
0.820772
0.818636
0.818788
0.843592
0.836496
0.833747
0.833196
0.835148
0.839413
0.843763
0.845684
0.846756
0.847266
0.846323
0.845705
0.843612
0.840121
0.837113
0.832338
0.830928
0.828853
0.825728
0.825467
0.823302
0.823351
0.850807
0.842248
0.838152
0.835343
0.836777
0.839943
0.843897
0.846515
0.848244
0.848624
0.847688
0.847298
0.845753
0.842932
0.840648
0.836428
0.834959
0.832807
0.829619
0.829636
0.827696
0.827846
0.857532
0.848497
0.842907
0.838402
0.838586
0.840596
0.844116
0.847273
0.849369
0.849714
0.848906
0.848682
0.847463
0.84512
0.843428
0.839684
0.838331
0.836217
0.833272
0.833545
0.831978
0.832587
0.864148
0.854402
0.848348
0.842084
0.84047
0.841659
0.844538
0.847901
0.850187
0.850667
0.850075
0.850081
0.849045
0.847076
0.845853
0.842512
0.841393
0.839513
0.836927
0.837576
0.836628
0.837668
0.870473
0.860131
0.854536
0.846377
0.842543
0.842945
0.845249
0.848494
0.85087
0.851533
0.851211
0.851575
0.850711
0.8491
0.848228
0.845253
0.844355
0.842833
0.840913
0.842086
0.841718
0.842809
0.876868
0.865864
0.860075
0.851215
0.846272
0.844828
0.84647
0.849184
0.851534
0.852265
0.852304
0.853139
0.85253
0.851289
0.850692
0.848068
0.847377
0.846348
0.845201
0.846779
0.846799
0.847478
0.883009
0.871884
0.865523
0.856059
0.850326
0.84778
0.848362
0.850163
0.852245
0.853047
0.853487
0.85464
0.854286
0.853517
0.853219
0.850955
0.850469
0.850003
0.849404
0.850949
0.850871
0.851045
0.889066
0.877542
0.871117
0.861447
0.854617
0.851882
0.850322
0.851375
0.853112
0.854002
0.854731
0.856027
0.855816
0.855457
0.855499
0.85364
0.853363
0.853308
0.85278
0.854031
0.853441
0.853396
0.894946
0.883185
0.876558
0.867032
0.859723
0.856304
0.852728
0.852882
0.854151
0.855016
0.855859
0.857218
0.857064
0.856965
0.857307
0.855743
0.855627
0.855716
0.855066
0.856149
0.85551
0.85562
0.900514
0.888687
0.88203
0.872835
0.864852
0.861065
0.855714
0.854897
0.855432
0.856021
0.856839
0.858226
0.858095
0.858068
0.858636
0.857349
0.857374
0.85751
0.856608
0.857653
0.857443
0.858555
0.905954
0.894091
0.887472
0.878608
0.870035
0.865956
0.859112
0.857098
0.857026
0.857109
0.857742
0.859065
0.858917
0.858894
0.859598
0.858587
0.858723
0.85898
0.858122
0.858948
0.859305
0.861462
0.911239
0.899501
0.892881
0.884277
0.875078
0.870715
0.863169
0.859659
0.859239
0.858236
0.858608
0.859769
0.85956
0.85955
0.860282
0.859495
0.859722
0.860154
0.85943
0.860391
0.861114
0.863358
0.916446
0.904876
0.898208
0.889744
0.880023
0.875427
0.867729
0.862487
0.861741
0.859509
0.859558
0.860458
0.860073
0.860097
0.860775
0.860105
0.860387
0.860988
0.860447
0.861752
0.862666
0.864628
0.92158
0.910135
0.903368
0.895093
0.884802
0.880059
0.872685
0.865895
0.864487
0.861066
0.860719
0.861219
0.860503
0.860586
0.861141
0.860451
0.860777
0.861497
0.861057
0.862658
0.864051
0.865649
0.926572
0.915224
0.908305
0.900295
0.889601
0.88461
0.87766
0.86978
0.867694
0.863412
0.862098
0.862176
0.860838
0.860944
0.861422
0.860611
0.861042
0.861793
0.861223
0.862929
0.86482
0.866287
0.931414
0.92007
0.912964
0.905426
0.894471
0.889077
0.88258
0.874102
0.871264
0.866402
0.863823
0.863472
0.861157
0.861299
0.861835
0.860782
0.8612
0.862018
0.861288
0.862942
0.864883
0.866069
0.93605
0.924781
0.917331
0.910378
0.899498
0.893529
0.887341
0.878615
0.875236
0.870135
0.866111
0.865253
0.862041
0.861665
0.862517
0.861192
0.861405
0.86236
0.861358
0.862971
0.864789
0.865113
0.940487
0.929404
0.92147
0.915139
0.904565
0.897987
0.892106
0.88321
0.879349
0.874254
0.868957
0.867621
0.86358
0.862397
0.863264
0.861558
0.8616
0.862616
0.861189
0.862219
0.864134
0.86386
0.944708
0.934067
0.925446
0.919616
0.909603
0.902476
0.896849
0.887915
0.883518
0.87845
0.872223
0.870439
0.865953
0.863556
0.864155
0.861964
0.861881
0.862746
0.860804
0.861115
0.862236
0.860802
0.948668
0.93873
0.929443
0.923826
0.914458
0.906929
0.901619
0.892718
0.887677
0.882654
0.875722
0.873688
0.869215
0.865298
0.865598
0.863102
0.862212
0.862826
0.860474
0.859738
0.860369
0.858527
0.952377
0.943318
0.933515
0.927854
0.919141
0.911257
0.906255
0.897586
0.891881
0.886833
0.879401
0.877096
0.873047
0.8679
0.867548
0.864909
0.862816
0.863102
0.860489
0.859001
0.85974
0.858115
0.955863
0.947704
0.937686
0.931797
0.923668
0.915436
0.910645
0.902359
0.896138
0.891115
0.883327
0.880553
0.877056
0.87124
0.870136
0.867317
0.864227
0.863873
0.860702
0.858946
0.85981
0.858542
0.959253
0.951833
0.941863
0.935704
0.92812
0.919488
0.914687
0.906878
0.900386
0.895572
0.887537
0.884055
0.881123
0.875
0.87321
0.870323
0.866142
0.865341
0.861998
0.859903
0.860746
0.859931
0.962644
0.95573
0.945978
0.939519
0.932454
0.923537
0.918459
0.911058
0.904475
0.900112
0.892151
0.887696
0.885058
0.878984
0.876562
0.87357
0.868922
0.86759
0.864068
0.861695
0.862346
0.861868
0.96607
0.959447
0.949982
0.943184
0.936599
0.927612
0.922161
0.915031
0.908316
0.904523
0.897007
0.891597
0.888964
0.883019
0.880029
0.876936
0.872125
0.870675
0.867285
0.864774
0.86517
0.864639
0.969491
0.963028
0.953886
0.946684
0.940486
0.931666
0.925959
0.919008
0.911962
0.908618
0.901866
0.895722
0.892864
0.887079
0.883612
0.880393
0.875486
0.874058
0.870971
0.868364
0.868685
0.867981
0.972861
0.966477
0.957702
0.950086
0.944142
0.935609
0.929858
0.923174
0.915629
0.912326
0.906407
0.899922
0.896796
0.891154
0.887281
0.883939
0.878993
0.877856
0.875246
0.872451
0.872579
0.871387
0.976148
0.969801
0.961438
0.953477
0.947659
0.939404
0.933722
0.927498
0.919494
0.915801
0.910541
0.903991
0.900643
0.89517
0.891092
0.887739
0.882564
0.881531
0.879418
0.876252
0.876344
0.87478
0.979339
0.973008
0.965077
0.956918
0.951142
0.943086
0.937383
0.931779
0.923587
0.91926
0.914355
0.90784
0.90432
0.899023
0.89489
0.891746
0.886371
0.885182
0.88355
0.87979
0.879667
0.878039
0.982424
0.976106
0.968589
0.960404
0.954646
0.946735
0.940783
0.935764
0.927762
0.922821
0.918027
0.911514
0.9078
0.902666
0.898571
0.895843
0.890342
0.888679
0.887435
0.883377
0.882775
0.881128
0.985413
0.979097
0.971937
0.963867
0.958154
0.9504
0.944021
0.939329
0.931802
0.926442
0.92166
0.915159
0.911226
0.906119
0.901983
0.899824
0.894498
0.892127
0.891088
0.886843
0.885787
0.884341
0.988318
0.981994
0.97511
0.967207
0.961587
0.954049
0.947256
0.942546
0.935538
0.930006
0.925255
0.918827
0.914741
0.909596
0.905183
0.903522
0.898652
0.89548
0.89451
0.890399
0.888764
0.887585
0.991172
0.984809
0.97813
0.970355
0.96486
0.957597
0.950562
0.94563
0.938968
0.933415
0.928735
0.922478
0.918377
0.913252
0.908353
0.906922
0.902723
0.898798
0.897617
0.893823
0.891864
0.891008
0.993983
0.987561
0.981052
0.973318
0.96791
0.96097
0.953926
0.948768
0.942229
0.936676
0.932042
0.925997
0.922022
0.917142
0.911682
0.910068
0.90655
0.902155
0.900603
0.897069
0.895012
0.894411
0.996772
0.990251
0.983909
0.976192
0.970765
0.964137
0.957268
0.951999
0.945471
0.939889
0.935229
0.929324
0.925505
0.921109
0.915246
0.913097
0.910096
0.905568
0.903553
0.900199
0.898155
0.897825
0.999526
0.992893
0.986722
0.979063
0.97352
0.967126
0.960492
0.955255
0.948737
0.943144
0.93844
0.932531
0.928725
0.924901
0.918994
0.916107
0.913336
0.909027
0.90662
0.903305
0.9012
0.901033
1.00223
0.995493
0.989478
0.98197
0.976286
0.970007
0.963532
0.95844
0.95201
0.946447
0.941746
0.93577
0.931746
0.928332
0.922763
0.919198
0.916301
0.912338
0.909886
0.906522
0.904225
0.904076
1.00487
0.998075
0.992163
0.984865
0.979096
0.972891
0.966431
0.961475
0.955218
0.949724
0.945121
0.939117
0.934735
0.9314
0.926341
0.922424
0.919188
0.915318
0.913209
0.909985
0.907256
0.906932
1.00741
1.00063
0.994784
0.987697
0.981909
0.975806
0.969298
0.964393
0.95832
0.952855
0.948417
0.942559
0.937843
0.934258
0.929584
0.925696
0.922252
0.918067
0.916272
0.913618
0.910463
0.909659
1.00983
1.00315
0.997324
0.990413
0.984684
0.978747
0.972186
0.967218
0.961342
0.955852
0.951498
0.945905
0.941053
0.937142
0.932551
0.928838
0.925504
0.920944
0.918914
0.917152
0.913912
0.91243
1.0121
1.0056
0.999828
0.993019
0.987329
0.981622
0.975145
0.970049
0.964265
0.958745
0.954392
0.94904
0.944225
0.94011
0.935399
0.931751
0.928815
0.924185
0.921335
0.920246
0.917521
0.915427
1.01427
1.00793
1.00225
0.995564
0.989899
0.984343
0.978022
0.972894
0.967194
0.961595
0.957123
0.951907
0.947248
0.943194
0.938305
0.934398
0.931958
0.927799
0.924026
0.922764
0.9209
0.918629
1.01636
1.0102
1.00464
0.998048
0.992376
0.986953
0.980833
0.975677
0.970022
0.964454
0.959926
0.954598
0.949951
0.946236
0.941471
0.937025
0.934688
0.931431
0.92716
0.925021
0.923803
0.921884
1.01847
1.01234
1.00693
1.00057
0.994862
0.989382
0.983461
0.978457
0.972795
0.967142
0.962719
0.957442
0.952495
0.949019
0.944717
0.939889
0.937058
0.934726
0.930752
0.927442
0.926082
0.925015
1.02057
1.0145
1.00915
1.00298
0.997337
0.991844
0.985887
0.981024
0.975539
0.969819
0.965446
0.960354
0.955138
0.951586
0.947903
0.943048
0.939355
0.937443
0.934438
0.930447
0.92799
0.927529
1.02269
1.0166
1.01131
1.00537
0.999764
0.994234
0.988277
0.983467
0.978147
0.972375
0.968102
0.963367
0.957966
0.953962
0.950803
0.946464
0.942004
0.939541
0.937599
0.933855
0.930435
0.929401
1.02481
1.01876
1.0134
1.00759
1.00215
0.996725
0.990592
0.985765
0.980781
0.974954
0.970524
0.96624
0.961053
0.956489
0.953266
0.949682
0.944985
0.941637
0.940086
0.937205
0.933316
0.931452
1.02685
1.02085
1.01554
1.00973
1.0043
0.999173
0.993108
0.987966
0.983222
0.977612
0.972962
0.968857
0.964087
0.959162
0.955554
0.952594
0.948208
0.943983
0.94203
0.940185
0.936591
0.933846
1.02881
1.02294
1.01763
1.01184
1.00639
1.00148
0.995583
0.990262
0.98561
0.980235
0.975409
0.971316
0.967024
0.962062
0.957775
0.955084
0.951446
0.946802
0.943857
0.942537
0.939931
0.936766
1.03062
1.02492
1.01976
1.01401
1.00837
1.00367
0.998072
0.992597
0.987925
0.98287
0.977987
0.973622
0.969642
0.96504
0.96025
0.957081
0.954249
0.94988
0.946163
0.94446
0.942863
0.93996
1.0324
1.02682
1.02176
1.01619
1.01047
1.0056
1.00038
0.995057
0.990282
0.985336
0.980553
0.976015
0.971993
0.967813
0.962864
0.959123
0.95663
0.952954
0.948817
0.946518
0.945385
0.943115
1.03419
1.02866
1.02368
1.01832
1.01257
1.0076
1.00248
0.997361
0.992708
0.987777
0.98302
0.978374
0.974207
0.970384
0.965626
0.961318
0.958671
0.955812
0.95186
0.948864
0.947542
0.94598
1.03598
1.03051
1.0254
1.02033
1.01476
1.00964
1.00451
0.999523
0.99506
0.990184
0.985441
0.980756
0.976302
0.972657
0.968355
0.963784
0.960663
0.958299
0.955036
0.951623
0.949577
0.948336
1.03776
1.03232
1.02714
1.02211
1.01681
1.01179
1.00664
1.00153
0.997276
0.992595
0.987785
0.983076
0.978389
0.974684
0.970899
0.966447
0.962898
0.960532
0.958027
0.954705
0.951863
0.950182
1.03947
1.03416
1.02886
1.02385
1.01871
1.0139
1.00887
1.00361
0.999172
0.994784
0.990117
0.985407
0.980527
0.976623
0.973256
0.969206
0.965381
0.962647
0.960608
0.957825
0.954484
0.95201
1.04104
1.03586
1.03065
1.02561
1.02043
1.0159
1.01122
1.00586
1.00109
0.996678
0.992256
0.987738
0.982793
0.978619
0.975426
0.971888
0.968095
0.964871
0.962641
0.960564
0.957338
0.954132
1.04255
1.0375
1.03242
1.02741
1.02221
1.01759
1.01341
1.00828
1.00322
0.998466
0.994157
0.990016
0.985238
0.98081
0.977515
0.974388
0.97089
0.967299
0.964431
0.962614
0.960088
0.95667
1.04403
1.03906
1.03417
1.02937
1.02414
1.01924
1.0152
1.01056
1.00548
1.00048
0.995855
0.992067
0.987732
0.983275
0.979703
0.976646
0.973533
0.969972
0.96646
0.963983
0.962246
0.959347
1.04551
1.04064
1.03583
1.0313
1.02624
1.02108
1.01665
1.01245
1.00778
1.00267
0.997727
0.993976
0.990159
0.98587
0.982074
0.978754
0.975852
0.972609
0.968742
0.965603
0.96377
0.961709
1.04701
1.04219
1.03743
1.03305
1.02831
1.02311
1.01828
1.01378
1.00977
1.00506
0.999957
0.995858
0.992393
0.988498
0.984605
0.980919
0.977945
0.975071
0.971334
0.967676
0.965242
0.963592
1.04854
1.04384
1.03894
1.03454
1.03019
1.02525
1.0202
1.01528
1.0112
1.00724
1.00232
0.997971
0.994367
0.990872
0.987154
0.983246
0.979884
0.977213
0.973949
0.970135
0.967071
0.965139
1.05009
1.04547
1.04055
1.03588
1.03164
1.02723
1.02237
1.01718
1.0126
1.00905
1.00467
1.00021
0.996371
0.992924
0.989489
0.98561
0.981939
0.979147
0.976299
0.972727
0.969262
0.966787
1.05163
1.04711
1.04224
1.03742
1.03295
1.02883
1.0245
1.01934
1.01441
1.01043
1.00668
1.00254
0.998499
0.994813
0.991571
0.987901
0.984072
0.981025
0.978358
0.975169
0.971607
0.968672
1.05304
1.04866
1.04397
1.03921
1.03449
1.03015
1.02636
1.02162
1.01648
1.01212
1.00828
1.00461
1.00069
0.996799
0.993433
0.990008
0.986235
0.982929
0.980197
0.977303
0.973911
0.970749
1.05444
1.05011
1.04567
1.04108
1.03629
1.0315
1.02756
1.02365
1.01883
1.01422
1.01003
1.00637
1.00275
0.998878
0.99534
0.99192
0.988283
0.984883
0.981956
0.979117
0.975969
0.972842
1.05582
1.05143
1.04722
1.04293
1.03821
1.03316
1.0287
1.02509
1.02106
1.01659
1.01211
1.00813
1.00464
1.00094
0.997293
0.993805
0.990228
0.986789
0.983719
0.980822
0.97779
0.974796
1.05723
1.0527
1.04846
1.04457
1.04014
1.03505
1.03025
1.02623
1.02282
)
;

boundaryField
{
    inlet
    {
        type            fixedValue;
        value           nonuniform 0();
    }
    outlet
    {
        type            inletOutlet;
        inletValue      nonuniform 0();
        value           nonuniform 0();
    }
    triangle
    {
        type            zeroGradient;
    }
    top
    {
        type            symmetryPlane;
    }
    bottom
    {
        type            symmetryPlane;
    }
    defaultFaces
    {
        type            empty;
    }
    procBoundary22to14
    {
        type            processor;
        value           nonuniform List<scalar> 
23
(
0.677149
0.706617
0.740457
0.774351
0.430097
0.434918
0.440924
0.447837
0.455409
0.463688
0.472544
0.482612
0.493703
0.505266
0.517097
0.529646
0.543983
0.560975
0.580451
0.601802
0.624874
0.649305
0.649305
)
;
    }