/*--------------------------------*- C++ -*----------------------------------*\
  =========                 |
  \\      /  F ield         | OpenFOAM: The Open Source CFD Toolbox
   \\    /   O peration     | Website:  https://openfoam.org
    \\  /    A nd           | Version:  8
     \\/     M anipulation  |
\*---------------------------------------------------------------------------*/
FoamFile
{
    version     2.0;
    format      ascii;
    class       volScalarField;
    location    "2";
    object      p;
}
// * * * * * * * * * * * * * * * * * * * * * * * * * * * * * * * * * * * * * //

dimensions      [1 -1 -2 0 0 0 0];

internalField   nonuniform List<scalar> 
2600
(
0.850151
0.794661
0.774217
0.832576
0.983238
1.18311
1.32067
1.40139
1.41314
1.37067
0.859726
0.781181
0.767271
0.844895
1.00881
1.19837
1.32544
1.40719
1.40226
1.36062
0.856457
0.774329
0.763617
0.855844
1.03111
1.22186
1.35354
1.43958
1.41365
1.34529
0.853601
0.771731
0.764635
0.861229
1.03708
1.23465
1.37409
1.45776
1.44647
1.36552
0.852631
0.766079
0.767071
0.870264
1.04988
1.22534
1.35578
1.41836
1.44398
1.39155
0.856731
0.765025
0.761855
0.87253
1.06267
1.23598
1.36106
1.42283
1.42569
1.37763
0.862756
0.764835
0.760231
0.874911
1.07126
1.25389
1.37064
1.45981
1.42612
1.37698
0.868643
0.767988
0.766884
0.881472
1.07912
1.25735
1.37118
1.43621
1.43434
1.37687
0.871208
0.770648
0.767595
0.883704
1.07603
1.24808
1.36311
1.41917
1.44406
1.35562
0.87259
0.770191
0.764111
0.877432
1.06645
1.24165
1.3623
1.43669
1.43346
1.36828
0.872468
0.770646
0.765797
0.877463
1.06659
1.23918
1.37754
1.44635
1.43874
1.38798
0.870826
0.770743
0.767357
0.883556
1.07517
1.24215
1.37685
1.45758
1.42836
1.39877
0.86797
0.768609
0.768651
0.882269
1.07845
1.25762
1.37599
1.43429
1.42995
1.37893
0.862173
0.765444
0.76165
0.87406
1.06831
1.25636
1.37749
1.41698
1.44573
1.37641
0.856559
0.76541
0.761466
0.871255
1.06034
1.23807
1.34394
1.43087
1.43669
1.37141
0.853332
0.766165
0.766235
0.869344
1.04993
1.21974
1.36137
1.45492
1.41842
1.35122
0.855017
0.772121
0.765341
0.861972
1.03519
1.23104
1.38856
1.44039
1.431
1.37818
0.857798
0.77549
0.765114
0.856373
1.02575
1.2246
1.35122
1.41357
1.43661
1.38782
0.859831
0.782237
0.768731
0.843611
1.00664
1.19906
1.32269
1.41169
1.42082
1.36452
0.849691
0.794726
0.774003
0.831656
0.982379
1.18126
1.32496
1.42134
1.40603
1.34294
1.0046
0.807365
0.784661
0.821522
0.957366
1.16476
1.32402
1.41775
1.40599
1.3424
1.16888
0.83411
0.810136
0.818996
0.931455
1.14264
1.31273
1.40994
1.41257
1.35595
1.33029
0.881483
0.835136
0.824194
0.909953
1.1148
1.29039
1.39805
1.41004
1.35441
1.46105
0.949331
0.862414
0.834945
0.896641
1.08229
1.26407
1.38549
1.40165
1.34421
1.57486
1.02887
0.890576
0.849975
0.888239
1.04746
1.24284
1.37358
1.38971
1.3326
1.6683
1.11362
0.922185
0.860378
0.883653
1.0131
1.22248
1.36253
1.38471
1.32651
1.74748
1.19999
0.966311
0.86971
0.881469
0.980834
1.1951
1.3516
1.38287
1.32505
1.81642
1.2777
1.02086
0.89011
0.88071
0.953503
1.15761
1.3374
1.37938
1.32362
1.87693
1.3521
1.07112
0.921652
0.883661
0.932759
1.11646
1.31848
1.37364
1.31602
1.93128
1.42234
1.11861
0.952737
0.891886
0.918593
1.07729
1.29434
1.36422
1.30588
1.97862
1.4868
1.17191
0.981798
0.899468
0.910443
1.03969
1.26837
1.35431
1.29859
2.02033
1.54329
1.22554
1.01916
0.906522
0.906239
1.00359
1.24038
1.3488
1.29322
2.05653
1.59554
1.2747
1.06155
0.921011
0.904406
0.972139
1.20812
1.34112
1.28795
2.08857
1.64466
1.32078
1.0999
0.946603
0.904201
0.947202
1.17108
1.33024
1.27968
2.11809
1.69052
1.36773
1.13594
0.972084
0.906972
0.928272
1.12963
1.31502
1.27011
2.14525
1.73347
1.41259
1.1751
0.995665
0.911645
0.914733
1.08735
1.29606
1.26221
2.17001
1.77344
1.45428
1.21409
1.02455
0.918037
0.904487
1.04567
1.27531
1.25575
2.19216
1.81044
1.49342
1.24964
1.05745
0.924874
0.898835
1.00676
1.25243
1.24873
2.21212
1.84436
1.53101
1.28413
1.08862
0.936883
0.896026
0.971419
1.22458
1.23998
2.23019
1.87591
1.56721
1.31813
1.11838
0.954549
0.893244
0.939916
1.19082
1.22985
3.98909
3.80614
3.68387
3.56231
3.44213
3.32356
3.19521
3.05179
2.84366
2.62083
3.7436
3.56941
3.49008
3.39981
3.30909
3.20902
3.09209
2.94596
2.73394
2.4451
3.66359
3.53629
3.46811
3.38174
3.297
3.20124
3.08595
2.93761
2.72498
2.44074
3.55896
3.46259
3.40573
3.32742
3.25084
3.15714
3.04307
2.8942
2.68699
2.40242
3.46857
3.39391
3.34894
3.27773
3.20595
3.11382
3.0027
2.85565
2.65668
2.37571
3.38211
3.3228
3.28522
3.22208
3.1579
3.07006
2.96401
2.82024
2.63093
2.35943
3.30793
3.26206
3.23058
3.17344
3.11401
3.02918
2.9283
2.78875
2.60974
2.35505
3.24305
3.20691
3.17857
3.12615
3.07091
2.98998
2.89488
2.7608
2.59249
2.35698
3.1911
3.15904
3.1315
3.0833
3.03153
2.95454
2.8652
2.73717
2.57953
2.36308
3.14256
3.1154
3.09004
3.04545
2.99584
2.92236
2.83786
2.71617
2.56933
2.37213
3.10296
3.07767
3.05259
3.01014
2.96279
2.89365
2.81444
2.69993
2.56272
2.382
3.08108
3.04982
3.02152
2.98017
2.93421
2.86799
2.79232
2.68466
2.55716
2.39203
3.04955
3.01651
2.99004
2.95115
2.90703
2.84461
2.7738
2.67293
2.55307
2.40095
3.01407
2.98419
2.96076
2.92479
2.88332
2.8244
2.75683
2.66206
2.55134
2.41116
2.98312
2.95793
2.93634
2.90177
2.86177
2.80568
2.74151
2.65326
2.54929
2.41953
2.96153
2.93745
2.91507
2.88043
2.84173
2.78906
2.72798
2.64501
2.54794
2.42771
2.94415
2.91835
2.89469
2.86127
2.82429
2.77381
2.71595
2.63905
2.54821
2.43602
2.92519
2.89886
2.87537
2.84348
2.80766
2.75999
2.70545
2.63297
2.54716
2.4432
2.90509
2.87918
2.8566
2.82611
2.79192
2.74706
2.6958
2.62797
2.54736
2.44996
2.88471
2.86
2.83893
2.81014
2.77784
2.7355
2.68687
2.6235
2.54814
2.45583
1.00547
1.01752
1.03186
1.04908
1.0707
1.09578
1.14609
1.42735
2.77873
3.29644
1.00547
1.01753
1.03186
1.04908
1.0707
1.09578
1.1461
1.42695
2.77588
3.28338
1.00547
1.01753
1.03186
1.04909
1.07068
1.09579
1.14611
1.4262
2.77161
3.26452
1.00547
1.01753
1.03185
1.04909
1.07066
1.0958
1.14611
1.42507
2.7655
3.24167
1.00547
1.01753
1.03185
1.0491
1.07063
1.09582
1.1461
1.42346
2.75782
3.21852
1.00547
1.01753
1.03184
1.04911
1.07061
1.09584
1.14607
1.42137
2.74848
3.1942
1.00547
1.01753
1.03184
1.04912
1.07058
1.09586
1.14602
1.41876
2.73726
3.17046
1.00547
1.01753
1.03183
1.04913
1.07054
1.09588
1.14596
1.41567
2.72464
3.14651
1.00547
1.01753
1.03183
1.04914
1.07051
1.0959
1.14589
1.41204
2.71082
3.1235
1.00547
1.01754
1.03182
1.04915
1.07049
1.09592
1.14582
1.4079
2.69601
3.10106
1.00547
1.01754
1.03181
1.04917
1.07046
1.09595
1.14573
1.40325
2.68035
3.07865
1.00546
1.01754
1.03181
1.04918
1.07043
1.09597
1.14564
1.39809
2.66431
3.05594
1.00546
1.01754
1.0318
1.04919
1.07041
1.096
1.14557
1.39243
2.64787
3.03576
1.00546
1.01754
1.0318
1.0492
1.07038
1.09602
1.1455
1.38632
2.63145
3.01661
1.00546
1.01755
1.0318
1.04921
1.07036
1.09605
1.14547
1.37983
2.61469
2.9984
1.00546
1.01755
1.03179
1.04922
1.07034
1.09608
1.14547
1.37306
2.59782
2.98127
1.00546
1.01755
1.03179
1.04922
1.07033
1.09611
1.14551
1.36602
2.58098
2.9658
1.00546
1.01755
1.03178
1.04923
1.07031
1.09614
1.1456
1.35891
2.56417
2.95201
1.00546
1.01755
1.03178
1.04924
1.07029
1.09618
1.14573
1.35146
2.54741
2.9397
1.00546
1.01755
1.03178
1.04925
1.07028
1.09622
1.14592
1.34375
2.53073
2.92913
1.00546
1.01755
1.03178
1.04925
1.07028
1.09622
1.14592
1.34375
2.53073
2.92913
1.00546
1.01755
1.03178
1.04924
1.07029
1.09618
1.14573
1.35146
2.54741
2.9397
1.00546
1.01755
1.03178
1.04923
1.07031
1.09614
1.1456
1.35891
2.56417
2.95201
1.00546
1.01755
1.03179
1.04922
1.07033
1.09611
1.14551
1.36602
2.58098
2.9658
1.00546
1.01755
1.03179
1.04922
1.07034
1.09608
1.14547
1.37306
2.59782
2.98128
1.00546
1.01755
1.0318
1.04921
1.07036
1.09605
1.14547
1.37983
2.61469
2.9984
1.00546
1.01754
1.0318
1.0492
1.07038
1.09602
1.1455
1.38632
2.63145
3.01661
1.00546
1.01754
1.0318
1.04919
1.07041
1.096
1.14557
1.39243
2.64787
3.03576
1.00546
1.01754
1.03181
1.04918
1.07043
1.09597
1.14564
1.39809
2.66431
3.05594
1.00547
1.01754
1.03181
1.04917
1.07046
1.09595
1.14573
1.40325
2.68035
3.07865
1.00547
1.01754
1.03182
1.04915
1.07049
1.09592
1.14582
1.4079
2.69601
3.10106
1.00547
1.01753
1.03183
1.04914
1.07051
1.0959
1.14589
1.41204
2.71082
3.1235
1.00547
1.01753
1.03183
1.04913
1.07054
1.09588
1.14596
1.41567
2.72464
3.14651
1.00547
1.01753
1.03184
1.04912
1.07058
1.09586
1.14602
1.41876
2.73726
3.17046
1.00547
1.01753
1.03184
1.04911
1.07061
1.09584
1.14607
1.42137
2.74848
3.1942
1.00547
1.01753
1.03185
1.0491
1.07063
1.09582
1.1461
1.42346
2.75783
3.21853
1.00547
1.01753
1.03185
1.04909
1.07066
1.0958
1.14611
1.42507
2.7655
3.24167
1.00547
1.01753
1.03186
1.04909
1.07068
1.09579
1.14611
1.4262
2.77161
3.26452
1.00547
1.01753
1.03186
1.04908
1.0707
1.09578
1.1461
1.42695
2.77588
3.28338
1.00547
1.01752
1.03186
1.04908
1.0707
1.09578
1.14609
1.42735
2.77873
3.29644
2.88471
2.86
2.83893
2.81014
2.77784
2.7355
2.68687
2.6235
2.54814
2.45583
2.90509
2.87918
2.85661
2.82611
2.79192
2.74706
2.6958
2.62798
2.54736
2.44995
2.92519
2.89886
2.87537
2.84348
2.80766
2.75999
2.70545
2.63298
2.54716
2.44319
2.94415
2.91835
2.89469
2.86127
2.82429
2.77381
2.71595
2.63906
2.5482
2.43602
2.96153
2.93745
2.91507
2.88043
2.84173
2.78906
2.72798
2.64501
2.54794
2.42771
2.98312
2.95793
2.93634
2.90176
2.86177
2.80568
2.74151
2.65325
2.54929
2.41953
3.01408
2.98419
2.96075
2.92479
2.88332
2.8244
2.75683
2.66205
2.55135
2.41115
3.04955
3.01651
2.99004
2.95115
2.90703
2.84461
2.7738
2.67293
2.55307
2.40092
3.08108
3.04982
3.02152
2.98017
2.93421
2.86798
2.79232
2.68466
2.55714
2.39199
3.10296
3.07767
3.05259
3.01014
2.9628
2.89365
2.81444
2.69992
2.56268
2.38197
3.14256
3.1154
3.09004
3.04545
2.99584
2.92236
2.83785
2.71616
2.56929
2.37212
3.1911
3.15904
3.1315
3.0833
3.03153
2.95454
2.86519
2.73716
2.57949
2.36308
3.24305
3.20691
3.17857
3.12615
3.07091
2.98998
2.89487
2.76078
2.59246
2.35698
3.30793
3.26206
3.23058
3.17344
3.11401
3.02918
2.92829
2.78873
2.60971
2.35501
3.38212
3.3228
3.28522
3.22208
3.15789
3.07005
2.96399
2.82022
2.63092
2.35933
3.46857
3.39391
3.34894
3.27773
3.20594
3.11381
3.00269
2.85563
2.65667
2.37558
3.55896
3.4626
3.40573
3.32742
3.25083
3.15713
3.04306
2.89419
2.68697
2.40234
3.66359
3.53629
3.46811
3.38174
3.297
3.20124
3.08595
2.9376
2.72496
2.44071
3.7436
3.56942
3.49008
3.39981
3.30909
3.20902
3.09209
2.94595
2.73392
2.44509
3.98909
3.80614
3.68388
3.56231
3.44213
3.32356
3.19521
3.05178
2.84364
2.62084
2.23018
1.87581
1.56711
1.31816
1.11857
0.954601
0.893139
0.939291
1.18978
1.23005
2.21213
1.8443
1.5309
1.28415
1.0888
0.936917
0.895888
0.970765
1.22496
1.24032
2.19218
1.81043
1.49335
1.2497
1.05754
0.924845
0.898627
1.00688
1.25437
1.24866
2.17003
1.77351
1.45427
1.21411
1.02463
0.918084
0.904167
1.04648
1.27787
1.25573
2.14523
1.73355
1.4126
1.17514
0.995792
0.911719
0.914156
1.08702
1.29646
1.26267
2.11802
1.69055
1.36773
1.13612
0.972065
0.907054
0.927576
1.12753
1.31301
1.27055
2.08844
1.6446
1.32087
1.09997
0.946469
0.904258
0.946634
1.16962
1.3291
1.27887
2.05639
1.59547
1.27484
1.06133
0.921165
0.904574
0.971747
1.20967
1.34232
1.28656
2.02022
1.5433
1.22554
1.01894
0.907046
0.906557
1.00261
1.2433
1.35109
1.29356
1.97865
1.48682
1.17172
0.981923
0.899855
0.910696
1.03783
1.26945
1.35662
1.30062
1.93142
1.42228
1.11843
0.952927
0.892059
0.918634
1.07641
1.29146
1.36104
1.30718
1.8771
1.35203
1.07101
0.92151
0.884276
0.932808
1.11824
1.3149
1.36966
1.3128
1.81654
1.27776
1.02069
0.889806
0.881482
0.953902
1.15891
1.33733
1.38005
1.31926
1.74748
1.20032
0.966063
0.869431
0.882294
0.981683
1.19288
1.35261
1.38634
1.32689
1.66812
1.11411
0.921789
0.860545
0.884278
1.0139
1.21794
1.36053
1.38973
1.33499
1.57452
1.02912
0.890125
0.850299
0.888864
1.04767
1.24096
1.3681
1.39009
1.3397
1.46071
0.949041
0.861841
0.83542
0.898147
1.08201
1.26717
1.38095
1.39351
1.33923
1.33015
0.880843
0.83427
0.824684
0.912243
1.11511
1.29146
1.40161
1.40468
1.3422
1.16927
0.833774
0.80932
0.819121
0.933412
1.14425
1.30941
1.41263
1.41752
1.35031
1.00494
0.807888
0.784755
0.821408
0.958603
1.16707
1.31834
1.413
1.42171
1.36389
2.42639
2.29229
2.12144
1.93004
1.72044
1.49919
1.28221
1.09719
0.887026
0.67993
2.42632
2.29094
2.11812
1.92436
1.71447
1.49416
1.27855
1.09367
0.884374
0.681028
2.42586
2.28804
2.11279
1.91784
1.70672
1.48678
1.27285
1.08785
0.879893
0.682965
2.42546
2.28322
2.10523
1.90754
1.69578
1.47688
1.26525
1.07957
0.874076
0.686159
2.42568
2.27757
2.09592
1.89513
1.68252
1.4648
1.25572
1.0688
0.866762
0.691136
2.42576
2.27079
2.08512
1.88095
1.66707
1.45071
1.24422
1.05499
0.858479
0.698189
2.42526
2.26419
2.07316
1.865
1.64948
1.43442
1.23052
1.03822
0.850405
0.70787
2.42308
2.2559
2.05932
1.84702
1.62964
1.41599
1.21419
1.01831
0.842888
0.721116
2.41861
2.24558
2.0432
1.82662
1.60731
1.395
1.1948
0.995372
0.834488
0.739437
2.41225
2.23285
2.02463
1.80351
1.58252
1.37156
1.1723
0.971322
0.823362
0.768023
2.40455
2.21768
2.00337
1.77771
1.55507
1.34583
1.14672
0.945632
0.810549
0.80443
2.39592
2.20009
1.97919
1.74892
1.52495
1.31735
1.11837
0.921128
0.803859
0.844707
2.38636
2.17988
1.95168
1.71665
1.4919
1.28674
1.08714
0.899124
0.800699
0.891536
2.37568
2.15668
1.92019
1.68045
1.4556
1.25311
1.05395
0.88235
0.802435
0.94371
2.36344
2.12997
1.88387
1.63986
1.41602
1.21644
1.0182
0.872419
0.813984
0.999223
2.34877
2.09917
1.84263
1.59435
1.37299
1.17616
0.984075
0.86608
0.842189
1.05403
2.33097
2.06343
1.79545
1.54497
1.32617
1.13229
0.950967
0.861678
0.890465
1.10595
2.30973
2.02215
1.74361
1.49052
1.27617
1.08466
0.926541
0.862841
0.957424
1.14918
2.28416
1.97471
1.68506
1.43216
1.22172
1.03517
0.907464
0.877432
1.04154
1.18382
2.25445
1.92011
1.6198
1.36903
1.16356
0.988139
0.896791
0.905622
1.12844
1.21254
2.25447
1.92018
1.6198
1.36902
1.16339
0.988148
0.896846
0.905917
1.12872
1.21256
2.28417
1.97471
1.68506
1.43215
1.22172
1.03502
0.907456
0.877601
1.04149
1.18397
2.30973
2.02215
1.74364
1.49057
1.27617
1.08464
0.926533
0.862901
0.957597
1.14995
2.33096
2.06344
1.79549
1.545
1.32614
1.13231
0.950958
0.861704
0.890545
1.10607
2.34877
2.09918
1.84265
1.59436
1.373
1.17613
0.984055
0.866083
0.842125
1.05428
2.36344
2.12997
1.88387
1.63987
1.41604
1.21648
1.01817
0.872365
0.813831
0.999078
2.37568
2.15667
1.9202
1.68047
1.45562
1.25314
1.05396
0.882316
0.80235
0.94364
2.38636
2.17988
1.95169
1.71667
1.49192
1.28675
1.08716
0.899113
0.800661
0.891383
2.39592
2.20009
1.9792
1.74892
1.52496
1.31737
1.11839
0.92113
0.803832
0.844581
2.40455
2.21768
2.00337
1.77771
1.55507
1.34582
1.14673
0.945679
0.810567
0.804323
2.41224
2.23285
2.02463
1.80351
1.58252
1.37156
1.1723
0.971342
0.82339
0.767954
2.41861
2.24558
2.0432
1.82662
1.6073
1.39499
1.1948
0.995392
0.834513
0.739398
2.42307
2.2559
2.05932
1.84702
1.62964
1.41599
1.2142
1.01831
0.842893
0.721101
2.42526
2.26419
2.07316
1.865
1.64949
1.43443
1.23053
1.03821
0.850409
0.707867
2.42576
2.27079
2.08512
1.88095
1.66707
1.45071
1.24423
1.05499
0.858473
0.698191
2.42569
2.27757
2.09592
1.89513
1.68252
1.4648
1.25572
1.0688
0.86675
0.691134
2.42547
2.28322
2.10524
1.90755
1.69578
1.47688
1.26526
1.07956
0.874064
0.686152
2.42587
2.28805
2.1128
1.91784
1.70672
1.48678
1.27285
1.08784
0.879882
0.682952
2.42633
2.29095
2.11812
1.92436
1.71447
1.49416
1.27854
1.09366
0.884368
0.681009
2.4264
2.2923
2.12145
1.93004
1.72044
1.49919
1.28221
1.09719
0.887023
0.679907
2.86045
2.83755
2.81861
2.79231
2.76243
2.72332
2.67758
2.61944
2.54934
2.46454
2.83821
2.81701
2.79901
2.77409
2.7458
2.70933
2.66727
2.61436
2.55105
2.47576
2.81944
2.79954
2.78207
2.75859
2.73203
2.6983
2.6592
2.61103
2.55287
2.48469
2.80322
2.78433
2.7674
2.74494
2.71968
2.68837
2.65191
2.60796
2.55438
2.49205
2.78873
2.77058
2.75448
2.7332
2.70909
2.6797
2.64529
2.60461
2.55525
2.49809
2.77606
2.75833
2.74291
2.72268
2.69961
2.67184
2.63914
2.60098
2.55499
2.50213
2.76501
2.74759
2.73266
2.71328
2.69113
2.66476
2.63361
2.59765
2.55429
2.50491
2.75517
2.73812
2.72363
2.70497
2.68367
2.65858
2.62888
2.59483
2.55387
2.50741
2.74609
2.72953
2.71561
2.69768
2.67722
2.65336
2.62505
2.59268
2.55407
2.51026
2.73735
2.72135
2.70818
2.69108
2.67154
2.64885
2.62191
2.59119
2.55478
2.51335
2.72888
2.71332
2.70098
2.6848
2.66624
2.64469
2.61905
2.58996
2.55553
2.51625
2.72089
2.70552
2.6939
2.67861
2.66101
2.64051
2.61609
2.58835
2.55573
2.51838
2.71368
2.69813
2.68694
2.67237
2.65562
2.63602
2.61264
2.58598
2.55471
2.51898
2.7073
2.69119
2.68001
2.66583
2.64969
2.63078
2.60827
2.5824
2.55215
2.5176
2.70177
2.68477
2.67316
2.65892
2.64303
2.62457
2.60278
2.57744
2.54809
2.51462
2.69679
2.67873
2.66626
2.65142
2.63531
2.61699
2.59578
2.57105
2.54264
2.51043
2.69286
2.67372
2.66016
2.64428
2.62744
2.6088
2.58789
2.56382
2.53659
2.50599
2.68965
2.66957
2.65498
2.63797
2.62014
2.60083
2.57987
2.55643
2.53064
2.50206
2.68721
2.66645
2.65113
2.6332
2.61449
2.5944
2.57307
2.54995
2.52538
2.49878
2.68543
2.66444
2.64878
2.63029
2.611
2.59022
2.56837
2.54513
2.52111
2.49576
1.00546
1.01756
1.03178
1.04926
1.07026
1.09627
1.14621
1.3339
2.50977
2.91762
1.00546
1.01756
1.03177
1.04927
1.07024
1.09634
1.14663
1.32206
2.48453
2.90529
1.00546
1.01756
1.03177
1.04927
1.07022
1.09641
1.14709
1.31057
2.45954
2.8939
1.00546
1.01756
1.03177
1.04928
1.0702
1.09649
1.14759
1.29967
2.43482
2.88341
1.00546
1.01756
1.03176
1.04929
1.07019
1.09655
1.14811
1.28965
2.41062
2.87342
1.00546
1.01756
1.03176
1.0493
1.07018
1.09661
1.14866
1.28091
2.38668
2.86437
1.00546
1.01756
1.03176
1.04931
1.07017
1.09663
1.14926
1.27357
2.36271
2.85626
1.00546
1.01757
1.03175
1.04931
1.07017
1.09662
1.14992
1.26809
2.33867
2.84895
1.00546
1.01757
1.03175
1.04932
1.07018
1.09656
1.15061
1.26433
2.31509
2.84225
1.00546
1.01757
1.03175
1.04932
1.07019
1.09646
1.15133
1.26168
2.29267
2.83593
1.00546
1.01757
1.03175
1.04933
1.07021
1.09634
1.15206
1.25971
2.27198
2.82986
1.00546
1.01757
1.03174
1.04933
1.07024
1.09621
1.15277
1.2581
2.2536
2.82414
1.00546
1.01757
1.03174
1.04933
1.07027
1.09607
1.15347
1.25662
2.23794
2.81874
1.00546
1.01757
1.03174
1.04932
1.0703
1.09594
1.15416
1.25516
2.22525
2.81344
1.00546
1.01757
1.03175
1.04931
1.07034
1.09582
1.1548
1.25373
2.21548
2.808
1.00546
1.01757
1.03175
1.0493
1.07037
1.0957
1.15545
1.25237
2.2082
2.80221
1.00546
1.01757
1.03175
1.04929
1.0704
1.09562
1.15602
1.25124
2.20322
2.79699
1.00546
1.01757
1.03175
1.04928
1.07043
1.09555
1.15653
1.25031
2.19899
2.79256
1.00546
1.01757
1.03175
1.04927
1.07045
1.0955
1.15685
1.24977
2.1959
2.78917
1.00546
1.01757
1.03175
1.04927
1.07047
1.09545
1.1574
1.24915
2.19419
2.78692
1.00546
1.01757
1.03175
1.04927
1.07047
1.09545
1.1574
1.24915
2.19419
2.78692
1.00546
1.01757
1.03175
1.04927
1.07045
1.0955
1.15685
1.24977
2.1959
2.78917
1.00546
1.01757
1.03175
1.04928
1.07043
1.09555
1.15653
1.25031
2.19899
2.79256
1.00546
1.01757
1.03175
1.04929
1.0704
1.09562
1.15602
1.25124
2.20322
2.79699
1.00546
1.01757
1.03175
1.0493
1.07037
1.0957
1.15545
1.25237
2.2082
2.80221
1.00546
1.01757
1.03175
1.04931
1.07034
1.09582
1.1548
1.25373
2.21548
2.808
1.00546
1.01757
1.03174
1.04932
1.0703
1.09594
1.15416
1.25516
2.22525
2.81344
1.00546
1.01757
1.03174
1.04933
1.07027
1.09607
1.15347
1.25662
2.23794
2.81874
1.00546
1.01757
1.03174
1.04933
1.07024
1.09621
1.15277
1.2581
2.2536
2.82414
1.00546
1.01757
1.03175
1.04933
1.07021
1.09634
1.15206
1.25971
2.27198
2.82986
1.00546
1.01757
1.03175
1.04932
1.07019
1.09646
1.15133
1.26168
2.29267
2.83592
1.00546
1.01757
1.03175
1.04932
1.07018
1.09656
1.15061
1.26433
2.31509
2.84225
1.00546
1.01757
1.03175
1.04931
1.07017
1.09662
1.14992
1.26809
2.33867
2.84895
1.00546
1.01756
1.03176
1.04931
1.07017
1.09663
1.14926
1.27357
2.36271
2.85626
1.00546
1.01756
1.03176
1.0493
1.07018
1.09661
1.14866
1.28091
2.38668
2.86437
1.00546
1.01756
1.03176
1.04929
1.07019
1.09655
1.14811
1.28965
2.41062
2.87342
1.00546
1.01756
1.03177
1.04928
1.0702
1.09649
1.14759
1.29967
2.43482
2.88341
1.00546
1.01756
1.03177
1.04927
1.07022
1.09641
1.14709
1.31057
2.45954
2.8939
1.00546
1.01756
1.03177
1.04927
1.07024
1.09634
1.14663
1.32206
2.48453
2.90529
1.00546
1.01756
1.03178
1.04926
1.07026
1.09627
1.14621
1.3339
2.50977
2.91762
2.68543
2.66444
2.64878
2.63029
2.61099
2.59022
2.56837
2.54512
2.5211
2.49575
2.68721
2.66645
2.65113
2.6332
2.61449
2.59439
2.57306
2.54994
2.52537
2.49877
2.68965
2.66956
2.65498
2.63797
2.62014
2.60083
2.57986
2.55643
2.53064
2.50206
2.69286
2.67372
2.66015
2.64428
2.62743
2.60879
2.58788
2.56382
2.53658
2.50598
2.69679
2.67872
2.66626
2.65142
2.63531
2.61698
2.59578
2.57105
2.54264
2.51043
2.70176
2.68477
2.67316
2.65892
2.64303
2.62457
2.60278
2.57744
2.54808
2.51462
2.7073
2.69119
2.68001
2.66583
2.64969
2.63078
2.60827
2.5824
2.55215
2.5176
2.71368
2.69813
2.68694
2.67237
2.65562
2.63601
2.61264
2.58598
2.55472
2.51898
2.72089
2.70552
2.69389
2.67861
2.66101
2.64051
2.61609
2.58835
2.55573
2.51838
2.72887
2.71332
2.70097
2.6848
2.66623
2.64469
2.61905
2.58997
2.55553
2.51626
2.73735
2.72135
2.70817
2.69108
2.67154
2.64885
2.62191
2.5912
2.55478
2.51335
2.74608
2.72953
2.71561
2.69768
2.67723
2.65336
2.62506
2.59268
2.55408
2.51027
2.75517
2.73812
2.72363
2.70498
2.68367
2.65859
2.62888
2.59484
2.55387
2.50742
2.76501
2.74759
2.73266
2.71328
2.69114
2.66476
2.63362
2.59765
2.5543
2.50492
2.77606
2.75834
2.74291
2.72268
2.69962
2.67184
2.63914
2.60099
2.55499
2.50214
2.78873
2.77058
2.75449
2.7332
2.70909
2.67971
2.64529
2.60462
2.55525
2.49809
2.80323
2.78434
2.7674
2.74495
2.71968
2.68837
2.65192
2.60796
2.55439
2.49205
2.81945
2.79955
2.78207
2.7586
2.73204
2.6983
2.6592
2.61103
2.55287
2.48469
2.83821
2.81701
2.79901
2.7741
2.7458
2.70934
2.66727
2.61436
2.55105
2.47576
2.86045
2.83756
2.81862
2.79232
2.76243
2.72332
2.67759
2.61944
2.54934
2.46455
)
;

boundaryField
{
    inlet
    {
        type            fixedValue;
        value           uniform 1;
    }
    outlet
    {
        type            zeroGradient;
    }
    triangle
    {
        type            zeroGradient;
    }
    top
    {
        type            symmetryPlane;
    }
    bottom
    {
        type            symmetryPlane;
    }
    defaultFaces
    {
        type            empty;
    }
}


// ************************************************************************* //
