/*--------------------------------*- C++ -*----------------------------------*\
  =========                 |
  \\      /  F ield         | OpenFOAM: The Open Source CFD Toolbox
   \\    /   O peration     | Website:  https://openfoam.org
    \\  /    A nd           | Version:  8
     \\/     M anipulation  |
\*---------------------------------------------------------------------------*/
FoamFile
{
    version     2.0;
    format      ascii;
    class       volScalarField;
    location    "2";
    object      rho;
}
// * * * * * * * * * * * * * * * * * * * * * * * * * * * * * * * * * * * * * //

dimensions      [1 -3 0 0 0 0 0];

internalField   nonuniform List<scalar> 
2600
(
0.967567
0.955098
1.01143
1.14375
1.33087
1.54425
1.68361
1.76159
1.76791
1.72152
0.938971
0.897944
0.956092
1.12073
1.32979
1.54221
1.67665
1.75722
1.74984
1.70192
0.927686
0.873763
0.914092
1.08748
1.31611
1.53676
1.68164
1.76928
1.74551
1.6706
0.925402
0.867847
0.890898
1.04533
1.27756
1.50625
1.66421
1.75705
1.74699
1.65741
0.925831
0.862489
0.877628
1.00833
1.23303
1.43801
1.59218
1.6776
1.69853
1.63213
0.930314
0.860293
0.862295
0.973232
1.18093
1.37209
1.52013
1.61376
1.6195
1.56334
0.935617
0.8577
0.853781
0.952057
1.1356
1.31747
1.45323
1.56789
1.55273
1.51012
0.939872
0.85842
0.856482
0.949265
1.11665
1.28042
1.40443
1.49163
1.50707
1.47457
0.941423
0.859779
0.857036
0.951177
1.10982
1.26199
1.37811
1.44866
1.48571
1.44108
0.942269
0.859248
0.854376
0.947133
1.10296
1.25595
1.37139
1.45118
1.46723
1.44468
0.942175
0.859632
0.855729
0.947145
1.1031
1.25417
1.38158
1.45808
1.47143
1.46048
0.941129
0.859868
0.856845
0.951017
1.10919
1.25779
1.3872
1.47649
1.47489
1.4746
0.939359
0.858905
0.857869
0.94991
1.11624
1.28112
1.40794
1.4893
1.50467
1.47673
0.935167
0.858148
0.854914
0.951518
1.13404
1.32048
1.45978
1.53189
1.5685
1.51223
0.93011
0.860534
0.861926
0.972261
1.18013
1.37559
1.50799
1.61571
1.62903
1.5621
0.926321
0.862524
0.876825
1.00748
1.23395
1.43499
1.59708
1.70463
1.67731
1.60077
0.926562
0.868196
0.891298
1.0458
1.27648
1.50423
1.67597
1.74251
1.73286
1.66811
0.92882
0.874736
0.91505
1.08785
1.31173
1.53978
1.67846
1.74832
1.76508
1.70716
0.939279
0.898824
0.95702
1.11957
1.328
1.54306
1.67347
1.7623
1.76686
1.7056
0.967375
0.955177
1.0109
1.14291
1.33017
1.54276
1.68709
1.78032
1.76205
1.69618
1.19733
1.03212
1.07084
1.1607
1.3237
1.53797
1.6946
1.78472
1.76668
1.70135
1.4339
1.11332
1.13526
1.17927
1.30905
1.52349
1.68965
1.7845
1.77596
1.71761
1.63551
1.19781
1.18488
1.1972
1.29278
1.49984
1.67163
1.77873
1.77594
1.71864
1.78933
1.29519
1.2288
1.21566
1.28249
1.47071
1.64901
1.771
1.76984
1.71117
1.91087
1.39691
1.27058
1.23531
1.27641
1.43909
1.63081
1.76262
1.76006
1.70208
2.00303
1.49325
1.31058
1.24794
1.27349
1.40714
1.61271
1.75338
1.75706
1.69843
2.07672
1.58273
1.35809
1.25843
1.27273
1.37608
1.58701
1.74271
1.75743
1.69923
2.13806
1.65953
1.41366
1.28054
1.2732
1.34873
1.5509
1.72794
1.75617
1.70033
2.18964
1.73077
1.46425
1.31507
1.27662
1.32751
1.5108
1.70806
1.75196
1.69535
2.23358
1.79599
1.5115
1.34835
1.28496
1.31254
1.47198
1.68271
1.74318
1.6869
2.26953
1.85378
1.56333
1.37823
1.29251
1.30339
1.43389
1.65519
1.73294
1.68014
2.2991
1.90242
1.61405
1.41519
1.2997
1.29797
1.39659
1.62576
1.72623
1.6745
2.32289
1.94556
1.65908
1.456
1.31437
1.2943
1.36347
1.59315
1.71754
1.66865
2.34263
1.9845
1.69984
1.49178
1.33943
1.29199
1.33685
1.55715
1.70633
1.66008
2.36047
2.01945
1.74005
1.52434
1.3633
1.29207
1.31676
1.51745
1.69168
1.65059
2.37742
2.05116
1.77708
1.55882
1.38448
1.29415
1.30284
1.47618
1.67391
1.64276
2.3945
2.0803
1.81029
1.59223
1.41044
1.29955
1.29191
1.43454
1.65479
1.63608
2.41329
2.10805
1.84092
1.62205
1.44033
1.30657
1.28488
1.39549
1.63431
1.62854
2.43445
2.13542
1.87097
1.65141
1.46902
1.31902
1.28081
1.36002
1.60974
1.61919
2.45583
2.1634
1.90173
1.68163
1.4971
1.3372
1.27723
1.32866
1.57915
1.6094
3.66337
3.54031
3.45592
3.3726
3.29086
3.21019
3.12205
3.02291
2.8772
2.69116
3.5098
3.39172
3.33641
3.27395
3.21123
3.14176
3.05987
2.95673
2.80498
2.58168
3.47071
3.38593
3.34103
3.28247
3.2236
3.15616
3.07427
2.96832
2.8142
2.60213
3.41142
3.34675
3.31012
3.25795
3.20557
3.13999
3.05877
2.95143
2.79934
2.58706
3.35888
3.30826
3.27944
3.23238
3.18406
3.12025
3.04135
2.93478
2.78751
2.57618
3.30847
3.26891
3.2452
3.20323
3.15967
3.0984
3.02271
2.91795
2.77694
2.57058
3.26873
3.23792
3.21728
3.17809
3.13661
3.07633
3.00349
2.90108
2.76697
2.5709
3.23144
3.20543
3.18533
3.14813
3.10873
3.05043
2.98116
2.88224
2.75557
2.57343
3.18843
3.16673
3.14766
3.11345
3.07645
3.02092
2.95585
2.86138
2.74325
2.5767
3.14421
3.12574
3.10818
3.07678
3.04179
2.98936
2.92853
2.83957
2.73065
2.57955
3.10459
3.08564
3.06804
3.0389
3.00645
2.95811
2.90218
2.81974
2.71903
2.58131
3.06858
3.04909
3.03168
3.00433
2.97355
2.92815
2.87572
2.79921
2.70676
2.58211
3.04216
3.01838
3.00019
2.97357
2.94397
2.90168
2.8529
2.78149
2.6952
2.58156
3.02485
3.001
2.98172
2.95423
2.92386
2.88181
2.83406
2.76669
2.68679
2.58273
3.01866
2.99756
2.97801
2.94866
2.91539
2.87089
2.82216
2.75731
2.6816
2.58474
3.01525
2.99628
2.97726
2.94805
2.9144
2.86979
2.81942
2.75417
2.68091
2.59007
3.00676
2.98842
2.97095
2.94498
2.91436
2.87197
2.82295
2.75936
2.68629
2.59901
2.99539
2.97681
2.96044
2.93747
2.91038
2.87265
2.82772
2.76757
2.69613
2.61142
2.98282
2.96432
2.9486
2.92715
2.90269
2.86939
2.82943
2.77508
2.70872
2.62777
2.96917
2.95147
2.93671
2.9164
2.89358
2.86314
2.82705
2.77825
2.71847
2.64276
1.40547
1.41749
1.43173
1.44875
1.47003
1.49453
1.54352
1.79688
2.88107
3.22102
1.40547
1.41749
1.43173
1.44876
1.47002
1.49454
1.54353
1.79642
2.8784
3.21454
1.40547
1.41749
1.43172
1.44876
1.47
1.49455
1.54354
1.79555
2.87341
3.20688
1.40547
1.41749
1.43172
1.44877
1.46998
1.49456
1.54354
1.79428
2.86609
3.19719
1.40547
1.41749
1.43172
1.44878
1.46996
1.49457
1.54354
1.79261
2.85729
3.18613
1.40547
1.41749
1.43171
1.44879
1.46993
1.49459
1.54351
1.79063
2.84729
3.17121
1.40547
1.4175
1.43171
1.4488
1.4699
1.49461
1.54347
1.78833
2.83596
3.15264
1.40547
1.4175
1.4317
1.44881
1.46987
1.49463
1.54342
1.78569
2.82444
3.13146
1.40547
1.4175
1.43169
1.44882
1.46984
1.49465
1.54335
1.78266
2.81428
3.11171
1.40547
1.4175
1.43169
1.44883
1.46981
1.49468
1.54327
1.77923
2.80547
3.09414
1.40547
1.4175
1.43168
1.44884
1.46979
1.4947
1.54319
1.77536
2.79752
3.07954
1.40547
1.41751
1.43168
1.44885
1.46976
1.49472
1.5431
1.77105
2.79023
3.06908
1.40547
1.41751
1.43167
1.44886
1.46974
1.49475
1.54302
1.76632
2.78184
3.06115
1.40547
1.41751
1.43167
1.44887
1.46971
1.49477
1.54296
1.76122
2.7718
3.05244
1.40546
1.41751
1.43166
1.44888
1.46969
1.4948
1.54292
1.75579
2.75961
3.04197
1.40546
1.41751
1.43166
1.44889
1.46968
1.49483
1.54292
1.75012
2.746
3.03105
1.40546
1.41751
1.43166
1.4489
1.46966
1.49486
1.54295
1.74422
2.73177
3.02183
1.40546
1.41752
1.43165
1.44891
1.46964
1.4949
1.54302
1.73827
2.71725
3.01428
1.40546
1.41752
1.43165
1.44891
1.46962
1.49493
1.54314
1.73202
2.70283
3.00759
1.40546
1.41752
1.43165
1.44892
1.46961
1.49497
1.5433
1.7255
2.68909
3.00118
1.40546
1.41752
1.43165
1.44892
1.46961
1.49497
1.5433
1.7255
2.68909
3.00118
1.40546
1.41752
1.43165
1.44891
1.46962
1.49493
1.54314
1.73202
2.70283
3.00759
1.40546
1.41752
1.43165
1.44891
1.46964
1.4949
1.54302
1.73827
2.71725
3.01429
1.40546
1.41751
1.43166
1.4489
1.46966
1.49486
1.54295
1.74422
2.73177
3.02183
1.40546
1.41751
1.43166
1.44889
1.46968
1.49483
1.54292
1.75012
2.74601
3.03106
1.40546
1.41751
1.43166
1.44888
1.46969
1.4948
1.54292
1.75579
2.75961
3.04197
1.40547
1.41751
1.43167
1.44887
1.46971
1.49477
1.54296
1.76122
2.7718
3.05244
1.40547
1.41751
1.43167
1.44886
1.46974
1.49475
1.54302
1.76632
2.78184
3.06115
1.40547
1.41751
1.43168
1.44885
1.46976
1.49472
1.5431
1.77105
2.79023
3.06907
1.40547
1.4175
1.43168
1.44884
1.46979
1.4947
1.54319
1.77536
2.79752
3.07954
1.40547
1.4175
1.43169
1.44883
1.46981
1.49468
1.54327
1.77923
2.80547
3.09414
1.40547
1.4175
1.43169
1.44882
1.46984
1.49465
1.54335
1.78266
2.81428
3.11172
1.40547
1.4175
1.4317
1.44881
1.46987
1.49463
1.54342
1.78569
2.82444
3.13146
1.40547
1.4175
1.43171
1.4488
1.4699
1.49461
1.54347
1.78833
2.83596
3.15265
1.40547
1.41749
1.43171
1.44879
1.46993
1.49459
1.54351
1.79063
2.84729
3.17121
1.40547
1.41749
1.43172
1.44878
1.46996
1.49457
1.54354
1.79261
2.85729
3.18613
1.40547
1.41749
1.43172
1.44877
1.46998
1.49456
1.54354
1.79428
2.86609
3.1972
1.40547
1.41749
1.43172
1.44876
1.47
1.49455
1.54354
1.79555
2.87341
3.20688
1.40547
1.41749
1.43173
1.44876
1.47002
1.49454
1.54353
1.79642
2.8784
3.21454
1.40547
1.41749
1.43173
1.44875
1.47003
1.49453
1.54352
1.79688
2.88107
3.22102
2.96917
2.95147
2.93671
2.9164
2.89358
2.86314
2.82705
2.77825
2.71847
2.64276
2.98282
2.96433
2.94861
2.92715
2.90269
2.86939
2.82943
2.77508
2.70872
2.62776
2.99539
2.97682
2.96044
2.93747
2.91038
2.87264
2.82772
2.76757
2.69612
2.61141
3.00677
2.98842
2.97095
2.94498
2.91436
2.87197
2.82295
2.75936
2.68629
2.599
3.01525
2.99628
2.97726
2.94804
2.9144
2.86979
2.81942
2.75417
2.6809
2.59007
3.01866
2.99756
2.97801
2.94866
2.91539
2.87089
2.82216
2.7573
2.6816
2.58474
3.02485
3.001
2.98172
2.95423
2.92386
2.88181
2.83406
2.76669
2.68679
2.58272
3.04216
3.01837
3.00019
2.97357
2.94397
2.90168
2.8529
2.78149
2.69521
2.58155
3.06858
3.04909
3.03169
3.00433
2.97355
2.92815
2.87572
2.79921
2.70675
2.58209
3.1046
3.08564
3.06805
3.0389
3.00646
2.95811
2.90218
2.81974
2.71901
2.58129
3.14421
3.12574
3.10818
3.07678
3.04179
2.98936
2.92853
2.83956
2.73062
2.57954
3.18843
3.16673
3.14766
3.11345
3.07645
3.02092
2.95585
2.86137
2.74322
2.57671
3.23144
3.20543
3.18533
3.14813
3.10873
3.05043
2.98116
2.88223
2.75555
2.57343
3.26873
3.23792
3.21728
3.17809
3.13661
3.07632
3.00348
2.90107
2.76695
2.57087
3.30847
3.26891
3.2452
3.20323
3.15967
3.0984
3.0227
2.91793
2.77693
2.5705
3.35888
3.30826
3.27944
3.23238
3.18406
3.12025
3.04134
2.93477
2.7875
2.57608
3.41142
3.34675
3.31012
3.25795
3.20557
3.13999
3.05876
2.95142
2.79933
2.58699
3.47071
3.38593
3.34103
3.28247
3.22359
3.15616
3.07426
2.96831
2.81419
2.6021
3.5098
3.39172
3.33641
3.27395
3.21123
3.14176
3.05987
2.95672
2.80496
2.58166
3.66337
3.54031
3.45592
3.3726
3.29086
3.21019
3.12204
3.0229
2.87719
2.69117
2.45582
2.16332
1.90164
1.68166
1.49728
1.33726
1.2771
1.32805
1.57814
1.60961
2.43446
2.13537
1.87088
1.65143
1.46919
1.31906
1.28066
1.35938
1.61007
1.61953
2.41331
2.10805
1.84086
1.62211
1.44041
1.30655
1.28467
1.39562
1.63609
1.6285
2.39452
2.08036
1.81027
1.59224
1.41053
1.29959
1.2916
1.43534
1.65714
1.63605
2.37741
2.05122
1.77709
1.55886
1.38461
1.29419
1.30231
1.47585
1.67427
1.64315
2.36041
2.01947
1.74005
1.52451
1.36328
1.29215
1.31609
1.51543
1.68985
1.65099
2.34253
1.98445
1.69992
1.49185
1.33929
1.29206
1.33629
1.55576
1.70528
1.65933
2.32278
1.9455
1.65921
1.45578
1.31453
1.29448
1.36308
1.59453
1.71859
1.6673
2.29902
1.90243
1.61405
1.41496
1.30024
1.2983
1.39563
1.6284
1.72829
1.6747
2.26955
1.8538
1.56315
1.37835
1.29291
1.30366
1.43208
1.65613
1.73494
1.6819
2.2337
1.79595
1.51133
1.34853
1.28514
1.3126
1.47116
1.68003
1.74001
1.68798
2.18978
1.73073
1.46414
1.3149
1.27726
1.32757
1.51254
1.70476
1.74811
1.69226
2.13815
1.65959
1.41349
1.28021
1.274
1.34914
1.55216
1.72794
1.75672
1.69647
2.07671
1.58305
1.35784
1.25814
1.2736
1.37692
1.58492
1.74376
1.76064
1.70128
2.00286
1.49377
1.31018
1.24813
1.27415
1.40792
1.60849
1.7516
1.76163
1.70647
1.91053
1.39731
1.2701
1.23568
1.27706
1.43929
1.6292
1.75757
1.76025
1.70886
1.78895
1.29511
1.22816
1.21617
1.28404
1.47045
1.65216
1.7668
1.76212
1.70688
1.63533
1.19734
1.18399
1.19764
1.29515
1.50016
1.67295
1.7817
1.77132
1.70805
1.43423
1.11315
1.13459
1.17925
1.31107
1.52505
1.68669
1.78606
1.78113
1.71354
1.19755
1.03266
1.07122
1.16047
1.32487
1.54006
1.68943
1.7796
1.78119
1.72201
2.63351
2.53737
2.40691
2.24625
2.05773
1.85217
1.64665
1.46975
1.26454
1.05002
2.63321
2.53601
2.40405
2.24169
2.053
1.84804
1.64345
1.46643
1.26182
1.05126
2.63218
2.5328
2.39921
2.23674
2.04749
1.8425
1.63874
1.46102
1.2572
1.05344
2.6308
2.52748
2.39214
2.22885
2.0399
1.8354
1.6327
1.45337
1.25116
1.05699
2.6297
2.52122
2.38333
2.21909
2.03057
1.82675
1.62517
1.44341
1.24353
1.06248
2.62841
2.51405
2.37303
2.20734
2.01892
1.81615
1.61587
1.43051
1.23485
1.07025
2.6268
2.50701
2.36146
2.19321
2.00438
1.80286
1.60428
1.41463
1.22641
1.08087
2.62408
2.4987
2.34802
2.17635
1.98644
1.78649
1.58975
1.39554
1.21865
1.09528
2.6196
2.48881
2.33244
2.1565
1.96488
1.76655
1.57177
1.3733
1.21021
1.11485
2.61366
2.47709
2.31478
2.13378
1.94011
1.74335
1.55036
1.34987
1.19933
1.145
2.60683
2.46366
2.29513
2.10873
1.91254
1.71749
1.52573
1.32474
1.18785
1.18339
2.59948
2.44866
2.27364
2.08171
1.8829
1.68912
1.49833
1.30084
1.18411
1.22551
2.59167
2.43207
2.25019
2.05269
1.8515
1.65928
1.46815
1.27982
1.18354
1.27363
2.58341
2.41368
2.2241
2.02112
1.81814
1.62731
1.43596
1.26461
1.18736
1.32625
2.57458
2.39296
2.19405
1.98579
1.78222
1.59296
1.40096
1.25649
1.202
1.38248
2.56467
2.36889
2.15888
1.94507
1.7427
1.55516
1.36699
1.25206
1.23424
1.43904
2.55275
2.3396
2.11667
1.89904
1.69858
1.51339
1.33322
1.25021
1.28456
1.49331
2.537
2.30324
2.06808
1.84672
1.65034
1.46729
1.30749
1.25237
1.35285
1.53655
2.51434
2.25863
2.01205
1.79003
1.59733
1.41864
1.28712
1.26804
1.43645
1.56895
2.48371
2.20577
1.95011
1.72943
1.54083
1.37151
1.27817
1.29519
1.52069
1.5943
2.48373
2.20583
1.95012
1.72942
1.54067
1.37152
1.27825
1.29547
1.52099
1.5943
2.51434
2.25863
2.01205
1.79002
1.59733
1.41849
1.28712
1.26821
1.4364
1.56908
2.537
2.30324
2.0681
1.84676
1.65034
1.46727
1.30748
1.25242
1.35302
1.53726
2.55274
2.33961
2.1167
1.89908
1.69855
1.51341
1.33321
1.25023
1.28464
1.49342
2.56467
2.36889
2.1589
1.94508
1.74271
1.55514
1.36697
1.25207
1.23417
1.43927
2.57458
2.39296
2.19405
1.98581
1.78224
1.593
1.40093
1.25644
1.20183
1.38233
2.58341
2.41367
2.22411
2.02114
1.81816
1.62734
1.43597
1.26457
1.18728
1.32618
2.59167
2.43207
2.25019
2.05271
1.85152
1.65929
1.46816
1.27981
1.1835
1.27348
2.59948
2.44866
2.27364
2.08172
1.88291
1.68914
1.49835
1.30085
1.18407
1.22538
2.60683
2.46366
2.29513
2.10873
1.91254
1.71749
1.52574
1.32479
1.18787
1.18328
2.61366
2.47709
2.31478
2.13378
1.94011
1.74335
1.55036
1.34989
1.19936
1.14493
2.6196
2.48881
2.33244
2.1565
1.96488
1.76655
1.57177
1.37332
1.21023
1.11481
2.62407
2.4987
2.34802
2.17635
1.98644
1.78649
1.58976
1.39554
1.21866
1.09526
2.6268
2.50701
2.36146
2.19321
2.00438
1.80287
1.60429
1.41463
1.22641
1.08087
2.62841
2.51405
2.37303
2.20734
2.01892
1.81615
1.61588
1.43051
1.23485
1.07025
2.6297
2.52122
2.38333
2.21909
2.03057
1.82675
1.62517
1.44341
1.24351
1.06248
2.63081
2.52748
2.39214
2.22885
2.0399
1.83541
1.63271
1.45337
1.25115
1.05698
2.63218
2.53281
2.39921
2.23675
2.04749
1.8425
1.63874
1.46102
1.25719
1.05342
2.63322
2.53602
2.40405
2.24169
2.053
1.84804
1.64345
1.46642
1.26182
1.05124
2.63351
2.53738
2.40691
2.24625
2.05773
1.85217
1.64665
1.46975
1.26454
1.04999
2.95128
2.93489
2.92164
2.90302
2.88181
2.85378
2.8206
2.77715
2.7233
2.65604
2.93368
2.91848
2.90584
2.88811
2.86787
2.84155
2.81101
2.77213
2.72463
2.667
2.91826
2.90393
2.89152
2.87469
2.85555
2.83102
2.80245
2.76711
2.72401
2.67289
2.90493
2.89125
2.87911
2.86288
2.84454
2.82165
2.79485
2.76233
2.72248
2.67581
2.89337
2.88016
2.86853
2.85305
2.83544
2.81383
2.78837
2.75815
2.7212
2.67815
2.88362
2.87066
2.85946
2.84468
2.82775
2.80725
2.78297
2.75453
2.72004
2.68009
2.87531
2.86254
2.85167
2.83748
2.8212
2.80171
2.77857
2.75169
2.71919
2.68185
2.86794
2.85544
2.8449
2.83124
2.81559
2.79706
2.77502
2.74961
2.7189
2.68381
2.86112
2.849
2.8389
2.82581
2.81081
2.79323
2.77227
2.74819
2.71931
2.68629
2.85458
2.84289
2.83338
2.82095
2.80667
2.79001
2.77013
2.74736
2.72022
2.68912
2.8483
2.83696
2.82809
2.81638
2.80288
2.78712
2.76828
2.7468
2.72127
2.69196
2.84246
2.83127
2.82297
2.81196
2.79922
2.7843
2.76643
2.74604
2.72194
2.69422
2.83727
2.82596
2.81803
2.80758
2.79552
2.78133
2.7643
2.74481
2.72181
2.69533
2.83279
2.82107
2.81318
2.80307
2.79151
2.77789
2.76158
2.74276
2.72065
2.69514
2.82901
2.81665
2.80847
2.79835
2.78703
2.7738
2.7581
2.73974
2.71839
2.69386
2.82569
2.81253
2.80375
2.79322
2.78178
2.76871
2.7535
2.73566
2.71509
2.69162
2.82311
2.80916
2.79959
2.78832
2.77636
2.7631
2.74816
2.73088
2.71127
2.68911
2.82097
2.80633
2.79601
2.78392
2.77125
2.7575
2.74256
2.72582
2.70738
2.68683
2.81928
2.80415
2.79329
2.78051
2.76719
2.75288
2.73769
2.72122
2.70376
2.68478
2.81798
2.80268
2.79156
2.77837
2.76462
2.74979
2.73422
2.71766
2.70063
2.68262
1.40546
1.41752
1.43164
1.44893
1.46959
1.49503
1.54357
1.71711
2.67319
2.9927
1.40546
1.41752
1.43164
1.44894
1.46957
1.4951
1.54394
1.70693
2.65526
2.98251
1.40546
1.41752
1.43164
1.44895
1.46955
1.49517
1.54435
1.69699
2.63829
2.97267
1.40546
1.41752
1.43163
1.44896
1.46953
1.49525
1.54479
1.68751
2.62167
2.9637
1.40546
1.41753
1.43163
1.44897
1.46952
1.49532
1.54525
1.67879
2.60511
2.9556
1.40546
1.41753
1.43163
1.44897
1.46951
1.49537
1.54574
1.67118
2.58814
2.94863
1.40546
1.41753
1.43163
1.44898
1.4695
1.4954
1.54629
1.66472
2.57039
2.94257
1.40546
1.41753
1.43162
1.44899
1.4695
1.49538
1.5469
1.65973
2.55182
2.93712
1.40546
1.41753
1.43162
1.44899
1.46951
1.49533
1.54756
1.65617
2.53312
2.93211
1.40546
1.41753
1.43162
1.449
1.46952
1.49523
1.54824
1.65364
2.51521
2.92739
1.40546
1.41753
1.43161
1.449
1.46954
1.49512
1.54893
1.65176
2.49866
2.92294
1.40546
1.41753
1.43161
1.449
1.46957
1.49498
1.54962
1.65021
2.48393
2.9188
1.40546
1.41754
1.43161
1.449
1.46959
1.49485
1.55028
1.64879
2.47135
2.915
1.40546
1.41754
1.43161
1.449
1.46963
1.49472
1.55094
1.64738
2.46107
2.91134
1.40546
1.41754
1.43161
1.44899
1.46966
1.4946
1.55155
1.646
2.45306
2.90766
1.40546
1.41754
1.43162
1.44898
1.46969
1.4945
1.55217
1.64469
2.44694
2.90374
1.40546
1.41754
1.43162
1.44897
1.46972
1.49441
1.55272
1.64358
2.4426
2.90022
1.40546
1.41754
1.43162
1.44896
1.46975
1.49434
1.5532
1.64266
2.4389
2.89719
1.40546
1.41754
1.43162
1.44895
1.46977
1.4943
1.55351
1.64213
2.43622
2.8948
1.40546
1.41753
1.43162
1.44894
1.46979
1.49425
1.55403
1.64154
2.43478
2.89317
1.40546
1.41753
1.43162
1.44894
1.46979
1.49425
1.55403
1.64154
2.43478
2.89317
1.40546
1.41754
1.43162
1.44895
1.46977
1.4943
1.55351
1.64213
2.43622
2.8948
1.40546
1.41754
1.43162
1.44896
1.46975
1.49434
1.5532
1.64266
2.4389
2.89719
1.40546
1.41754
1.43162
1.44897
1.46972
1.49441
1.55272
1.64358
2.44259
2.90022
1.40546
1.41754
1.43162
1.44898
1.46969
1.4945
1.55217
1.64469
2.44694
2.90374
1.40546
1.41754
1.43161
1.44899
1.46966
1.4946
1.55155
1.646
2.45306
2.90766
1.40546
1.41754
1.43161
1.449
1.46963
1.49472
1.55094
1.64738
2.46107
2.91134
1.40546
1.41754
1.43161
1.449
1.46959
1.49485
1.55028
1.64879
2.47135
2.91499
1.40546
1.41753
1.43161
1.449
1.46957
1.49498
1.54962
1.65021
2.48393
2.9188
1.40546
1.41753
1.43161
1.449
1.46954
1.49512
1.54893
1.65176
2.49866
2.92293
1.40546
1.41753
1.43162
1.449
1.46952
1.49523
1.54824
1.65364
2.51521
2.92739
1.40546
1.41753
1.43162
1.44899
1.46951
1.49533
1.54756
1.65617
2.53312
2.93211
1.40546
1.41753
1.43162
1.44899
1.4695
1.49538
1.5469
1.65973
2.55182
2.93712
1.40546
1.41753
1.43163
1.44898
1.4695
1.4954
1.54629
1.66472
2.57039
2.94257
1.40546
1.41753
1.43163
1.44897
1.46951
1.49537
1.54574
1.67118
2.58814
2.94863
1.40546
1.41753
1.43163
1.44897
1.46952
1.49532
1.54525
1.67879
2.60511
2.9556
1.40546
1.41752
1.43163
1.44896
1.46953
1.49525
1.54479
1.68751
2.62167
2.9637
1.40546
1.41752
1.43164
1.44895
1.46955
1.49517
1.54435
1.69699
2.63829
2.97267
1.40546
1.41752
1.43164
1.44894
1.46957
1.4951
1.54394
1.70693
2.65526
2.98251
1.40546
1.41752
1.43164
1.44893
1.46959
1.49503
1.54357
1.71711
2.67319
2.9927
2.81798
2.80268
2.79157
2.77837
2.76461
2.74979
2.73421
2.71766
2.70062
2.68262
2.81928
2.80415
2.79329
2.78051
2.76719
2.75287
2.73769
2.72122
2.70376
2.68478
2.82097
2.80633
2.79601
2.78392
2.77124
2.7575
2.74256
2.72581
2.70737
2.68683
2.8231
2.80916
2.79959
2.78832
2.77636
2.76309
2.74815
2.73088
2.71127
2.6891
2.82569
2.81253
2.80374
2.79322
2.78178
2.76871
2.7535
2.73566
2.71509
2.69161
2.82901
2.81664
2.80846
2.79834
2.78702
2.7738
2.7581
2.73974
2.71839
2.69386
2.83279
2.82107
2.81318
2.80307
2.7915
2.77789
2.76158
2.74276
2.72065
2.69514
2.83727
2.82596
2.81802
2.80758
2.79552
2.78132
2.7643
2.74481
2.72181
2.69533
2.84246
2.83127
2.82297
2.81196
2.79922
2.7843
2.76643
2.74604
2.72194
2.69422
2.8483
2.83696
2.82809
2.81638
2.80288
2.78712
2.76828
2.74681
2.72127
2.69196
2.85458
2.84289
2.83338
2.82095
2.80667
2.79001
2.77013
2.74736
2.72022
2.68912
2.86111
2.849
2.8389
2.82581
2.81082
2.79323
2.77228
2.74819
2.71931
2.68629
2.86794
2.85544
2.8449
2.83124
2.81559
2.79707
2.77502
2.74962
2.7189
2.68381
2.87531
2.86254
2.85167
2.83749
2.8212
2.80171
2.77857
2.7517
2.71919
2.68185
2.88362
2.87066
2.85946
2.84468
2.82776
2.80726
2.78298
2.75453
2.72004
2.68009
2.89338
2.88016
2.86854
2.85305
2.83544
2.81384
2.78837
2.75815
2.7212
2.67816
2.90493
2.89125
2.87911
2.86289
2.84455
2.82165
2.79485
2.76234
2.72249
2.67581
2.91826
2.90393
2.89153
2.8747
2.85555
2.83102
2.80245
2.76711
2.72402
2.6729
2.93369
2.91849
2.90584
2.88811
2.86787
2.84155
2.81101
2.77213
2.72463
2.66701
2.95128
2.9349
2.92164
2.90302
2.88181
2.85378
2.82061
2.77715
2.7233
2.65604
)
;

boundaryField
{
    inlet
    {
        type            calculated;
        value           uniform 1.40001;
    }
    outlet
    {
        type            calculated;
        value           nonuniform List<scalar> 
100
(
1.59439
1.56918
1.53739
1.49356
1.43942
1.38249
1.32635
1.27364
1.22555
1.18345
1.14513
1.11502
1.09548
1.08108
1.07045
1.06267
1.05715
1.05358
1.05139
1.05014
1.7006
1.71704
1.71886
1.71171
1.70225
1.69836
1.69882
1.70035
1.69556
1.6871
1.68026
1.67442
1.66875
1.6603
1.65078
1.64283
1.63613
1.62864
1.61934
1.60954
1.72146
1.70051
1.67046
1.65868
1.63269
1.56259
1.50937
1.47491
1.44167
1.44471
1.46064
1.4741
1.47651
1.51303
1.56263
1.60037
1.66638
1.70767
1.70723
1.69656
1.60974
1.61967
1.62859
1.63613
1.64325
1.65113
1.65947
1.66742
1.67481
1.682
1.68802
1.69226
1.69657
1.70142
1.70658
1.70861
1.70662
1.70818
1.71408
1.72243
1.05016
1.05141
1.0536
1.05716
1.06267
1.07045
1.08109
1.0955
1.11507
1.1452
1.18356
1.22567
1.27379
1.32641
1.38264
1.43918
1.49344
1.53668
1.56905
1.5944
)
;
    }
    triangle
    {
        type            calculated;
        value           nonuniform List<scalar> 
40
(
3.66337
3.54031
3.45592
3.3726
3.29086
3.21019
3.12205
3.02291
2.8772
2.69116
0.967567
0.938971
0.927686
0.925402
0.925831
0.930314
0.935617
0.939872
0.941423
0.942269
0.942175
0.941129
0.939359
0.935167
0.93011
0.926321
0.926562
0.92882
0.939279
0.967375
3.66337
3.54031
3.45592
3.3726
3.29086
3.21019
3.12204
3.0229
2.87719
2.69117
)
;
    }
    top
    {
        type            symmetryPlane;
    }
    bottom
    {
        type            symmetryPlane;
    }
    defaultFaces
    {
        type            empty;
    }
}


// ************************************************************************* //
