/*--------------------------------*- C++ -*----------------------------------*\
  =========                 |
  \\      /  F ield         | OpenFOAM: The Open Source CFD Toolbox
   \\    /   O peration     | Website:  https://openfoam.org
    \\  /    A nd           | Version:  8
     \\/     M anipulation  |
\*---------------------------------------------------------------------------*/
FoamFile
{
    version     2.0;
    format      ascii;
    class       volScalarField;
    location    "2";
    object      T;
}
// * * * * * * * * * * * * * * * * * * * * * * * * * * * * * * * * * * * * * //

dimensions      [0 0 0 1 0 0 0];

internalField   nonuniform List<scalar> 
2600
(
1.23011
1.16483
1.07166
1.01911
1.03431
1.0726
1.0982
1.11374
1.11907
1.11468
1.28185
1.21796
1.12352
1.05543
1.06208
1.08787
1.10674
1.12113
1.12191
1.11926
1.29251
1.24068
1.16954
1.1018
1.09683
1.11312
1.12686
1.13912
1.13383
1.12739
1.29138
1.24495
1.20159
1.15344
1.13648
1.14756
1.15594
1.16154
1.15917
1.15344
1.28931
1.24351
1.22364
1.20831
1.19206
1.19296
1.19214
1.18367
1.19019
1.19364
1.28927
1.24497
1.23693
1.25514
1.25981
1.26113
1.2535
1.23437
1.23246
1.23369
1.29098
1.24842
1.2466
1.28656
1.32068
1.33244
1.32044
1.3035
1.28585
1.27658
1.2939
1.25252
1.25355
1.30002
1.35296
1.37479
1.36686
1.34799
1.33244
1.30725
1.29559
1.25487
1.2539
1.30069
1.35738
1.38458
1.38476
1.37151
1.36076
1.31698
1.29648
1.2549
1.25209
1.29698
1.35366
1.38406
1.39072
1.38603
1.36778
1.32597
1.29642
1.25508
1.25287
1.29701
1.35367
1.38328
1.39591
1.38875
1.3689
1.33051
1.29542
1.25489
1.25379
1.30069
1.35707
1.38259
1.38956
1.38207
1.35584
1.32801
1.29361
1.25282
1.25441
1.30031
1.3526
1.37433
1.36824
1.34829
1.33048
1.30729
1.29073
1.24877
1.24728
1.28604
1.31886
1.33203
1.32108
1.29499
1.29042
1.27426
1.2893
1.24525
1.23683
1.25456
1.25789
1.26005
1.2477
1.23984
1.2347
1.2291
1.28969
1.2436
1.22343
1.20805
1.19121
1.19
1.19338
1.19492
1.18392
1.18175
1.2919
1.24508
1.20216
1.15391
1.13537
1.14575
1.15992
1.15726
1.15613
1.15667
1.29295
1.24116
1.17061
1.1021
1.09478
1.11344
1.12705
1.13195
1.13947
1.13812
1.28159
1.21841
1.12456
1.05492
1.06122
1.0879
1.10654
1.12147
1.12582
1.12003
1.22969
1.16483
1.07192
1.01873
1.03395
1.07196
1.0995
1.1177
1.11714
1.10845
1.17464
1.09514
1.02585
0.990894
1.01255
1.06027
1.09385
1.11214
1.11418
1.10463
1.14124
1.04889
0.999061
0.972296
0.996173
1.05002
1.0877
1.10615
1.11354
1.10522
1.13874
1.03028
0.986766
0.963816
0.985427
1.04059
1.08071
1.10038
1.11156
1.1033
1.14315
1.02616
0.982574
0.961555
0.9788
1.03026
1.07319
1.09525
1.10876
1.09978
1.15383
1.03115
0.981295
0.963294
0.974248
1.01901
1.06695
1.091
1.10542
1.0961
1.16605
1.04408
0.985107
0.965221
0.971441
1.00797
1.06124
1.08792
1.10332
1.09343
1.17805
1.06145
0.996134
0.967555
0.969614
0.997889
1.05427
1.0858
1.10162
1.09172
1.1894
1.07789
1.011
0.973152
0.968425
0.98975
1.04498
1.08358
1.09963
1.08983
1.20007
1.0937
1.02412
0.98118
0.969063
0.983693
1.03458
1.08069
1.09769
1.08676
1.21052
1.10874
1.0361
0.989234
0.971741
0.979803
1.02461
1.07688
1.09565
1.08379
1.22055
1.12286
1.04947
0.997308
0.974271
0.977932
1.01512
1.07282
1.09412
1.08208
1.23025
1.13572
1.06302
1.00822
0.97648
0.977476
1.00605
1.06814
1.0939
1.08123
1.23947
1.14814
1.07565
1.02073
0.981015
0.978269
0.998185
1.06166
1.09317
1.08059
1.24817
1.16026
1.08781
1.03223
0.989415
0.979793
0.99195
1.05289
1.09143
1.0792
1.25625
1.17197
1.10044
1.04328
0.99826
0.982734
0.986955
1.0422
1.08829
1.07729
1.26329
1.18317
1.11286
1.05538
1.00683
0.986217
0.982953
1.03124
1.08398
1.07569
1.26875
1.19349
1.12469
1.06752
1.01697
0.989
0.980163
1.02049
1.07895
1.07455
1.27173
1.20235
1.13573
1.07857
1.02785
0.99101
0.979372
1.01002
1.07288
1.07349
1.27215
1.20918
1.14562
1.08864
1.03748
0.994409
0.979414
0.999978
1.06503
1.07212
1.27137
1.21396
1.15374
1.09738
1.04585
0.99938
0.979109
0.990384
1.05573
1.06983
1.52448
1.50513
1.49235
1.47875
1.46436
1.44945
1.43281
1.41338
1.38368
1.36342
1.49327
1.47335
1.46449
1.45383
1.44267
1.42998
1.41475
1.39491
1.36455
1.32594
1.47781
1.46217
1.45325
1.44234
1.43188
1.42
1.40533
1.38552
1.35562
1.31318
1.46055
1.44846
1.44044
1.42986
1.41977
1.40765
1.39282
1.37286
1.34382
1.30009
1.44573
1.43625
1.42968
1.41965
1.40963
1.39712
1.38221
1.36226
1.3343
1.29106
1.43117
1.42308
1.41727
1.40824
1.39922
1.3872
1.37282
1.35313
1.3264
1.28501
1.41679
1.41044
1.40579
1.39796
1.38992
1.37855
1.36496
1.3458
1.32045
1.28246
1.40504
1.40065
1.39703
1.39023
1.38297
1.37226
1.35949
1.34101
1.31715
1.28225
1.40118
1.39661
1.39282
1.38645
1.37956
1.36925
1.35707
1.33923
1.31645
1.28394
1.39927
1.39537
1.39183
1.38575
1.37886
1.36863
1.35666
1.33917
1.31729
1.28744
1.39927
1.39639
1.39295
1.38675
1.37967
1.3695
1.35768
1.34052
1.31952
1.29191
1.40571
1.40034
1.39531
1.38875
1.38148
1.37124
1.35941
1.34272
1.32263
1.29694
1.40341
1.39914
1.39527
1.38945
1.38244
1.37247
1.36119
1.34536
1.32617
1.30205
1.39502
1.39216
1.39016
1.38605
1.38059
1.37212
1.36185
1.34706
1.32943
1.307
1.38352
1.3815
1.38041
1.37774
1.37426
1.3682
1.36
1.34718
1.33093
1.31052
1.37506
1.37252
1.37076
1.3679
1.3651
1.36062
1.3546
1.34452
1.33057
1.31225
1.37085
1.36718
1.36407
1.36021
1.35674
1.35215
1.34694
1.33897
1.32804
1.31221
1.36719
1.36334
1.35977
1.35521
1.35059
1.3451
1.33947
1.33192
1.32265
1.30982
1.36352
1.35979
1.35632
1.35168
1.34658
1.34032
1.33388
1.32579
1.3166
1.30527
1.36018
1.35662
1.35339
1.349
1.344
1.33759
1.33059
1.32202
1.31228
1.30098
1.00156
1.00497
1.009
1.01378
1.0197
1.02647
1.03953
1.1121
1.35027
1.43279
1.00156
1.00497
1.009
1.01378
1.0197
1.02647
1.03953
1.11206
1.35014
1.42998
1.00156
1.00497
1.009
1.01378
1.0197
1.02647
1.03953
1.11202
1.3504
1.42517
1.00156
1.00497
1.00899
1.01378
1.01969
1.02648
1.03953
1.11193
1.35087
1.41948
1.00156
1.00497
1.00899
1.01378
1.01968
1.02648
1.03952
1.1117
1.35127
1.41424
1.00156
1.00498
1.00899
1.01379
1.01968
1.02649
1.03951
1.1113
1.35142
1.41015
1.00156
1.00498
1.00899
1.01379
1.01967
1.02649
1.0395
1.11069
1.35128
1.40791
1.00156
1.00498
1.00899
1.01379
1.01966
1.0265
1.03948
1.1099
1.35054
1.40674
1.00156
1.00498
1.00899
1.0138
1.01965
1.0265
1.03946
1.10894
1.34854
1.40531
1.00156
1.00498
1.00899
1.0138
1.01964
1.02651
1.03945
1.10782
1.34538
1.40313
1.00156
1.00498
1.00898
1.0138
1.01964
1.02651
1.03943
1.10657
1.34137
1.3996
1.00156
1.00498
1.00898
1.0138
1.01963
1.02652
1.0394
1.10518
1.33682
1.39401
1.00156
1.00498
1.00898
1.01381
1.01962
1.02653
1.03939
1.10365
1.33258
1.38839
1.00156
1.00498
1.00898
1.01381
1.01962
1.02653
1.03937
1.102
1.32912
1.38357
1.00156
1.00498
1.00898
1.01381
1.01961
1.02654
1.03937
1.10023
1.32648
1.37995
1.00156
1.00498
1.00898
1.01382
1.0196
1.02655
1.03937
1.09838
1.32446
1.37701
1.00156
1.00498
1.00898
1.01382
1.0196
1.02655
1.03939
1.09644
1.32272
1.37405
1.00156
1.00498
1.00898
1.01382
1.0196
1.02656
1.03942
1.09447
1.32114
1.37108
1.00156
1.00498
1.00898
1.01382
1.01959
1.02657
1.03946
1.0924
1.3195
1.3684
1.00156
1.00498
1.00897
1.01382
1.01959
1.02658
1.03952
1.09026
1.31756
1.3664
1.00156
1.00498
1.00897
1.01382
1.01959
1.02658
1.03952
1.09026
1.31756
1.3664
1.00156
1.00498
1.00898
1.01382
1.01959
1.02657
1.03946
1.0924
1.3195
1.3684
1.00156
1.00498
1.00898
1.01382
1.0196
1.02656
1.03942
1.09447
1.32114
1.37108
1.00156
1.00498
1.00898
1.01382
1.0196
1.02655
1.03939
1.09644
1.32272
1.37405
1.00156
1.00498
1.00898
1.01382
1.0196
1.02655
1.03937
1.09838
1.32446
1.37701
1.00156
1.00498
1.00898
1.01381
1.01961
1.02654
1.03937
1.10023
1.32648
1.37995
1.00156
1.00498
1.00898
1.01381
1.01962
1.02653
1.03937
1.102
1.32912
1.38357
1.00156
1.00498
1.00898
1.01381
1.01962
1.02653
1.03939
1.10365
1.33258
1.38839
1.00156
1.00498
1.00898
1.0138
1.01963
1.02652
1.0394
1.10518
1.33682
1.39401
1.00156
1.00498
1.00898
1.0138
1.01964
1.02651
1.03943
1.10657
1.34137
1.3996
1.00156
1.00498
1.00899
1.0138
1.01964
1.02651
1.03945
1.10782
1.34538
1.40313
1.00156
1.00498
1.00899
1.0138
1.01965
1.0265
1.03946
1.10894
1.34854
1.40531
1.00156
1.00498
1.00899
1.01379
1.01966
1.0265
1.03948
1.1099
1.35054
1.40674
1.00156
1.00498
1.00899
1.01379
1.01967
1.02649
1.0395
1.11069
1.35128
1.40791
1.00156
1.00498
1.00899
1.01379
1.01968
1.02649
1.03951
1.11129
1.35142
1.41015
1.00156
1.00497
1.00899
1.01378
1.01968
1.02648
1.03952
1.1117
1.35127
1.41424
1.00156
1.00497
1.00899
1.01378
1.01969
1.02648
1.03953
1.11193
1.35087
1.41948
1.00156
1.00497
1.009
1.01378
1.0197
1.02647
1.03953
1.11202
1.3504
1.42517
1.00156
1.00497
1.009
1.01378
1.0197
1.02647
1.03953
1.11206
1.35014
1.42998
1.00156
1.00497
1.009
1.01378
1.0197
1.02647
1.03953
1.1121
1.35027
1.43279
1.36018
1.35662
1.35339
1.349
1.344
1.33759
1.33059
1.32202
1.31229
1.30098
1.36352
1.35979
1.35632
1.35168
1.34658
1.34032
1.33388
1.32579
1.31661
1.30527
1.36719
1.36334
1.35977
1.35521
1.35059
1.3451
1.33947
1.33192
1.32265
1.30982
1.37085
1.36718
1.36407
1.36021
1.35674
1.35216
1.34694
1.33897
1.32804
1.31221
1.37506
1.37252
1.37076
1.3679
1.3651
1.36062
1.3546
1.34452
1.33057
1.31225
1.38352
1.3815
1.38041
1.37774
1.37426
1.36821
1.36
1.34717
1.33093
1.31052
1.39502
1.39217
1.39016
1.38605
1.38059
1.37212
1.36185
1.34706
1.32943
1.307
1.40341
1.39914
1.39527
1.38945
1.38244
1.37247
1.36119
1.34536
1.32617
1.30205
1.40571
1.40034
1.39531
1.38875
1.38148
1.37124
1.35941
1.34271
1.32262
1.29694
1.39927
1.39639
1.39295
1.38675
1.37967
1.36949
1.35768
1.34052
1.31951
1.2919
1.39927
1.39537
1.39183
1.38575
1.37886
1.36863
1.35666
1.33916
1.31729
1.28743
1.40118
1.39661
1.39282
1.38645
1.37956
1.36924
1.35707
1.33923
1.31645
1.28394
1.40504
1.40065
1.39703
1.39023
1.38297
1.37226
1.35949
1.34101
1.31714
1.28225
1.41679
1.41044
1.40579
1.39796
1.38992
1.37855
1.36496
1.34579
1.32045
1.28246
1.43117
1.42308
1.41727
1.40824
1.39922
1.3872
1.37282
1.35312
1.32639
1.28499
1.44573
1.43625
1.42968
1.41965
1.40963
1.39712
1.38221
1.36225
1.3343
1.29104
1.46055
1.44846
1.44044
1.42986
1.41977
1.40765
1.39282
1.37286
1.34381
1.30008
1.47781
1.46217
1.45325
1.44234
1.43188
1.42
1.40533
1.38552
1.35562
1.31317
1.49327
1.47335
1.46449
1.45383
1.44267
1.42998
1.41475
1.39491
1.36455
1.32594
1.52448
1.50513
1.49235
1.47875
1.46436
1.44945
1.43281
1.41338
1.38368
1.36342
1.27137
1.21394
1.15371
1.09739
1.0459
0.99939
0.979094
0.990183
1.05548
1.06987
1.27215
1.20917
1.1456
1.08865
1.03753
0.994413
0.979378
0.999776
1.06513
1.07219
1.27173
1.20235
1.13571
1.07859
1.02787
0.990998
0.979306
1.01004
1.07337
1.07346
1.26875
1.19351
1.12468
1.06753
1.01699
0.989018
0.980054
1.02071
1.07958
1.07455
1.26328
1.18319
1.11286
1.05539
1.00686
0.986265
0.982735
1.03116
1.08409
1.07582
1.25624
1.17198
1.10044
1.04333
0.998249
0.982768
0.986721
1.04165
1.0878
1.0774
1.24815
1.16025
1.08783
1.03225
0.989374
0.979804
0.991774
1.05253
1.09117
1.079
1.23945
1.14812
1.07569
1.02067
0.981064
0.978316
0.998067
1.06209
1.09349
1.0803
1.23023
1.13572
1.06302
1.00816
0.976641
0.977576
1.00576
1.06892
1.09445
1.08138
1.22056
1.12286
1.04942
0.99735
0.974391
0.978002
1.01459
1.07313
1.09473
1.08263
1.21055
1.10872
1.03605
0.989298
0.971794
0.979807
1.02435
1.0762
1.09509
1.08417
1.2001
1.09368
1.02409
0.981151
0.969257
0.983704
1.03504
1.07984
1.09692
1.08608
1.18942
1.0779
1.01095
0.973072
0.968666
0.989868
1.04531
1.08353
1.09982
1.08871
1.17806
1.06153
0.996061
0.967463
0.969865
0.998139
1.0537
1.08597
1.10237
1.09191
1.16602
1.04418
0.984984
0.965258
0.971625
1.0082
1.06008
1.08743
1.10445
1.09524
1.15378
1.0311
0.981167
0.963379
0.974434
1.01908
1.06638
1.08977
1.1056
1.09757
1.14313
1.02591
0.982432
0.961701
0.979263
1.03018
1.07377
1.09426
1.10715
1.09846
1.13874
1.02994
0.986481
0.96403
0.986095
1.04066
1.08075
1.10134
1.11022
1.10013
1.14138
1.04863
0.99864
0.972456
0.996732
1.05042
1.08685
1.10729
1.1142
1.10324
1.17483
1.09527
1.02562
0.990959
1.01297
1.06093
1.09248
1.11161
1.11746
1.10885
1.2899
1.26478
1.23396
1.20292
1.17052
1.1332
1.09015
1.04512
0.982049
0.906563
1.29001
1.26471
1.23349
1.20182
1.16915
1.13192
1.08916
1.04413
0.981221
0.906954
1.29027
1.26471
1.23287
1.2004
1.167
1.12971
1.08741
1.04242
0.979838
0.907652
1.29073
1.2647
1.23209
1.19818
1.16383
1.12653
1.08492
1.03993
0.978059
0.908834
1.29139
1.2647
1.23118
1.19562
1.16004
1.12261
1.08174
1.03666
0.97583
0.910689
1.29206
1.26454
1.23015
1.193
1.15602
1.1183
1.078
1.03249
0.973295
0.91331
1.29259
1.2644
1.22908
1.19049
1.15212
1.1139
1.07384
1.02748
0.970782
0.916872
1.29277
1.26397
1.22787
1.18816
1.14854
1.10966
1.06927
1.02157
0.96832
0.921744
1.29259
1.26318
1.22639
1.18585
1.14523
1.10554
1.06423
1.01473
0.965363
0.928567
1.29212
1.26197
1.22452
1.18331
1.14197
1.10143
1.05861
1.0074
0.961132
0.939068
1.29137
1.26023
1.22204
1.18023
1.13833
1.09705
1.05223
0.999359
0.955317
0.951677
1.29037
1.25789
1.2187
1.17619
1.13386
1.09187
1.04498
0.991345
0.950427
0.964983
1.2891
1.25483
1.21428
1.17081
1.12809
1.08568
1.03668
0.983556
0.947142
0.980001
1.28743
1.25094
1.2087
1.16402
1.12084
1.07807
1.02756
0.97682
0.946141
0.996192
1.28519
1.24614
1.20208
1.15612
1.11234
1.06909
1.01751
0.972064
0.948074
1.01189
1.28215
1.2406
1.19492
1.14757
1.103
1.05882
1.00784
0.96842
0.955301
1.02544
1.27837
1.23475
1.18754
1.13898
1.09306
1.04745
0.998602
0.964924
0.970493
1.03685
1.27459
1.22915
1.18036
1.12997
1.08259
1.03493
0.992098
0.964558
0.990793
1.04706
1.27184
1.22402
1.17248
1.12011
1.0708
1.02158
0.98705
0.968745
1.01511
1.05635
1.27077
1.2187
1.16287
1.10826
1.05721
1.00867
0.982277
0.978909
1.03888
1.06477
1.27078
1.21871
1.16287
1.10825
1.05717
1.00867
0.982268
0.979018
1.03894
1.06478
1.27184
1.22402
1.17248
1.12011
1.0708
1.02153
0.987045
0.968801
1.0151
1.0564
1.27459
1.22915
1.18036
1.12998
1.08259
1.03492
0.992099
0.964584
0.990851
1.04727
1.27837
1.23475
1.18755
1.13898
1.09305
1.04746
0.998601
0.964931
0.970519
1.03689
1.28215
1.24061
1.19492
1.14757
1.103
1.05881
1.00784
0.968412
0.955284
1.02552
1.28519
1.24614
1.20208
1.15612
1.11234
1.0691
1.0175
0.972044
0.948026
1.01186
1.28743
1.25094
1.2087
1.16403
1.12085
1.07808
1.02756
0.97681
0.946108
0.996168
1.2891
1.25483
1.21429
1.17082
1.1281
1.08568
1.03669
0.983552
0.947129
0.979947
1.29037
1.25789
1.2187
1.17619
1.13386
1.09187
1.04498
0.991344
0.950423
0.964938
1.29137
1.26022
1.22204
1.18023
1.13833
1.09704
1.05223
0.999372
0.955324
0.951638
1.29212
1.26197
1.22452
1.18331
1.14197
1.10144
1.05861
1.00741
0.96114
0.939043
1.29259
1.26318
1.22639
1.18585
1.14523
1.10554
1.06423
1.01473
0.96537
0.928552
1.29277
1.26397
1.22787
1.18816
1.14854
1.10966
1.06927
1.02157
0.968322
0.921738
1.29259
1.2644
1.22908
1.19049
1.15212
1.1139
1.07384
1.02748
0.970783
0.916871
1.29206
1.26454
1.23015
1.193
1.15602
1.1183
1.07801
1.03249
0.973293
0.91331
1.29139
1.2647
1.23118
1.19562
1.16004
1.12261
1.08174
1.03666
0.975826
0.910689
1.29073
1.2647
1.23209
1.19818
1.16383
1.12653
1.08492
1.03993
0.978055
0.908831
1.29027
1.26471
1.23287
1.2004
1.167
1.12971
1.08741
1.04242
0.979835
0.907647
1.29001
1.26471
1.23349
1.20182
1.16915
1.13192
1.08916
1.04413
0.981219
0.906947
1.2899
1.26478
1.23396
1.20292
1.17052
1.1332
1.09015
1.04512
0.982048
0.906554
1.35692
1.35357
1.35064
1.34662
1.34201
1.33601
1.32902
1.3205
1.31057
1.29906
1.35444
1.35133
1.34854
1.34474
1.34042
1.33486
1.32842
1.32033
1.31081
1.29961
1.3526
1.34968
1.34701
1.34346
1.33945
1.33437
1.32844
1.32104
1.31205
1.30143
1.35099
1.34823
1.34568
1.34233
1.33855
1.33387
1.3284
1.32176
1.31356
1.30386
1.34937
1.34674
1.34434
1.34119
1.33762
1.33327
1.32817
1.32207
1.31463
1.30588
1.34778
1.34522
1.34294
1.33996
1.33656
1.33247
1.32765
1.32196
1.31505
1.30704
1.3463
1.34379
1.34158
1.33872
1.33546
1.33157
1.32697
1.32163
1.31511
1.30764
1.34496
1.34249
1.34033
1.33757
1.33441
1.33069
1.32628
1.32119
1.31503
1.30799
1.34372
1.3413
1.3392
1.33652
1.33347
1.3299
1.32566
1.32078
1.31494
1.30827
1.34251
1.34015
1.33814
1.33556
1.3326
1.32917
1.3251
1.32042
1.31486
1.3085
1.3413
1.33899
1.33708
1.3346
1.33175
1.32846
1.32454
1.32007
1.31474
1.30863
1.34013
1.33783
1.33599
1.33361
1.33088
1.3277
1.32392
1.31961
1.31452
1.30863
1.33902
1.33668
1.33488
1.33258
1.32994
1.32686
1.3232
1.31899
1.31406
1.3084
1.33799
1.33555
1.33373
1.33146
1.32888
1.32587
1.32228
1.31815
1.3133
1.30778
1.33703
1.33446
1.33256
1.33025
1.32767
1.32468
1.32117
1.31707
1.3123
1.30685
1.33614
1.3334
1.33135
1.32893
1.32629
1.32329
1.31981
1.31576
1.31108
1.30577
1.33541
1.3325
1.33028
1.32768
1.32491
1.32183
1.31836
1.31436
1.3098
1.30467
1.33483
1.33178
1.32939
1.32661
1.32367
1.32046
1.31695
1.31301
1.30861
1.30373
1.33442
1.33126
1.32876
1.32583
1.32275
1.31941
1.31582
1.31189
1.30764
1.30301
1.33415
1.33095
1.3284
1.32539
1.32221
1.31876
1.31509
1.31112
1.30694
1.30248
1.00156
1.00498
1.00897
1.01383
1.01958
1.02659
1.03961
1.08756
1.31442
1.36488
1.00156
1.00498
1.00897
1.01383
1.01958
1.02661
1.03973
1.08434
1.30999
1.36376
1.00156
1.00498
1.00897
1.01383
1.01957
1.02663
1.03987
1.08121
1.30515
1.36291
1.00156
1.00498
1.00897
1.01383
1.01957
1.02664
1.04003
1.07824
1.30023
1.36208
1.00156
1.00498
1.00897
1.01384
1.01957
1.02666
1.04019
1.07549
1.29549
1.36108
1.00156
1.00498
1.00897
1.01384
1.01956
1.02667
1.04036
1.07307
1.29103
1.36
1.00156
1.00498
1.00897
1.01384
1.01956
1.02668
1.04054
1.07105
1.28689
1.35894
1.00156
1.00499
1.00897
1.01384
1.01956
1.02667
1.04072
1.06965
1.28307
1.35798
1.00156
1.00499
1.00897
1.01384
1.01956
1.02666
1.04091
1.06877
1.2795
1.3571
1.00156
1.00499
1.00897
1.01384
1.01957
1.02663
1.0411
1.06816
1.27614
1.35626
1.00156
1.00499
1.00897
1.01385
1.01957
1.0266
1.04129
1.06771
1.27299
1.35543
1.00156
1.00499
1.00896
1.01385
1.01958
1.02656
1.04148
1.06735
1.27018
1.3546
1.00156
1.00499
1.00896
1.01385
1.01959
1.02653
1.04166
1.06701
1.26778
1.35378
1.00155
1.00499
1.00896
1.01384
1.0196
1.02649
1.04184
1.06668
1.26585
1.35293
1.00155
1.00499
1.00896
1.01384
1.01961
1.02646
1.04201
1.06636
1.26442
1.35202
1.00155
1.00499
1.00897
1.01384
1.01962
1.02643
1.04218
1.06606
1.26341
1.35105
1.00155
1.00499
1.00897
1.01384
1.01962
1.02641
1.04233
1.06581
1.2628
1.35017
1.00155
1.00499
1.00897
1.01383
1.01963
1.02639
1.04246
1.06561
1.26229
1.34945
1.00155
1.00499
1.00897
1.01383
1.01964
1.02637
1.04254
1.0655
1.2619
1.34892
1.00155
1.00499
1.00897
1.01383
1.01964
1.02636
1.04268
1.06535
1.26166
1.34859
1.00155
1.00499
1.00897
1.01383
1.01964
1.02636
1.04268
1.06535
1.26166
1.34859
1.00155
1.00499
1.00897
1.01383
1.01964
1.02637
1.04254
1.0655
1.2619
1.34892
1.00155
1.00499
1.00897
1.01383
1.01963
1.02639
1.04246
1.06561
1.26229
1.34945
1.00155
1.00499
1.00897
1.01384
1.01962
1.02641
1.04233
1.06581
1.2628
1.35017
1.00155
1.00499
1.00897
1.01384
1.01962
1.02643
1.04218
1.06606
1.26341
1.35105
1.00155
1.00499
1.00896
1.01384
1.01961
1.02646
1.04201
1.06636
1.26441
1.35202
1.00155
1.00499
1.00896
1.01384
1.0196
1.02649
1.04184
1.06668
1.26585
1.35293
1.00156
1.00499
1.00896
1.01385
1.01959
1.02653
1.04166
1.06701
1.26778
1.35378
1.00156
1.00499
1.00896
1.01385
1.01958
1.02656
1.04148
1.06735
1.27018
1.3546
1.00156
1.00499
1.00897
1.01385
1.01957
1.0266
1.04129
1.06771
1.27299
1.35543
1.00156
1.00499
1.00897
1.01384
1.01957
1.02663
1.0411
1.06816
1.27614
1.35626
1.00156
1.00499
1.00897
1.01384
1.01956
1.02666
1.04091
1.06877
1.2795
1.3571
1.00156
1.00499
1.00897
1.01384
1.01956
1.02667
1.04072
1.06965
1.28307
1.35798
1.00156
1.00498
1.00897
1.01384
1.01956
1.02668
1.04054
1.07105
1.28689
1.35894
1.00156
1.00498
1.00897
1.01384
1.01956
1.02667
1.04036
1.07307
1.29103
1.36
1.00156
1.00498
1.00897
1.01384
1.01957
1.02666
1.04019
1.07549
1.29549
1.36108
1.00156
1.00498
1.00897
1.01383
1.01957
1.02664
1.04003
1.07824
1.30023
1.36208
1.00156
1.00498
1.00897
1.01383
1.01957
1.02663
1.03987
1.08121
1.30515
1.36291
1.00156
1.00498
1.00897
1.01383
1.01958
1.02661
1.03973
1.08434
1.30999
1.36376
1.00156
1.00498
1.00897
1.01383
1.01958
1.02659
1.03961
1.08756
1.31442
1.36488
1.33415
1.33095
1.3284
1.32539
1.32221
1.31876
1.31509
1.31112
1.30694
1.30248
1.33442
1.33126
1.32876
1.32583
1.32275
1.31941
1.31582
1.31189
1.30764
1.30301
1.33483
1.33178
1.32939
1.32661
1.32367
1.32046
1.31695
1.31301
1.30861
1.30373
1.33541
1.3325
1.33028
1.32768
1.32491
1.32182
1.31836
1.31436
1.3098
1.30467
1.33614
1.3334
1.33135
1.32893
1.32629
1.32329
1.31981
1.31576
1.31108
1.30576
1.33703
1.33446
1.33256
1.33025
1.32767
1.32468
1.32117
1.31707
1.3123
1.30685
1.33799
1.33555
1.33373
1.33146
1.32888
1.32586
1.32228
1.31815
1.3133
1.30778
1.33902
1.33668
1.33488
1.33258
1.32994
1.32686
1.3232
1.31899
1.31406
1.3084
1.34013
1.33783
1.33599
1.33361
1.33088
1.3277
1.32392
1.31961
1.31452
1.30863
1.3413
1.33899
1.33708
1.3346
1.33175
1.32846
1.32454
1.32007
1.31474
1.30863
1.34251
1.34015
1.33814
1.33556
1.3326
1.32917
1.3251
1.32043
1.31486
1.3085
1.34372
1.3413
1.3392
1.33652
1.33347
1.3299
1.32566
1.32078
1.31494
1.30827
1.34496
1.34249
1.34033
1.33757
1.33441
1.33069
1.32628
1.3212
1.31503
1.30799
1.3463
1.34379
1.34158
1.33872
1.33546
1.33157
1.32697
1.32163
1.31511
1.30764
1.34778
1.34522
1.34294
1.33996
1.33657
1.33247
1.32765
1.32197
1.31505
1.30704
1.34937
1.34674
1.34434
1.34119
1.33762
1.33327
1.32817
1.32207
1.31463
1.30588
1.35099
1.34824
1.34568
1.34233
1.33855
1.33388
1.32841
1.32176
1.31356
1.30386
1.3526
1.34968
1.34701
1.34346
1.33945
1.33437
1.32845
1.32104
1.31205
1.30143
1.35444
1.35133
1.34854
1.34474
1.34042
1.33486
1.32842
1.32033
1.31082
1.29961
1.35692
1.35357
1.35064
1.34662
1.34201
1.33601
1.32902
1.3205
1.31057
1.29907
)
;

boundaryField
{
    inlet
    {
        type            fixedValue;
        value           uniform 1;
    }
    outlet
    {
        type            inletOutlet;
        inletValue      uniform 1;
        value           nonuniform List<scalar> 
100
(
1.06473
1.05633
1.04718
1.03679
1.02541
1.01174
0.996043
0.979822
0.964809
0.9515
0.938882
0.928375
0.921554
0.916688
0.913137
0.91053
0.908687
0.90751
0.906816
0.906427
1.10512
1.10559
1.10316
1.09943
1.09599
1.09348
1.09198
1.08982
1.08663
1.08366
1.082
1.08128
1.08053
1.07906
1.07716
1.07565
1.07452
1.07343
1.07202
1.06974
1.11472
1.12018
1.12748
1.15256
1.19324
1.23429
1.27721
1.30695
1.31644
1.32593
1.33036
1.32846
1.30748
1.27359
1.22868
1.18205
1.15787
1.13778
1.11897
1.1082
1.06979
1.0721
1.0734
1.0745
1.07576
1.07731
1.07891
1.08022
1.0813
1.08256
1.08415
1.08608
1.08865
1.09183
1.09517
1.09773
1.09862
1.10005
1.10289
1.10858
0.906435
0.906824
0.907515
0.908689
0.91053
0.913137
0.91669
0.921559
0.928389
0.938907
0.951538
0.964853
0.979876
0.996068
1.01177
1.02533
1.03676
1.04697
1.05628
1.06471
)
;
    }
    triangle
    {
        type            zeroGradient;
    }
    top
    {
        type            symmetryPlane;
    }
    bottom
    {
        type            symmetryPlane;
    }
    defaultFaces
    {
        type            empty;
    }
}


// ************************************************************************* //
