/*--------------------------------*- C++ -*----------------------------------*\
  =========                 |
  \\      /  F ield         | OpenFOAM: The Open Source CFD Toolbox
   \\    /   O peration     | Website:  https://openfoam.org
    \\  /    A nd           | Version:  8
     \\/     M anipulation  |
\*---------------------------------------------------------------------------*/
FoamFile
{
    version     2.0;
    format      ascii;
    class       volVectorField;
    location    "2";
    object      U;
}
// * * * * * * * * * * * * * * * * * * * * * * * * * * * * * * * * * * * * * //

dimensions      [0 1 -1 0 0 0 0];

internalField   nonuniform List<vector> 
2600
(
(0.666914 0.0484216 0)
(1.17628 0.132893 0)
(1.44904 0.254026 0)
(1.55045 0.313486 0)
(1.534 0.255876 0)
(1.43497 0.153537 0)
(1.41083 0.106666 0)
(1.35581 0.0666053 0)
(1.36131 0.0231704 0)
(1.36291 -0.0193148 0)
(0.225193 -0.117005 0)
(0.794871 0.0960402 0)
(1.26869 0.230557 0)
(1.48438 0.293583 0)
(1.51104 0.237142 0)
(1.42554 0.140317 0)
(1.4055 0.105095 0)
(1.35555 0.0634596 0)
(1.36243 0.0320617 0)
(1.36066 -0.0111764 0)
(0.0227264 -0.124067 0)
(0.421772 0.0357723 0)
(0.989425 0.178323 0)
(1.35718 0.256945 0)
(1.4606 0.213284 0)
(1.40337 0.122057 0)
(1.39347 0.0883351 0)
(1.3527 0.0493885 0)
(1.35579 0.0265533 0)
(1.3517 0.00233838 0)
(-0.0566711 -0.151875 0)
(0.158648 -0.00923776 0)
(0.663612 0.12607 0)
(1.14717 0.22023 0)
(1.36031 0.199427 0)
(1.3549 0.102232 0)
(1.36325 0.0673474 0)
(1.33769 0.0329573 0)
(1.33708 0.0068778 0)
(1.32043 -0.00363774 0)
(-0.106872 -0.144855 0)
(-0.0133624 -0.0491837 0)
(0.347717 0.0621643 0)
(0.855641 0.161476 0)
(1.18338 0.171137 0)
(1.24976 0.114726 0)
(1.28709 0.0856083 0)
(1.29165 0.059484 0)
(1.28122 0.0111445 0)
(1.2527 -0.0212947 0)
(-0.14838 -0.138131 0)
(-0.146567 -0.0556677 0)
(0.0555813 0.0105676 0)
(0.493462 0.0984389 0)
(0.900746 0.119872 0)
(1.04387 0.0845954 0)
(1.12307 0.0677053 0)
(1.17241 0.0628875 0)
(1.16972 0.0307767 0)
(1.13431 -0.00825374 0)
(-0.182833 -0.114229 0)
(-0.260956 -0.055575 0)
(-0.200138 -0.0124402 0)
(0.101308 0.0506195 0)
(0.513063 0.0930604 0)
(0.721616 0.0810964 0)
(0.8566 0.0635761 0)
(0.964022 0.0412624 0)
(0.999885 0.0198448 0)
(0.983605 0.00738527 0)
(-0.210012 -0.0842558 0)
(-0.357391 -0.0391136 0)
(-0.390205 -0.00358985 0)
(-0.233879 0.0328332 0)
(0.115852 0.0685403 0)
(0.361154 0.047841 0)
(0.548744 0.0509349 0)
(0.716385 0.0231573 0)
(0.8188 0.0284398 0)
(0.843737 0.0133304 0)
(-0.226996 -0.0509923 0)
(-0.421377 -0.0260095 0)
(-0.49804 0.000785836 0)
(-0.435797 0.0204301 0)
(-0.157174 0.046584 0)
(0.0989874 0.0324731 0)
(0.318946 0.024925 0)
(0.529652 0.0206034 0)
(0.690682 0.0231857 0)
(0.761193 -0.00509384 0)
(-0.238093 -0.0175734 0)
(-0.447545 -0.0098129 0)
(-0.535367 -0.00143324 0)
(-0.501262 0.00894207 0)
(-0.257041 0.01871 0)
(0.00258299 0.0100128 0)
(0.234265 0.00412727 0)
(0.460099 0.0294012 0)
(0.644057 -0.00319838 0)
(0.734583 -0.00175007 0)
(-0.238256 0.0168377 0)
(-0.448241 0.00893034 0)
(-0.535274 -0.000303148 0)
(-0.501059 -0.00518782 0)
(-0.256137 -0.0171955 0)
(0.00290822 -0.0170622 0)
(0.23459 -0.0185155 0)
(0.457185 0.00590812 0)
(0.643186 -0.0193178 0)
(0.733311 -0.00306657 0)
(-0.227196 0.050669 0)
(-0.422278 0.0270306 0)
(-0.498674 0.00293559 0)
(-0.434642 -0.0166846 0)
(-0.152592 -0.0442731 0)
(0.102605 -0.0337005 0)
(0.317741 -0.0295966 0)
(0.524656 -0.0335279 0)
(0.688556 -0.0118627 0)
(0.762 -0.00544959 0)
(-0.209896 0.0842574 0)
(-0.357908 0.039585 0)
(-0.391107 0.00465036 0)
(-0.232281 -0.0326021 0)
(0.12394 -0.0717791 0)
(0.370821 -0.0554113 0)
(0.542685 -0.0286474 0)
(0.706605 -0.0441373 0)
(0.817055 -0.00766377 0)
(0.848435 0.0059284 0)
(-0.182687 0.114288 0)
(-0.26113 0.0553194 0)
(-0.200777 0.0128772 0)
(0.102523 -0.0475006 0)
(0.522401 -0.0916556 0)
(0.732751 -0.0813812 0)
(0.84907 -0.065411 0)
(0.953895 -0.054659 0)
(0.999459 -0.0183672 0)
(0.98908 0.00831174 0)
(-0.148245 0.137931 0)
(-0.146593 0.0547797 0)
(0.0547017 -0.0104011 0)
(0.493656 -0.0982322 0)
(0.908122 -0.122941 0)
(1.0519 -0.0845257 0)
(1.11797 -0.0850644 0)
(1.16357 -0.0512667 0)
(1.16816 -0.0187917 0)
(1.13828 -0.0068784 0)
(-0.106784 0.144928 0)
(-0.0135834 0.0485032 0)
(0.347061 -0.0610111 0)
(0.855594 -0.160381 0)
(1.18854 -0.168888 0)
(1.25375 -0.121767 0)
(1.28182 -0.0757778 0)
(1.28573 -0.0361099 0)
(1.2828 -0.0315569 0)
(1.2554 -0.0089771 0)
(-0.0565117 0.151969 0)
(0.158406 0.0100235 0)
(0.662199 -0.126687 0)
(1.14695 -0.218787 0)
(1.36352 -0.201844 0)
(1.35498 -0.105996 0)
(1.361 -0.0565615 0)
(1.33902 -0.0460122 0)
(1.33746 -0.0169382 0)
(1.32295 0.0162366 0)
(0.0226336 0.123826 0)
(0.421144 -0.0354556 0)
(0.988214 -0.176 0)
(1.3574 -0.255315 0)
(1.46305 -0.218202 0)
(1.40262 -0.119938 0)
(1.39116 -0.090223 0)
(1.3543 -0.0635176 0)
(1.35703 -0.0106244 0)
(1.35267 0.0247651 0)
(0.224652 0.117345 0)
(0.79421 -0.0948402 0)
(1.26794 -0.228946 0)
(1.48457 -0.294941 0)
(1.51337 -0.238087 0)
(1.42418 -0.141267 0)
(1.40434 -0.107618 0)
(1.35807 -0.0609983 0)
(1.36167 -0.0208118 0)
(1.36083 0.0118867 0)
(0.667494 -0.0473965 0)
(1.17593 -0.133247 0)
(1.44895 -0.254327 0)
(1.55077 -0.313787 0)
(1.53543 -0.256825 0)
(1.43364 -0.155859 0)
(1.4079 -0.104679 0)
(1.35733 -0.0550891 0)
(1.36271 -0.0274804 0)
(1.36398 0.0022845 0)
(1.20833 0.0200694 0)
(1.43403 -0.161343 0)
(1.54107 -0.276749 0)
(1.58019 -0.335623 0)
(1.54474 -0.277531 0)
(1.43725 -0.169196 0)
(1.41066 -0.105113 0)
(1.35638 -0.0551343 0)
(1.36248 -0.0256675 0)
(1.36393 0.00630936 0)
(1.3519 0.118588 0)
(1.53839 -0.147042 0)
(1.58754 -0.274816 0)
(1.59576 -0.34115 0)
(1.55201 -0.294992 0)
(1.44505 -0.180957 0)
(1.41698 -0.110637 0)
(1.3552 -0.0578786 0)
(1.36289 -0.0210805 0)
(1.36476 0.0163866 0)
(1.36146 0.157717 0)
(1.55568 -0.135894 0)
(1.60101 -0.282056 0)
(1.59566 -0.344182 0)
(1.55653 -0.30939 0)
(1.46101 -0.197036 0)
(1.43006 -0.121989 0)
(1.35667 -0.0624308 0)
(1.36431 -0.021005 0)
(1.36638 0.0195974 0)
(1.32922 0.183233 0)
(1.53596 -0.102072 0)
(1.60115 -0.26879 0)
(1.58919 -0.339868 0)
(1.56235 -0.3248 0)
(1.47763 -0.218314 0)
(1.43958 -0.13451 0)
(1.35835 -0.0655361 0)
(1.36637 -0.0233286 0)
(1.36896 0.0173623 0)
(1.29737 0.193508 0)
(1.51069 -0.0837508 0)
(1.58871 -0.254797 0)
(1.58399 -0.338427 0)
(1.56458 -0.336232 0)
(1.49334 -0.242862 0)
(1.4447 -0.14403 0)
(1.36051 -0.0679025 0)
(1.36919 -0.0274695 0)
(1.37123 0.0145686 0)
(1.26877 0.196577 0)
(1.4816 -0.0541034 0)
(1.5701 -0.230054 0)
(1.57944 -0.333999 0)
(1.5661 -0.343078 0)
(1.50934 -0.266693 0)
(1.44945 -0.153617 0)
(1.36338 -0.0702298 0)
(1.37115 -0.027898 0)
(1.37307 0.015731 0)
(1.24133 0.198777 0)
(1.4568 -0.0356636 0)
(1.5504 -0.211667 0)
(1.57572 -0.321568 0)
(1.56299 -0.345525 0)
(1.52287 -0.287143 0)
(1.45713 -0.166257 0)
(1.36814 -0.0740762 0)
(1.37242 -0.0271752 0)
(1.37554 0.0194113 0)
(1.21734 0.196692 0)
(1.42853 -0.00969691 0)
(1.53045 -0.19275 0)
(1.57091 -0.311423 0)
(1.55878 -0.345316 0)
(1.53389 -0.305393 0)
(1.46868 -0.183967 0)
(1.37319 -0.0782414 0)
(1.3739 -0.0268849 0)
(1.37745 0.0231738 0)
(1.1957 0.194378 0)
(1.40156 0.0101193 0)
(1.51316 -0.174196 0)
(1.56073 -0.30344 0)
(1.55803 -0.345319 0)
(1.54148 -0.321506 0)
(1.48065 -0.204307 0)
(1.37947 -0.0844633 0)
(1.37579 -0.028267 0)
(1.37997 0.023701 0)
(1.17788 0.19142 0)
(1.37575 0.0257419 0)
(1.491 -0.146267 0)
(1.54967 -0.289399 0)
(1.55792 -0.346837 0)
(1.54662 -0.334147 0)
(1.49392 -0.227261 0)
(1.38816 -0.0936233 0)
(1.3785 -0.0313531 0)
(1.3828 0.022667 0)
(1.16328 0.188749 0)
(1.35287 0.0378782 0)
(1.47337 -0.130249 0)
(1.53658 -0.266181 0)
(1.55732 -0.345603 0)
(1.54949 -0.341186 0)
(1.50702 -0.248346 0)
(1.39968 -0.103647 0)
(1.38319 -0.034437 0)
(1.38614 0.0231476 0)
(1.15151 0.18533 0)
(1.33288 0.0475001 0)
(1.45418 -0.111525 0)
(1.52223 -0.246164 0)
(1.55652 -0.336747 0)
(1.55051 -0.34328 0)
(1.52031 -0.268448 0)
(1.41844 -0.116919 0)
(1.38975 -0.035901 0)
(1.39071 0.0252791 0)
(1.14178 0.181461 0)
(1.31377 0.0567261 0)
(1.43818 -0.0963642 0)
(1.51028 -0.231661 0)
(1.5515 -0.326103 0)
(1.55259 -0.344615 0)
(1.53153 -0.285345 0)
(1.43648 -0.128158 0)
(1.39782 -0.0370195 0)
(1.39569 0.0278402 0)
(1.13335 0.177431 0)
(1.29843 0.0623962 0)
(1.42015 -0.0782385 0)
(1.49904 -0.213682 0)
(1.54596 -0.318321 0)
(1.55427 -0.346365 0)
(1.54177 -0.30077 0)
(1.46074 -0.146169 0)
(1.40715 -0.0396488 0)
(1.40035 0.0284961 0)
(1.12707 0.174305 0)
(1.28398 0.0690027 0)
(1.40608 -0.0660922 0)
(1.48684 -0.193809 0)
(1.54082 -0.306863 0)
(1.55605 -0.346881 0)
(1.55084 -0.312932 0)
(1.48025 -0.164507 0)
(1.41477 -0.0434164 0)
(1.40366 0.0284105 0)
(1.12067 0.170544 0)
(1.27217 0.0737228 0)
(1.39214 -0.0532284 0)
(1.47511 -0.177232 0)
(1.53303 -0.286525 0)
(1.558 -0.345156 0)
(1.55882 -0.32203 0)
(1.49916 -0.187023 0)
(1.42093 -0.048904 0)
(1.40641 0.029826 0)
(1.1129 0.166071 0)
(1.26007 0.0784678 0)
(1.37991 -0.0423881 0)
(1.46532 -0.164018 0)
(1.52521 -0.269727 0)
(1.55906 -0.342535 0)
(1.56509 -0.328882 0)
(1.51298 -0.206644 0)
(1.42715 -0.0538309 0)
(1.4093 0.0311255 0)
(1.10478 0.161404 0)
(1.24867 0.0810346 0)
(1.36696 -0.0318756 0)
(1.45492 -0.149487 0)
(1.51654 -0.253736 0)
(1.55953 -0.335193 0)
(1.56692 -0.330692 0)
(1.52509 -0.226898 0)
(1.43698 -0.059788 0)
(1.41317 0.0319364 0)
(1.0958 0.155859 0)
(1.23604 0.083205 0)
(1.35475 -0.0237696 0)
(1.44383 -0.13548 0)
(1.50877 -0.239843 0)
(1.55679 -0.324922 0)
(1.56715 -0.333724 0)
(1.53607 -0.245362 0)
(1.45389 -0.0691535 0)
(1.41768 0.0307848 0)
(1.08779 0.150655 0)
(1.2237 0.0838786 0)
(1.34171 -0.0160284 0)
(1.4324 -0.123196 0)
(1.49831 -0.222162 0)
(1.55153 -0.313994 0)
(1.5668 -0.335837 0)
(1.54598 -0.262814 0)
(1.47398 -0.081635 0)
(1.42057 0.0310065 0)
(0.375665 0.129833 0)
(0.444983 0.161763 0)
(0.484962 0.213662 0)
(0.529544 0.252259 0)
(0.569524 0.28567 0)
(0.610219 0.313732 0)
(0.654281 0.341438 0)
(0.709057 0.368937 0)
(0.78395 0.406598 0)
(0.919749 0.443886 0)
(0.404816 0.154976 0)
(0.456942 0.175166 0)
(0.485395 0.215781 0)
(0.52661 0.250195 0)
(0.565437 0.283163 0)
(0.607245 0.311325 0)
(0.652434 0.339039 0)
(0.708585 0.366791 0)
(0.785133 0.402738 0)
(0.917811 0.430366 0)
(0.456336 0.148084 0)
(0.495619 0.161403 0)
(0.513259 0.193143 0)
(0.546091 0.224456 0)
(0.578334 0.258412 0)
(0.618289 0.288311 0)
(0.664272 0.318575 0)
(0.723124 0.347366 0)
(0.804559 0.38338 0)
(0.94268 0.398424 0)
(0.506826 0.155719 0)
(0.539569 0.173685 0)
(0.551065 0.202914 0)
(0.57971 0.226548 0)
(0.606387 0.254024 0)
(0.642406 0.278981 0)
(0.684538 0.306423 0)
(0.740246 0.331789 0)
(0.819854 0.36305 0)
(0.953007 0.368812 0)
(0.551352 0.153886 0)
(0.578822 0.171292 0)
(0.588142 0.19899 0)
(0.614673 0.221455 0)
(0.637487 0.248464 0)
(0.671295 0.27196 0)
(0.711152 0.298105 0)
(0.765881 0.320617 0)
(0.845142 0.348757 0)
(0.973146 0.346821 0)
(0.589494 0.155466 0)
(0.611639 0.172078 0)
(0.619171 0.197575 0)
(0.643707 0.217822 0)
(0.664388 0.242973 0)
(0.697175 0.264029 0)
(0.735492 0.288529 0)
(0.788913 0.307864 0)
(0.865404 0.331886 0)
(0.985639 0.327205 0)
(0.621561 0.157145 0)
(0.639382 0.171851 0)
(0.645972 0.194082 0)
(0.668522 0.211933 0)
(0.687465 0.23533 0)
(0.719228 0.2545 0)
(0.756034 0.277528 0)
(0.807878 0.294216 0)
(0.880325 0.314243 0)
(0.991558 0.308768 0)
(0.650134 0.157802 0)
(0.664985 0.170414 0)
(0.670981 0.189948 0)
(0.691411 0.206229 0)
(0.708776 0.227693 0)
(0.738985 0.244554 0)
(0.773833 0.265633 0)
(0.823826 0.280215 0)
(0.891984 0.296937 0)
(0.994233 0.291661 0)
(0.67841 0.159901 0)
(0.690464 0.171436 0)
(0.695991 0.188526 0)
(0.714411 0.202718 0)
(0.730825 0.222075 0)
(0.759602 0.23683 0)
(0.792456 0.255806 0)
(0.839513 0.267827 0)
(0.902033 0.281197 0)
(0.994639 0.275711 0)
(0.703014 0.162634 0)
(0.713473 0.172536 0)
(0.719435 0.187141 0)
(0.73652 0.199196 0)
(0.752068 0.21611 0)
(0.779005 0.228789 0)
(0.809787 0.245892 0)
(0.85456 0.256835 0)
(0.912898 0.267461 0)
(0.996858 0.261969 0)
(0.724245 0.16527 0)
(0.735726 0.171985 0)
(0.742714 0.184224 0)
(0.758893 0.195559 0)
(0.773947 0.211435 0)
(0.799353 0.222808 0)
(0.828291 0.23798 0)
(0.870004 0.247001 0)
(0.923098 0.254786 0)
(0.998317 0.249626 0)
(0.747261 0.163983 0)
(0.759782 0.171192 0)
(0.766724 0.183238 0)
(0.781497 0.193206 0)
(0.79536 0.20666 0)
(0.818278 0.215946 0)
(0.844573 0.228981 0)
(0.883441 0.237147 0)
(0.933126 0.243781 0)
(1.00161 0.239142 0)
(0.765933 0.159359 0)
(0.778969 0.166683 0)
(0.786117 0.178069 0)
(0.800739 0.188453 0)
(0.815016 0.202157 0)
(0.837404 0.2118 0)
(0.862614 0.223552 0)
(0.897991 0.229288 0)
(0.941663 0.233056 0)
(1.00284 0.229089 0)
(0.779111 0.154831 0)
(0.791199 0.16162 0)
(0.798234 0.17171 0)
(0.812783 0.180532 0)
(0.828008 0.193192 0)
(0.851285 0.202818 0)
(0.876761 0.215253 0)
(0.911506 0.22268 0)
(0.952794 0.226307 0)
(1.00688 0.22124 0)
(0.787715 0.150089 0)
(0.798885 0.155983 0)
(0.806612 0.165451 0)
(0.821443 0.173385 0)
(0.836018 0.184229 0)
(0.857555 0.192703 0)
(0.882758 0.20399 0)
(0.917689 0.21167 0)
(0.958896 0.217125 0)
(1.01003 0.213929 0)
(0.795134 0.144062 0)
(0.805372 0.148282 0)
(0.81304 0.156536 0)
(0.827565 0.164725 0)
(0.84222 0.175717 0)
(0.863186 0.184246 0)
(0.886626 0.19403 0)
(0.918168 0.201155 0)
(0.957026 0.206505 0)
(1.00792 0.205097 0)
(0.804758 0.139298 0)
(0.814847 0.143371 0)
(0.822008 0.150646 0)
(0.834647 0.157235 0)
(0.848153 0.166594 0)
(0.868184 0.174975 0)
(0.890772 0.18466 0)
(0.921078 0.19165 0)
(0.95713 0.195838 0)
(1.00358 0.195063 0)
(0.814277 0.133803 0)
(0.824386 0.138018 0)
(0.831347 0.145119 0)
(0.842824 0.151208 0)
(0.854734 0.159094 0)
(0.872416 0.165986 0)
(0.893174 0.174794 0)
(0.921971 0.181561 0)
(0.956667 0.185993 0)
(1.00006 0.185972 0)
(0.823197 0.127904 0)
(0.832873 0.132198 0)
(0.83967 0.13918 0)
(0.850761 0.145291 0)
(0.8621 0.152782 0)
(0.877942 0.158804 0)
(0.897061 0.166148 0)
(0.923399 0.172143 0)
(0.955937 0.176411 0)
(0.996552 0.177342 0)
(0.831487 0.122222 0)
(0.840384 0.126483 0)
(0.846746 0.133116 0)
(0.857232 0.138977 0)
(0.868256 0.146167 0)
(0.883256 0.152168 0)
(0.901167 0.158159 0)
(0.925449 0.163619 0)
(0.955114 0.167541 0)
(0.993671 0.16931 0)
(1.72664 -4.69426e-07 0)
(1.71224 1.558e-06 0)
(1.69585 -4.64476e-06 0)
(1.67698 1.0289e-05 0)
(1.65469 -2.34327e-05 0)
(1.62998 4.63645e-05 0)
(1.58905 -0.000150856 0)
(1.42996 0.000599919 0)
(0.824603 0.00431574 0)
(0.471019 0.0136075 0)
(1.72664 -1.342e-06 0)
(1.71224 4.41969e-06 0)
(1.69585 -1.29844e-05 0)
(1.67698 2.89835e-05 0)
(1.6547 -6.50096e-05 0)
(1.62999 0.000136544 0)
(1.58909 -0.000455971 0)
(1.42949 0.00182458 0)
(0.828233 0.012622 0)
(0.493434 0.0393827 0)
(1.72664 -2.216e-06 0)
(1.71224 7.30528e-06 0)
(1.69585 -2.13564e-05 0)
(1.67698 4.76199e-05 0)
(1.65471 -0.000106036 0)
(1.63 0.000224093 0)
(1.58913 -0.00076465 0)
(1.42943 0.00323883 0)
(0.833314 0.0196 0)
(0.525144 0.058062 0)
(1.72664 -3.08221e-06 0)
(1.71224 1.01636e-05 0)
(1.69585 -2.95275e-05 0)
(1.67698 6.57276e-05 0)
(1.65473 -0.000145083 0)
(1.63001 0.000308658 0)
(1.58921 -0.00107515 0)
(1.42958 0.00474037 0)
(0.837806 0.0263572 0)
(0.555636 0.0757768 0)
(1.72664 -3.93219e-06 0)
(1.71224 1.29773e-05 0)
(1.69586 -3.74099e-05 0)
(1.67697 8.30808e-05 0)
(1.65476 -0.000181444 0)
(1.63003 0.00038861 0)
(1.58931 -0.00138615 0)
(1.43013 0.00637308 0)
(0.843225 0.0324079 0)
(0.585628 0.0876163 0)
(1.72664 -4.76054e-06 0)
(1.71224 1.5727e-05 0)
(1.69586 -4.49273e-05 0)
(1.67697 9.95164e-05 0)
(1.65479 -0.000214693 0)
(1.63005 0.000463433 0)
(1.58944 -0.00169352 0)
(1.4312 0.00807121 0)
(0.849273 0.0378298 0)
(0.613552 0.098095 0)
(1.72664 -5.56135e-06 0)
(1.71224 1.83937e-05 0)
(1.69587 -5.20106e-05 0)
(1.67697 0.000114899 0)
(1.65482 -0.000244556 0)
(1.63008 0.000532696 0)
(1.5896 -0.00199675 0)
(1.43273 0.00976721 0)
(0.855703 0.0424162 0)
(0.640505 0.10561 0)
(1.72664 -6.32868e-06 0)
(1.71224 2.09577e-05 0)
(1.69587 -5.86051e-05 0)
(1.67697 0.000129139 0)
(1.65485 -0.000270958 0)
(1.6301 0.000596318 0)
(1.58978 -0.00229381 0)
(1.43457 0.0114388 0)
(0.861772 0.0464064 0)
(0.665551 0.112355 0)
(1.72664 -7.05676e-06 0)
(1.71224 2.33996e-05 0)
(1.69588 -6.46689e-05 0)
(1.67696 0.000142182 0)
(1.65488 -0.000293947 0)
(1.63012 0.000654367 0)
(1.58997 -0.00258239 0)
(1.43677 0.0130955 0)
(0.867722 0.0496202 0)
(0.687973 0.117612 0)
(1.72664 -7.74017e-06 0)
(1.71224 2.57014e-05 0)
(1.69589 -7.01739e-05 0)
(1.67696 0.00015401 0)
(1.65491 -0.000313661 0)
(1.63015 0.000707004 0)
(1.59018 -0.00285917 0)
(1.43934 0.0147294 0)
(0.873276 0.0520601 0)
(0.708331 0.120991 0)
(1.72664 -8.37413e-06 0)
(1.71224 2.78474e-05 0)
(1.69589 -7.51058e-05 0)
(1.67696 0.000164631 0)
(1.65494 -0.000330291 0)
(1.63017 0.000754455 0)
(1.59038 -0.00311977 0)
(1.44225 0.0163298 0)
(0.878426 0.0539968 0)
(0.725897 0.123471 0)
(1.72664 -8.95469e-06 0)
(1.71224 2.98246e-05 0)
(1.6959 -7.94636e-05 0)
(1.67695 0.000174077 0)
(1.65496 -0.000344058 0)
(1.63019 0.000796986 0)
(1.59057 -0.00335996 0)
(1.44558 0.0178792 0)
(0.88371 0.0556826 0)
(0.739288 0.124907 0)
(1.72664 -9.47895e-06 0)
(1.71223 3.16233e-05 0)
(1.6959 -8.32581e-05 0)
(1.67695 0.000182399 0)
(1.65498 -0.000355205 0)
(1.63021 0.0008349 0)
(1.59073 -0.00357672 0)
(1.4495 0.0193111 0)
(0.889736 0.0571343 0)
(0.74997 0.124303 0)
(1.72664 -9.94515e-06 0)
(1.71223 3.32375e-05 0)
(1.69591 -8.65085e-05 0)
(1.67695 0.000189657 0)
(1.655 -0.000363962 0)
(1.63022 0.000868333 0)
(1.59083 -0.00376837 0)
(1.45394 0.0205181 0)
(0.896281 0.0582801 0)
(0.759718 0.122892 0)
(1.72665 -1.03527e-05 0)
(1.71223 3.46646e-05 0)
(1.69591 -8.92418e-05 0)
(1.67694 0.000195914 0)
(1.65502 -0.000370566 0)
(1.63024 0.000897691 0)
(1.59085 -0.00393015 0)
(1.45879 0.0214465 0)
(0.903063 0.059289 0)
(0.769774 0.121576 0)
(1.72665 -1.0702e-05 0)
(1.71223 3.59056e-05 0)
(1.69591 -9.14899e-05 0)
(1.67694 0.00020123 0)
(1.65504 -0.000375134 0)
(1.63025 0.000922791 0)
(1.59081 -0.00404956 0)
(1.46398 0.0220719 0)
(0.910101 0.0602863 0)
(0.779748 0.120327 0)
(1.72665 -1.09945e-05 0)
(1.71223 3.69647e-05 0)
(1.69592 -9.32876e-05 0)
(1.67693 0.000205668 0)
(1.65505 -0.000377754 0)
(1.63026 0.00094358 0)
(1.59068 -0.00414426 0)
(1.46953 0.0222888 0)
(0.917551 0.0610038 0)
(0.788806 0.119114 0)
(1.72665 -1.12319e-05 0)
(1.71223 3.78472e-05 0)
(1.69592 -9.46709e-05 0)
(1.67693 0.000209286 0)
(1.65506 -0.000378619 0)
(1.63027 0.000959698 0)
(1.59046 -0.00418659 0)
(1.47535 0.022013 0)
(0.925157 0.0616562 0)
(0.796947 0.117245 0)
(1.72665 -1.14172e-05 0)
(1.71223 3.85603e-05 0)
(1.69592 -9.56774e-05 0)
(1.67693 0.000212116 0)
(1.65507 -0.000377938 0)
(1.63027 0.000971476 0)
(1.59015 -0.00419412 0)
(1.48127 0.0212605 0)
(0.932585 0.0621308 0)
(0.804741 0.115369 0)
(1.72665 -1.1554e-05 0)
(1.71223 3.91101e-05 0)
(1.69592 -9.63395e-05 0)
(1.67692 0.000214228 0)
(1.65508 -0.000375942 0)
(1.63027 0.000977632 0)
(1.58979 -0.00416372 0)
(1.48691 0.0201316 0)
(0.939546 0.0623917 0)
(0.81219 0.113012 0)
(1.72665 1.1554e-05 0)
(1.71223 -3.91101e-05 0)
(1.69592 9.63395e-05 0)
(1.67692 -0.000214228 0)
(1.65508 0.000375941 0)
(1.63027 -0.000977631 0)
(1.58979 0.0041637 0)
(1.48691 -0.0201314 0)
(0.939547 -0.0623917 0)
(0.812189 -0.113013 0)
(1.72665 1.14172e-05 0)
(1.71223 -3.85603e-05 0)
(1.69592 9.56774e-05 0)
(1.67693 -0.000212115 0)
(1.65507 0.000377938 0)
(1.63027 -0.000971475 0)
(1.59015 0.00419411 0)
(1.48127 -0.0212603 0)
(0.932585 -0.0621309 0)
(0.80474 -0.11537 0)
(1.72665 1.12319e-05 0)
(1.71223 -3.78471e-05 0)
(1.69592 9.46709e-05 0)
(1.67693 -0.000209286 0)
(1.65506 0.000378619 0)
(1.63027 -0.000959697 0)
(1.59046 0.00418657 0)
(1.47535 -0.0220128 0)
(0.925157 -0.0616564 0)
(0.796947 -0.117246 0)
(1.72665 1.09945e-05 0)
(1.71223 -3.69647e-05 0)
(1.69592 9.32876e-05 0)
(1.67693 -0.000205668 0)
(1.65505 0.000377753 0)
(1.63026 -0.000943579 0)
(1.59068 0.00414425 0)
(1.46953 -0.0222887 0)
(0.917552 -0.0610039 0)
(0.788806 -0.119114 0)
(1.72665 1.0702e-05 0)
(1.71223 -3.59056e-05 0)
(1.69591 9.14898e-05 0)
(1.67694 -0.00020123 0)
(1.65504 0.000375134 0)
(1.63025 -0.00092279 0)
(1.59081 0.00404954 0)
(1.46398 -0.0220719 0)
(0.910101 -0.0602864 0)
(0.779747 -0.120327 0)
(1.72665 1.03527e-05 0)
(1.71223 -3.46646e-05 0)
(1.69591 8.92418e-05 0)
(1.67694 -0.000195914 0)
(1.65502 0.000370565 0)
(1.63024 -0.00089769 0)
(1.59085 0.00393014 0)
(1.45879 -0.0214465 0)
(0.903064 -0.059289 0)
(0.769774 -0.121576 0)
(1.72664 9.94515e-06 0)
(1.71223 -3.32375e-05 0)
(1.69591 8.65085e-05 0)
(1.67695 -0.000189657 0)
(1.655 0.000363962 0)
(1.63022 -0.000868332 0)
(1.59083 0.00376836 0)
(1.45394 -0.0205181 0)
(0.896281 -0.0582802 0)
(0.759718 -0.122892 0)
(1.72664 9.47895e-06 0)
(1.71223 -3.16233e-05 0)
(1.6959 8.3258e-05 0)
(1.67695 -0.000182399 0)
(1.65498 0.000355205 0)
(1.63021 -0.000834899 0)
(1.59073 0.00357671 0)
(1.4495 -0.0193111 0)
(0.889736 -0.0571344 0)
(0.74997 -0.124303 0)
(1.72664 8.95469e-06 0)
(1.71224 -2.98246e-05 0)
(1.6959 7.94636e-05 0)
(1.67695 -0.000174076 0)
(1.65496 0.000344057 0)
(1.63019 -0.000796986 0)
(1.59057 0.00335996 0)
(1.44558 -0.0178792 0)
(0.88371 -0.0556829 0)
(0.739288 -0.124907 0)
(1.72664 8.37413e-06 0)
(1.71224 -2.78474e-05 0)
(1.69589 7.51057e-05 0)
(1.67696 -0.00016463 0)
(1.65494 0.000330291 0)
(1.63017 -0.000754455 0)
(1.59038 0.00311977 0)
(1.44225 -0.0163298 0)
(0.878426 -0.0539971 0)
(0.725896 -0.123471 0)
(1.72664 7.74017e-06 0)
(1.71224 -2.57014e-05 0)
(1.69589 7.01738e-05 0)
(1.67696 -0.00015401 0)
(1.65491 0.000313661 0)
(1.63015 -0.000707004 0)
(1.59018 0.00285917 0)
(1.43934 -0.0147294 0)
(0.873276 -0.0520604 0)
(0.708331 -0.120991 0)
(1.72664 7.05675e-06 0)
(1.71224 -2.33995e-05 0)
(1.69588 6.46688e-05 0)
(1.67696 -0.000142182 0)
(1.65488 0.000293947 0)
(1.63012 -0.000654367 0)
(1.58997 0.0025824 0)
(1.43677 -0.0130956 0)
(0.867722 -0.0496204 0)
(0.687972 -0.117612 0)
(1.72664 6.32868e-06 0)
(1.71224 -2.09576e-05 0)
(1.69587 5.8605e-05 0)
(1.67697 -0.000129139 0)
(1.65485 0.000270957 0)
(1.6301 -0.000596318 0)
(1.58978 0.00229382 0)
(1.43457 -0.0114388 0)
(0.861772 -0.0464066 0)
(0.66555 -0.112355 0)
(1.72664 5.56134e-06 0)
(1.71224 -1.83937e-05 0)
(1.69587 5.20105e-05 0)
(1.67697 -0.000114899 0)
(1.65482 0.000244556 0)
(1.63008 -0.000532697 0)
(1.5896 0.00199676 0)
(1.43273 -0.00976732 0)
(0.855703 -0.0424164 0)
(0.640505 -0.105609 0)
(1.72664 4.76053e-06 0)
(1.71224 -1.5727e-05 0)
(1.69586 4.49271e-05 0)
(1.67697 -9.95162e-05 0)
(1.65479 0.000214692 0)
(1.63005 -0.000463435 0)
(1.58944 0.00169354 0)
(1.4312 -0.00807135 0)
(0.849273 -0.03783 0)
(0.613551 -0.0980948 0)
(1.72664 3.93219e-06 0)
(1.71224 -1.29772e-05 0)
(1.69586 3.74097e-05 0)
(1.67697 -8.30805e-05 0)
(1.65476 0.000181444 0)
(1.63003 -0.000388612 0)
(1.58931 0.00138617 0)
(1.43013 -0.00637325 0)
(0.843225 -0.0324082 0)
(0.585627 -0.087616 0)
(1.72664 3.0822e-06 0)
(1.71224 -1.01636e-05 0)
(1.69585 2.95274e-05 0)
(1.67698 -6.57274e-05 0)
(1.65473 0.000145083 0)
(1.63001 -0.000308661 0)
(1.58921 0.00107517 0)
(1.42958 -0.00474057 0)
(0.837806 -0.0263575 0)
(0.555636 -0.0757766 0)
(1.72664 2.216e-06 0)
(1.71224 -7.30524e-06 0)
(1.69585 2.13563e-05 0)
(1.67698 -4.76197e-05 0)
(1.65471 0.000106037 0)
(1.63 -0.000224096 0)
(1.58913 0.000764677 0)
(1.42943 -0.00323906 0)
(0.833314 -0.0196004 0)
(0.525144 -0.0580618 0)
(1.72664 1.34199e-06 0)
(1.71224 -4.41964e-06 0)
(1.69585 1.29843e-05 0)
(1.67698 -2.89833e-05 0)
(1.6547 6.50099e-05 0)
(1.62999 -0.000136547 0)
(1.58909 0.000456001 0)
(1.42949 -0.00182482 0)
(0.828233 -0.0126224 0)
(0.493433 -0.0393825 0)
(1.72664 4.69416e-07 0)
(1.71224 -1.55796e-06 0)
(1.69585 4.64462e-06 0)
(1.67698 -1.02888e-05 0)
(1.65469 2.34331e-05 0)
(1.62998 -4.63678e-05 0)
(1.58905 0.000150888 0)
(1.42996 -0.000600168 0)
(0.824603 -0.00431619 0)
(0.471019 -0.0136073 0)
(0.831485 -0.122222 0)
(0.840382 -0.126484 0)
(0.846745 -0.133116 0)
(0.857231 -0.138977 0)
(0.868256 -0.146167 0)
(0.883255 -0.152168 0)
(0.901167 -0.15816 0)
(0.925449 -0.163619 0)
(0.955112 -0.167542 0)
(0.993671 -0.16931 0)
(0.823196 -0.127904 0)
(0.832872 -0.132198 0)
(0.839669 -0.13918 0)
(0.85076 -0.145291 0)
(0.862099 -0.152782 0)
(0.877941 -0.158804 0)
(0.897061 -0.166148 0)
(0.923398 -0.172144 0)
(0.955936 -0.17641 0)
(0.996549 -0.177339 0)
(0.814276 -0.133803 0)
(0.824385 -0.138018 0)
(0.831346 -0.145119 0)
(0.842823 -0.151208 0)
(0.854733 -0.159093 0)
(0.872416 -0.165986 0)
(0.893173 -0.174794 0)
(0.92197 -0.181563 0)
(0.956666 -0.185991 0)
(1.00007 -0.185969 0)
(0.804757 -0.139298 0)
(0.814846 -0.143371 0)
(0.822008 -0.150646 0)
(0.834647 -0.157235 0)
(0.848153 -0.166594 0)
(0.868185 -0.174975 0)
(0.890772 -0.18466 0)
(0.921077 -0.191652 0)
(0.957131 -0.195835 0)
(1.00358 -0.19506 0)
(0.795133 -0.144063 0)
(0.805372 -0.148282 0)
(0.813041 -0.156537 0)
(0.827566 -0.164726 0)
(0.842221 -0.175718 0)
(0.863187 -0.184246 0)
(0.886625 -0.194029 0)
(0.918167 -0.201155 0)
(0.957027 -0.206503 0)
(1.00791 -0.205095 0)
(0.787715 -0.150089 0)
(0.798886 -0.155984 0)
(0.806613 -0.165451 0)
(0.821443 -0.173386 0)
(0.836019 -0.184229 0)
(0.857554 -0.192704 0)
(0.882758 -0.20399 0)
(0.917689 -0.211668 0)
(0.958896 -0.217126 0)
(1.01003 -0.213925 0)
(0.779111 -0.154832 0)
(0.7912 -0.161621 0)
(0.798235 -0.171711 0)
(0.812784 -0.180533 0)
(0.828009 -0.193193 0)
(0.851285 -0.202818 0)
(0.876761 -0.215253 0)
(0.911506 -0.222675 0)
(0.952792 -0.226308 0)
(1.00689 -0.221235 0)
(0.765932 -0.159359 0)
(0.778969 -0.166683 0)
(0.786117 -0.17807 0)
(0.800738 -0.188454 0)
(0.815015 -0.202157 0)
(0.837403 -0.211799 0)
(0.862614 -0.22355 0)
(0.89799 -0.229283 0)
(0.941662 -0.233055 0)
(1.00285 -0.229083 0)
(0.747261 -0.163983 0)
(0.759782 -0.171192 0)
(0.766722 -0.183238 0)
(0.781495 -0.193205 0)
(0.795358 -0.206659 0)
(0.818277 -0.215944 0)
(0.844574 -0.22898 0)
(0.883442 -0.237144 0)
(0.93313 -0.243777 0)
(1.00162 -0.239133 0)
(0.724245 -0.165269 0)
(0.735725 -0.171985 0)
(0.742714 -0.184224 0)
(0.758893 -0.195559 0)
(0.773947 -0.211435 0)
(0.799353 -0.222808 0)
(0.828291 -0.237979 0)
(0.870005 -0.247 0)
(0.923106 -0.254777 0)
(0.998326 -0.249617 0)
(0.703014 -0.162634 0)
(0.713472 -0.172535 0)
(0.719435 -0.187141 0)
(0.73652 -0.199195 0)
(0.752068 -0.216109 0)
(0.779005 -0.228789 0)
(0.809788 -0.245891 0)
(0.854564 -0.256834 0)
(0.912909 -0.267452 0)
(0.996862 -0.261967 0)
(0.67841 -0.159901 0)
(0.690464 -0.171436 0)
(0.69599 -0.188526 0)
(0.714411 -0.202718 0)
(0.730825 -0.222075 0)
(0.759602 -0.23683 0)
(0.792458 -0.255805 0)
(0.839518 -0.267826 0)
(0.902043 -0.281191 0)
(0.994636 -0.275713 0)
(0.650134 -0.157802 0)
(0.664984 -0.170414 0)
(0.67098 -0.189949 0)
(0.691411 -0.206229 0)
(0.708776 -0.227693 0)
(0.738986 -0.244554 0)
(0.773836 -0.265632 0)
(0.823833 -0.280215 0)
(0.891992 -0.296934 0)
(0.994229 -0.291663 0)
(0.62156 -0.157145 0)
(0.639382 -0.171852 0)
(0.645972 -0.194082 0)
(0.668522 -0.211934 0)
(0.687465 -0.23533 0)
(0.719228 -0.2545 0)
(0.756037 -0.277527 0)
(0.807884 -0.294216 0)
(0.880333 -0.314242 0)
(0.99157 -0.308759 0)
(0.589494 -0.155466 0)
(0.611638 -0.172078 0)
(0.61917 -0.197576 0)
(0.643707 -0.217823 0)
(0.664388 -0.242973 0)
(0.697175 -0.264029 0)
(0.735495 -0.288529 0)
(0.788918 -0.307865 0)
(0.865414 -0.331888 0)
(0.985665 -0.327193 0)
(0.551352 -0.153886 0)
(0.578822 -0.171292 0)
(0.588141 -0.19899 0)
(0.614672 -0.221455 0)
(0.637487 -0.248464 0)
(0.671296 -0.27196 0)
(0.711155 -0.298105 0)
(0.765885 -0.320618 0)
(0.845157 -0.348762 0)
(0.973176 -0.346792 0)
(0.506825 -0.155719 0)
(0.539568 -0.173685 0)
(0.551065 -0.202914 0)
(0.57971 -0.226549 0)
(0.606387 -0.254024 0)
(0.642406 -0.278981 0)
(0.684539 -0.306423 0)
(0.740249 -0.33179 0)
(0.819869 -0.363054 0)
(0.95304 -0.368809 0)
(0.456335 -0.148084 0)
(0.495618 -0.161403 0)
(0.513258 -0.193143 0)
(0.54609 -0.224456 0)
(0.578334 -0.258412 0)
(0.618289 -0.288311 0)
(0.664273 -0.318575 0)
(0.723126 -0.347368 0)
(0.804566 -0.383383 0)
(0.942698 -0.398436 0)
(0.404815 -0.154976 0)
(0.456941 -0.175165 0)
(0.485394 -0.215781 0)
(0.52661 -0.250195 0)
(0.565437 -0.283163 0)
(0.607245 -0.311325 0)
(0.652435 -0.33904 0)
(0.708588 -0.366793 0)
(0.785139 -0.40274 0)
(0.917814 -0.430384 0)
(0.375665 -0.129833 0)
(0.444982 -0.161763 0)
(0.484961 -0.213662 0)
(0.529543 -0.252259 0)
(0.569524 -0.28567 0)
(0.610219 -0.313732 0)
(0.654282 -0.341438 0)
(0.70906 -0.368938 0)
(0.783954 -0.406598 0)
(0.919748 -0.443919 0)
(1.0878 -0.150651 0)
(1.22371 -0.0838274 0)
(1.34169 0.0160579 0)
(1.43239 0.123184 0)
(1.49822 0.22207 0)
(1.55165 0.313982 0)
(1.56685 0.335918 0)
(1.54606 0.263174 0)
(1.47457 0.0822177 0)
(1.42072 -0.0310705 0)
(1.09581 -0.155863 0)
(1.23604 -0.0831961 0)
(1.35476 0.0238375 0)
(1.4438 0.135469 0)
(1.50869 0.239766 0)
(1.55684 0.324859 0)
(1.56719 0.333828 0)
(1.53623 0.245838 0)
(1.45427 0.0691314 0)
(1.41768 -0.0309879 0)
(1.10477 -0.161412 0)
(1.24871 -0.0810265 0)
(1.36693 0.0318846 0)
(1.45491 0.149538 0)
(1.51644 0.253537 0)
(1.55954 0.335176 0)
(1.56701 0.330829 0)
(1.52523 0.22659 0)
(1.43624 0.0582267 0)
(1.41312 -0.0319077 0)
(1.1129 -0.16608 0)
(1.26008 -0.0785073 0)
(1.37993 0.0424233 0)
(1.46525 0.163963 0)
(1.52518 0.269636 0)
(1.55906 0.342584 0)
(1.56525 0.329182 0)
(1.51319 0.206283 0)
(1.42677 0.0525269 0)
(1.40937 -0.0311454 0)
(1.12067 -0.170545 0)
(1.2722 -0.0737399 0)
(1.39211 0.0531688 0)
(1.47509 0.177274 0)
(1.53298 0.28643 0)
(1.55803 0.345195 0)
(1.55896 0.322497 0)
(1.49901 0.187119 0)
(1.42062 0.0484718 0)
(1.40653 -0.0301598 0)
(1.12707 -0.174285 0)
(1.28399 -0.0690289 0)
(1.40611 0.0660725 0)
(1.48682 0.19393 0)
(1.54073 0.306666 0)
(1.5561 0.346947 0)
(1.55105 0.313483 0)
(1.48027 0.16616 0)
(1.4145 0.0447855 0)
(1.40364 -0.0289496 0)
(1.13335 -0.177388 0)
(1.29845 -0.0623658 0)
(1.42018 0.0782599 0)
(1.49894 0.213738 0)
(1.5459 0.317912 0)
(1.55433 0.346354 0)
(1.54204 0.301154 0)
(1.46034 0.147014 0)
(1.4068 0.0404668 0)
(1.40003 -0.0282657 0)
(1.14178 -0.181421 0)
(1.31377 -0.0566773 0)
(1.43818 0.0964138 0)
(1.51017 0.231499 0)
(1.55146 0.325926 0)
(1.55263 0.344538 0)
(1.53187 0.285692 0)
(1.43663 0.127671 0)
(1.39754 0.0364987 0)
(1.39558 -0.0270067 0)
(1.15152 -0.185313 0)
(1.3329 -0.0473871 0)
(1.45415 0.111418 0)
(1.52215 0.246086 0)
(1.55652 0.33683 0)
(1.55051 0.343132 0)
(1.52065 0.269103 0)
(1.4175 0.114921 0)
(1.38932 0.0344542 0)