/*--------------------------------*- C++ -*----------------------------------*\
  =========                 |
  \\      /  F ield         | OpenFOAM: The Open Source CFD Toolbox
   \\    /   O peration     | Website:  https://openfoam.org
    \\  /    A nd           | Version:  7
     \\/     M anipulation  |
\*---------------------------------------------------------------------------*/
FoamFile
{
    version     2.0;
    format      ascii;
    class       volScalarField;
    location    "0.8";
    object      p;
}
// * * * * * * * * * * * * * * * * * * * * * * * * * * * * * * * * * * * * * //

dimensions      [1 -1 -2 0 0 0 0];

internalField   nonuniform List<scalar> 
325
(
7.49281
7.62466
0.999951
2.25873
0.999947
0.999976
1.00961
0.999974
1.01352
0.999972
1.01877
0.999969
1.0271
0.999967
1.03636
0.999965
1.04472
0.999963
1.06035
0.999961
1.08734
0.99996
1.10954
0.999958
1.13951
0.999956
1.1905
0.999954
1.23741
0.999953
1.29405
0.999951
1.37459
0.99995
1.48076
0.999948
1.63343
0.999947
1.82965
0.999946
2.02596
0.999947
2.17291
0.999951
2.2588
1.01669
1.0185
1.02127
1.02438
1.02874
1.03305
1.02333
1.02578
1.02959
1.03333
1.03861
1.04353
1.03216
1.03545
1.03953
1.04388
1.04882
1.05518
1.04311
1.04644
1.04975
1.05486
1.06044
1.06884
1.0563
1.06011
1.06454
1.07164
1.0812
1.09083
1.0724
1.07821
1.08741
1.09755
1.11064
1.12465
1.10117
1.11035
1.12203
1.13444
1.14436
1.2812
1.13468
1.14371
1.15192
1.16347
1.17985
2.45675
1.16569
1.17474
1.18862
1.20078
1.46508
4.91803
1.22622
1.24375
1.26273
1.29398
3.24267
6.46501
1.29189
1.30849
1.32294
1.92621
5.70822
6.76782
1.35738
1.36734
1.5268
4.48131
6.81097
6.77378
1.46827
1.52019
3.2521
6.52611
6.94794
6.7034
1.69587
2.45798
5.87351
7.23221
7.01544
6.77116
2.47109
4.88455
7.31425
7.21671
6.99592
6.76977
4.05184
6.74132
7.14497
7.05182
6.93633
6.79222
5.7231
6.92207
6.97724
6.98747
6.88356
6.76983
6.28682
7.07866
7.02374
7.04365
6.97538
6.8648
6.68608
7.12867
6.93961
6.90807
6.86629
6.79394
7.49302
7.62466
7.34314
7.14843
7.01399
6.9153
1
1.00019
1
1.00022
1
1.00023
1
1.00022
1
1.00018
1
1.00017
1
1.00015
1
1.00013
1
1.00014
1
1.00014
0.999999
1.00016
0.999998
1.00019
0.999997
1.00025
0.999995
1.00035
0.999994
1.00054
0.999991
1.00086
0.999989
1.00142
0.999986
1.00242
0.999983
1.00394
0.999979
1.00631
1.00034
1.00038
1.00044
1.00051
1.00061
1.00072
1.00037
1.00041
1.00046
1.00053
1.0006
1.00071
1.00038
1.00041
1.00045
1.00051
1.00058
1.00067
1.00036
1.0004
1.00044
1.00049
1.00056
1.00064
1.00032
1.00036
1.00041
1.00046
1.00054
1.00062
1.00029
1.00032
1.00037
1.00043
1.0005
1.00059
1.00025
1.00028
1.00033
1.00038
1.00045
1.00054
1.00023
1.00026
1.0003
1.00035
1.00041
1.00049
1.00024
1.00027
1.00031
1.00036
1.00042
1.00051
1.00025
1.00028
1.00033
1.00038
1.00045
1.00053
1.00028
1.00031
1.00035
1.00041
1.00048
1.00057
1.00033
1.00037
1.00042
1.00049
1.00057
1.00068
1.00043
1.00048
1.00055
1.00063
1.00074
1.00086
1.00062
1.00069
1.00078
1.0009
1.00104
1.0012
1.00094
1.00104
1.00118
1.00135
1.00156
1.00179
1.00149
1.00165
1.00188
1.00213
1.00246
1.00282
1.00246
1.00272
1.00308
1.00347
1.004
1.00462
1.00408
1.00449
1.00502
1.00572
1.00659
1.00786
1.00664
1.00739
1.0083
1.00968
1.01121
1.01363
1.01098
1.0123
1.01403
1.01641
1.01921
1.02296
)
;

boundaryField
{
    inlet
    {
        type            fixedValue;
        value           nonuniform 0();
    }
    outlet
    {
        type            zeroGradient;
    }
    triangle
    {
        type            zeroGradient;
    }
    top
    {
        type            symmetryPlane;
    }
    bottom
    {
        type            symmetryPlane;
    }
    defaultFaces
    {
        type            empty;
    }
    procBoundary1to0
    {
        type            processor;
        value           nonuniform List<scalar> 
40
(
1
1
1
1
1
1
1
1
1
1
1
1
1
1
1
1
1
1
1
1
1
1
1
1
1
1
1
1
1
1
1
1
1
1
1
1
1
1
1
1
)
;
    }
    procBoundary1to2
    {
        type            processor;
        value           nonuniform List<scalar> 
40
(
1.03854
1.04927
1.06213
1.08281
1.21987
2.19502
4.37243
5.95791
6.50756
6.5928
6.60229
6.51015
6.46972
6.51156
6.49565
6.55702
6.57403
6.67495
6.64682
6.78998
1.00088
1.00083
1.00077
1.00075
1.00074
1.00071
1.00066
1.0006
1.00062
1.00064
1.0007
1.00082
1.00103
1.00142
1.00211
1.00333
1.00551
1.00936
1.01634
1.02764
)
;
    }
    procBoundary1to4
    {
        type            processor;
        value           nonuniform List<scalar> 2(1 1);
    }
    procBoundary1to5
    {
        type            processor;
        value           nonuniform List<scalar> 6(6.68597 7.3433 7.12876 2.17282 2.17282 0.999946);
    }
}


// ************************************************************************* //
