/*--------------------------------*- C++ -*----------------------------------*\
  =========                 |
  \\      /  F ield         | OpenFOAM: The Open Source CFD Toolbox
   \\    /   O peration     | Website:  https://openfoam.org
    \\  /    A nd           | Version:  8
     \\/     M anipulation  |
\*---------------------------------------------------------------------------*/
FoamFile
{
    version     2.0;
    format      ascii;
    class       volVectorField;
    location    "0.8";
    object      U;
}
// * * * * * * * * * * * * * * * * * * * * * * * * * * * * * * * * * * * * * //

dimensions      [0 1 -1 0 0 0 0];

internalField   nonuniform List<vector> 
325
(
(0.740159 0.234194 0)
(0.712004 0.323926 0)
(3.00009 -4.53303e-06 0)
(2.00952 0.0513381 0)
(3.00008 -9.92781e-06 0)
(3.00001 1.55655e-05 0)
(2.99706 -0.00614269 0)
(3.00001 1.66988e-05 0)
(2.99591 -0.00862282 0)
(3.00001 1.78486e-05 0)
(2.9945 -0.0118246 0)
(3.00002 1.86606e-05 0)
(2.99272 -0.014259 0)
(3.00002 1.94438e-05 0)
(2.98929 -0.0207042 0)
(3.00002 1.99452e-05 0)
(2.9843 -0.0322193 0)
(3.00002 2.04476e-05 0)
(2.98061 -0.0397466 0)
(3.00002 2.06314e-05 0)
(2.97433 -0.0440072 0)
(3.00002 2.10131e-05 0)
(2.95496 -0.070283 0)
(3.00003 2.09396e-05 0)
(2.94397 -0.0844862 0)
(3.00003 2.10666e-05 0)
(2.92637 -0.0969631 0)
(3.00003 2.06821e-05 0)
(2.88846 -0.136909 0)
(3.00004 2.01035e-05 0)
(2.86012 -0.16169 0)
(3.00004 1.93006e-05 0)
(2.80927 -0.197307 0)
(3.00004 1.84655e-05 0)
(2.74222 -0.2329 0)
(3.00005 1.62231e-05 0)
(2.65134 -0.274104 0)
(3.00006 1.5088e-05 0)
(2.46989 -0.294575 0)
(3.00007 9.18254e-06 0)
(2.23715 -0.269118 0)
(3.00008 9.90728e-06 0)
(2.07252 -0.179713 0)
(3.00009 4.48262e-06 0)
(2.00943 -0.0512038 0)
(2.99495 -0.0104186 0)
(2.99428 -0.0119256 0)
(2.9937 -0.0128827 0)
(2.9923 -0.0162208 0)
(2.99168 -0.0170074 0)
(2.98952 -0.0223377 0)
(2.9929 -0.0147432 0)
(2.9921 -0.0163904 0)
(2.99096 -0.018492 0)
(2.98981 -0.0209066 0)
(2.98819 -0.0240888 0)
(2.98742 -0.0256435 0)
(2.99007 -0.0209344 0)
(2.98941 -0.0219569 0)
(2.98764 -0.0257141 0)
(2.98692 -0.0268568 0)
(2.98457 -0.0319436 0)
(2.9831 -0.0337637 0)
(2.98533 -0.0293151 0)
(2.98463 -0.0307921 0)
(2.98352 -0.0338375 0)
(2.98243 -0.0356761 0)
(2.98064 -0.0398586 0)
(2.97845 -0.0431321 0)
(2.98314 -0.032958 0)
(2.98162 -0.036077 0)
(2.98059 -0.0382025 0)
(2.97755 -0.0448224 0)
(2.97578 -0.0478363 0)
(2.97193 -0.0584019 0)
(2.97753 -0.0439115 0)
(2.97515 -0.0495609 0)
(2.97336 -0.0520347 0)
(2.96923 -0.0611788 0)
(2.96668 -0.0645113 0)
(2.96083 -0.0785058 0)
(2.96899 -0.0607413 0)
(2.96733 -0.063039 0)
(2.96302 -0.0720515 0)
(2.96114 -0.0746531 0)
(2.95703 -0.0841135 0)
(2.95542 -0.110895 0)
(2.94917 -0.0881398 0)
(2.94712 -0.0911398 0)
(2.9449 -0.09726 0)
(2.94216 -0.101552 0)
(2.93902 -0.110491 0)
(2.60877 -0.466774 0)
(2.93955 -0.0949422 0)
(2.93463 -0.105655 0)
(2.93242 -0.109297 0)
(2.92644 -0.122925 0)
(2.89298 -0.179387 0)
(1.95135 -0.778857 0)
(2.92093 -0.117301 0)
(2.9171 -0.12466 0)
(2.91296 -0.134295 0)
(2.90857 -0.1476 0)
(2.32677 -0.608952 0)
(1.66505 -0.878637 0)
(2.87823 -0.172394 0)
(2.87553 -0.174185 0)
(2.87064 -0.185933 0)
(2.75583 -0.31994 0)
(1.80243 -0.827195 0)
(1.61165 -0.880463 0)
(2.85791 -0.174898 0)
(2.85186 -0.18892 0)
(2.83451 -0.22252 0)
(2.01819 -0.748045 0)
(1.59499 -0.878224 0)
(1.59858 -0.876373 0)
(2.8081 -0.226853 0)
(2.79968 -0.246685 0)
(2.39141 -0.607145 0)
(1.61722 -0.870153 0)
(1.5495 -0.865646 0)
(1.57517 -0.844697 0)
(2.71779 -0.312874 0)
(2.58804 -0.464977 0)
(1.74043 -0.857007 0)
(1.48423 -0.851985 0)
(1.49981 -0.826867 0)
(1.49789 -0.792438 0)
(2.43682 -0.508868 0)
(1.84518 -0.779537 0)
(1.37824 -0.846916 0)
(1.38529 -0.800256 0)
(1.37289 -0.746171 0)
(1.35011 -0.699441 0)
(1.8349 -0.684136 0)
(1.30484 -0.774096 0)
(1.24476 -0.714845 0)
(1.219 -0.649604 0)
(1.18793 -0.59564 0)
(1.17387 -0.551043 0)
(1.30222 -0.617807 0)
(1.0658 -0.591193 0)
(1.03774 -0.548626 0)
(0.993416 -0.52721 0)
(0.976454 -0.504567 0)
(0.986364 -0.488712 0)
(0.985359 -0.437046 0)
(0.846952 -0.426141 0)
(0.856756 -0.416526 0)
(0.860131 -0.408499 0)
(0.87788 -0.413576 0)
(0.906394 -0.425368 0)
(0.780128 -0.346349 0)
(0.716403 -0.395462 0)
(0.757413 -0.417729 0)
(0.786638 -0.442546 0)
(0.823448 -0.456198 0)
(0.864149 -0.467765 0)
(0.740081 -0.234111 0)
(0.711973 -0.323863 0)
(0.780366 -0.379162 0)
(0.805861 -0.426419 0)
(0.832404 -0.452858 0)
(0.864954 -0.467475 0)
(3 -7.63503e-08 0)
(2.99986 1.13675e-05 0)
(3 -8.55463e-08 0)
(2.99985 5.22464e-06 0)
(3 -1.54508e-07 0)
(2.99985 -2.48474e-08 0)
(3 -1.98215e-07 0)
(2.99986 -6.78213e-06 0)
(3 -2.61644e-07 0)
(2.99988 5.61017e-06 0)
(3 -2.99245e-07 0)
(2.99989 1.33815e-06 0)
(3 -2.57383e-07 0)
(2.99989 -3.78301e-06 0)
(3 -2.42563e-07 0)
(2.9999 -4.43774e-06 0)
(3 -6.99291e-08 0)
(2.99989 1.06583e-06 0)
(3 4.69684e-07 0)
(2.99989 2.19682e-06 0)
(3 1.14931e-06 0)
(2.99989 1.01852e-05 0)
(3 1.91998e-06 0)
(2.99988 7.14961e-07 0)
(3 2.65282e-06 0)
(2.99986 -2.45865e-05 0)
(3 3.52695e-06 0)
(2.99983 -7.70876e-05 0)
(3 4.60277e-06 0)
(2.99979 -0.000181903 0)
(3 5.93227e-06 0)
(2.99971 -0.000406709 0)
(3 7.66636e-06 0)
(2.99956 -0.00078341 0)
(3 9.58682e-06 0)
(2.9993 -0.00138817 0)
(3.00001 1.17399e-05 0)
(2.99874 -0.00261473 0)
(3.00001 1.37937e-05 0)
(2.99797 -0.00426132 0)
(2.99975 -1.02192e-05 0)
(2.99972 -2.5061e-06 0)
(2.99968 -2.27697e-05 0)
(2.99964 -2.25928e-06 0)
(2.99957 -3.63352e-05 0)
(2.9995 1.45895e-06 0)
(2.99975 -1.82034e-05 0)
(2.99972 -1.35496e-05 0)
(2.99968 -2.40244e-05 0)
(2.99964 -1.56545e-05 0)
(2.99958 -2.5165e-05 0)
(2.9995 -1.32933e-05 0)
(2.99974 1.34089e-05 0)
(2.99972 6.40674e-06 0)
(2.99968 1.58785e-05 0)
(2.99964 3.30523e-06 0)
(2.99959 2.36012e-05 0)
(2.99952 2.53941e-06 0)
(2.99975 4.29708e-05 0)
(2.99973 3.83096e-05 0)
(2.9997 5.93995e-05 0)
(2.99966 4.62734e-05 0)
(2.99961 7.7916e-05 0)
(2.99955 5.31931e-05 0)
(2.99978 5.05551e-05 0)
(2.99976 4.7643e-05 0)
(2.99972 7.24154e-05 0)
(2.99968 6.31441e-05 0)
(2.99963 9.71217e-05 0)
(2.99957 7.90812e-05 0)
(2.9998 3.42906e-05 0)
(2.99978 3.2469e-05 0)
(2.99975 5.07338e-05 0)
(2.99971 4.79502e-05 0)
(2.99966 7.17817e-05 0)
(2.9996 6.94487e-05 0)
(2.99982 1.89338e-05 0)
(2.9998 1.59674e-05 0)
(2.99977 2.94428e-05 0)
(2.99973 2.66647e-05 0)
(2.99968 4.153e-05 0)
(2.99963 4.55178e-05 0)
(2.99982 8.32892e-06 0)
(2.9998 2.53887e-06 0)
(2.99977 1.15395e-05 0)
(2.99974 2.47547e-06 0)
(2.99969 9.59239e-06 0)
(2.99964 3.19463e-06 0)
(2.99982 4.8331e-06 0)
(2.9998 -2.96969e-06 0)
(2.99977 3.7751e-06 0)
(2.99973 -1.30403e-05 0)
(2.99969 -3.49793e-06 0)
(2.99963 -3.02688e-05 0)
(2.99981 -1.38651e-05 0)
(2.99979 -1.43494e-05 0)
(2.99976 -2.2732e-05 0)
(2.99973 -2.71028e-05 0)
(2.99968 -3.12473e-05 0)
(2.99962 -5.22599e-05 0)
(2.9998 -1.83784e-05 0)
(2.99978 -1.42735e-05 0)
(2.99975 -3.47522e-05 0)
(2.99971 -2.47331e-05 0)
(2.99966 -5.81077e-05 0)
(2.9996 -4.53945e-05 0)
(2.99978 -4.34901e-05 0)
(2.99976 -4.01235e-05 0)
(2.99972 -6.83209e-05 0)
(2.99968 -5.83966e-05 0)
(2.99963 -0.000106465 0)
(2.99957 -8.91561e-05 0)
(2.99975 -9.58575e-05 0)
(2.99972 -9.57629e-05 0)
(2.99968 -0.00013704 0)
(2.99964 -0.000131002 0)
(2.99958 -0.000200261 0)
(2.99951 -0.0001853 0)
(2.9997 -0.000198355 0)
(2.99967 -0.000204155 0)
(2.99962 -0.000268474 0)
(2.99958 -0.000270015 0)
(2.9995 -0.000372998 0)
(2.99944 -0.000366582 0)
(2.99962 -0.000398561 0)
(2.99958 -0.000422376 0)
(2.99952 -0.000523236 0)
(2.99946 -0.000546552 0)
(2.99937 -0.000707713 0)
(2.99931 -0.000715998 0)
(2.99947 -0.000782878 0)
(2.99943 -0.000829213 0)
(2.99934 -0.00100729 0)
(2.99928 -0.00105811 0)
(2.99914 -0.001348 0)
(2.99907 -0.00140709 0)
(2.9992 -0.0014908 0)
(2.99914 -0.0015881 0)
(2.99901 -0.00187281 0)
(2.99892 -0.00201183 0)
(2.99874 -0.00242114 0)
(2.99862 -0.00258681 0)
(2.99871 -0.00264829 0)
(2.99863 -0.0027842 0)
(2.99841 -0.00333248 0)
(2.99832 -0.00345021 0)
(2.99793 -0.00445299 0)
(2.99779 -0.00453636 0)
(2.99797 -0.00416894 0)
(2.99774 -0.0046269 0)
(2.99751 -0.00511969 0)
(2.99704 -0.00611017 0)
(2.99673 -0.00672155 0)
(2.99578 -0.00882222 0)
(2.99674 -0.00661765 0)
(2.9962 -0.0078789 0)
(2.99588 -0.00844539 0)
(2.99487 -0.0106954 0)
(2.99433 -0.0116368 0)
(2.99275 -0.0152397 0)
)
;

boundaryField
{
    inlet
    {
        type            fixedValue;
        value           nonuniform List<vector> 0();
    }
    outlet
    {
        type            inletOutlet;
        inletValue      nonuniform List<vector> 0();
        value           nonuniform List<vector> 0();
    }
    triangle
    {
        type            slip;
    }
    top
    {
        type            symmetryPlane;
    }
    bottom
    {
        type            symmetryPlane;
    }
    defaultFaces
    {
        type            empty;
    }
    procBoundary1to0
    {
        type            processor;
        value           nonuniform List<vector> 
40
(
(3 -2.0274e-07 0)
(3 -2.19648e-07 0)
(3 -2.38699e-07 0)
(3 -2.50505e-07 0)
(3 -2.54699e-07 0)
(3 -2.46093e-07 0)
(3 -2.27516e-07 0)
(3 -1.94548e-07 0)
(3 -1.60843e-07 0)
(3 -1.31742e-07 0)
(3 -9.86713e-08 0)
(3 -7.20945e-08 0)
(3 -5.70371e-08 0)
(3 -3.8449e-08 0)
(3 -1.5017e-08 0)
(3 6.68889e-09 0)
(3 1.30112e-08 0)
(3 1.45134e-08 0)
(3 1.81928e-08 0)
(3 5.41324e-09 0)
(3 2.7945e-09 0)
(3 8.55647e-09 0)
(3 1.45075e-08 0)
(3 2.02827e-08 0)
(3 2.53687e-08 0)
(3 2.9346e-08 0)
(3 3.15198e-08 0)
(3 3.24463e-08 0)
(3 2.9489e-08 0)
(3 2.21406e-08 0)
(3 2.00886e-08 0)
(3 1.75437e-08 0)
(3 6.51963e-09 0)
(3 -2.3364e-08 0)
(3 -6.27251e-08 0)
(3 -1.01191e-07 0)
(3 -1.1715e-07 0)
(3 -1.36011e-07 0)
(3 -1.53104e-07 0)
(3 -1.7304e-07 0)
)
;
    }
    procBoundary1to2
    {
        type            processor;
        value           nonuniform List<vector> 
40
(
(2.98871 -0.0233785 0)
(2.98518 -0.0309909 0)
(2.9808 -0.0407319 0)
(2.97441 -0.0534766 0)
(2.98695 -0.0827607 0)
(2.71923 -0.400433 0)
(2.03939 -0.725421 0)
(1.70755 -0.871118 0)
(1.66329 -0.885264 0)
(1.6481 -0.879604 0)
(1.63267 -0.878432 0)
(1.62984 -0.859469 0)
(1.58218 -0.824796 0)
(1.47999 -0.757614 0)
(1.32222 -0.666173 0)
(1.16599 -0.537601 0)
(1.01541 -0.490306 0)
(0.951429 -0.446801 0)
(0.915314 -0.485814 0)
(0.911898 -0.488943 0)
(2.9994 -5.15569e-05 0)
(2.99941 -1.55009e-05 0)
(2.99943 4.53752e-05 0)
(2.99946 0.000103821 0)
(2.99949 0.000123291 0)
(2.99953 9.88483e-05 0)
(2.99955 6.09329e-05 0)
(2.99956 8.42589e-06 0)
(2.99956 -9.60193e-06 0)
(2.99954 -4.02547e-05 0)
(2.99952 -9.38659e-05 0)
(2.99948 -0.00017122 0)
(2.99942 -0.000299265 0)
(2.99932 -0.000532924 0)
(2.99916 -0.00099372 0)
(2.99884 -0.0018501 0)
(2.99827 -0.00338688 0)
(2.99707 -0.00635497 0)
(2.99546 -0.00945746 0)
(2.99221 -0.0160079 0)
)
;
    }
    procBoundary1to4
    {
        type            processor;
        value           nonuniform List<vector> 2((3 -1.14842e-08 0) (3 -2.03153e-08 0));
    }
    procBoundary1to5
    {
        type            processor;
        value           nonuniform List<vector> 6((0.780213 0.34645 0) (0.780321 0.379233 0) (0.716406 0.395549 0) (2.07265 0.179804 0) (2.07265 0.179804 0) (3.00007 -9.20474e-06 0));
    }
}


// ************************************************************************* //
