/*--------------------------------*- C++ -*----------------------------------*\
  =========                 |
  \\      /  F ield         | OpenFOAM: The Open Source CFD Toolbox
   \\    /   O peration     | Website:  https://openfoam.org
    \\  /    A nd           | Version:  8
     \\/     M anipulation  |
\*---------------------------------------------------------------------------*/
FoamFile
{
    version     2.0;
    format      ascii;
    class       volVectorField;
    location    "0.4";
    object      U;
}
// * * * * * * * * * * * * * * * * * * * * * * * * * * * * * * * * * * * * * //

dimensions      [0 1 -1 0 0 0 0];

internalField   nonuniform List<vector> 
325
(
(1.00013 0.102934 0)
(1.00583 0.0266081 0)
(1.03467 0.00904654 0)
(1.05455 0.00442832 0)
(0.894811 0.0402946 0)
(1.19211 0.0486917 0)
(1.09267 0.220447 0)
(0.960473 0.0857632 0)
(1.00419 0.021006 0)
(1.03637 0.00652991 0)
(1.05492 0.00316842 0)
(0.309841 -0.0254444 0)
(0.722196 0.0579198 0)
(0.876248 0.165539 0)
(0.934884 0.0533893 0)
(1.00492 0.0144937 0)
(1.037 0.00380082 0)
(1.05447 0.00191783 0)
(0.105738 -0.00399211 0)
(0.503265 0.0305215 0)
(0.770469 0.0596751 0)
(0.911284 0.0200187 0)
(1.00395 0.00554322 0)
(1.03815 0.00131898 0)
(1.05457 0.000669597 0)
(0.503265 -0.030522 0)
(0.770469 -0.0596754 0)
(0.911284 -0.0200187 0)
(1.00395 -0.00554311 0)
(1.03815 -0.00131895 0)
(1.05457 -0.000669589 0)
(0.722196 -0.0579203 0)
(0.876247 -0.16554 0)
(0.934884 -0.0533893 0)
(1.00492 -0.0144936 0)
(1.037 -0.00380079 0)
(1.05447 -0.00191782 0)
(1.19211 -0.0486921 0)
(1.09267 -0.220447 0)
(0.960473 -0.0857632 0)
(1.00419 -0.0210059 0)
(1.03637 -0.00652988 0)
(1.05492 -0.00316842 0)
(1.63043 -0.183216 0)
(1.30408 -0.243381 0)
(1.00013 -0.102934 0)
(1.00583 -0.026608 0)
(1.03467 -0.00904651 0)
(1.05455 -0.00442832 0)
(1.86588 -0.170324 0)
(1.42721 -0.257492 0)
(1.04085 -0.122889 0)
(1.00961 -0.0306839 0)
(1.0339 -0.0115321 0)
(1.05492 -0.00573916 0)
(1.92881 -0.201171 0)
(1.47288 -0.262219 0)
(1.07751 -0.132904 0)
(1.01408 -0.0347549 0)
(1.03306 -0.0136514 0)
(1.05485 -0.00712682 0)
(1.90088 -0.254445 0)
(1.48516 -0.286163 0)
(1.11014 -0.144644 0)
(1.01966 -0.0384316 0)
(1.03318 -0.0156716 0)
(1.0543 -0.00856732 0)
(1.84639 -0.294158 0)
(1.49314 -0.304331 0)
(1.14222 -0.148898 0)
(1.02592 -0.0412224 0)
(1.03318 -0.0175283 0)
(1.05338 -0.00996423 0)
(1.86696 -0.397054 0)
(1.5056 -0.330281 0)
(1.17164 -0.152687 0)
(1.03225 -0.0439818 0)
(1.03461 -0.0190879 0)
(1.05317 -0.0116053 0)
(1.93514 -0.450405 0)
(1.54117 -0.337572 0)
(1.19645 -0.150747 0)
(1.03896 -0.0460995 0)
(1.03513 -0.020832 0)
(1.05254 -0.0129558 0)
(2.02154 -0.461729 0)
(1.58292 -0.337053 0)
(1.22192 -0.151251 0)
(1.04639 -0.048333 0)
(1.03714 -0.0225175 0)
(1.05311 -0.0145808 0)
(2.09292 -0.463476 0)
(1.62413 -0.328748 0)
(1.24767 -0.150646 0)
(1.05412 -0.0502838 0)
(1.03913 -0.0245186 0)
(1.05287 -0.0161391 0)
(2.15357 -0.464436 0)
(1.6649 -0.319637 0)
(1.272 -0.149873 0)
(1.06089 -0.0517115 0)
(1.04125 -0.0262624 0)
(1.0538 -0.0176167 0)
(2.21689 -0.461143 0)
(1.71176 -0.313185 0)
(1.29539 -0.148084 0)
(1.0664 -0.0528039 0)
(1.04292 -0.0279702 0)
(1.05465 -0.0189262 0)
(2.28011 -0.452351 0)
(1.76313 -0.303259 0)
(1.31638 -0.14197 0)
(1.07079 -0.053485 0)
(1.04408 -0.0296252 0)
(1.0556 -0.0201458 0)
(2.32928 -0.433742 0)
(1.81061 -0.29341 0)
(1.33342 -0.136078 0)
(1.07436 -0.0544669 0)
(1.04505 -0.0312631 0)
(1.05633 -0.0213983 0)
(2.36059 -0.409616 0)
(1.84826 -0.273264 0)
(1.34559 -0.127526 0)
(1.07728 -0.0558928 0)
(1.04607 -0.0329977 0)
(1.05711 -0.0226442 0)
(2.37783 -0.382889 0)
(1.8801 -0.25823 0)
(1.35629 -0.122986 0)
(1.07992 -0.0578492 0)
(1.04707 -0.0349006 0)
(1.05785 -0.0239384 0)
(2.38539 -0.357432 0)
(1.90559 -0.235281 0)
(1.36414 -0.115657 0)
(1.08225 -0.0602437 0)
(1.04811 -0.0369486 0)
(1.05865 -0.025238 0)
(2.38699 -0.334852 0)
(1.93136 -0.22089 0)
(1.37612 -0.113459 0)
(1.08513 -0.0626042 0)
(1.04926 -0.0390385 0)
(1.05949 -0.0265182 0)
(2.38294 -0.296631 0)
(1.95316 -0.196077 0)
(1.38807 -0.104401 0)
(1.08801 -0.0643188 0)
(1.05048 -0.04104 0)
(1.06038 -0.0276975 0)
(2.38852 -0.277491 0)
(1.98078 -0.186823 0)
(1.40381 -0.0983115 0)
(1.09075 -0.0652541 0)
(1.0517 -0.042866 0)
(1.0613 -0.0287419 0)
(2.37849 -0.230239 0)
(1.9893 -0.154901 0)
(1.41338 -0.084018 0)
(1.09271 -0.0654619 0)
(1.053 -0.0445031 0)
(1.06223 -0.0296637 0)
(2.36843 -0.209618 0)
(1.99822 -0.14237 0)
(1.42498 -0.0742779 0)
(1.09399 -0.0647915 0)
(1.0541 -0.0459774 0)
(1.06319 -0.0304831 0)
(2.33906 -0.159309 0)
(1.98545 -0.10711 0)
(1.4264 -0.0602489 0)
(1.09435 -0.0640432 0)
(1.05548 -0.0474398 0)
(1.06417 -0.0312925 0)
(2.3178 -0.131812 0)
(1.98318 -0.0913436 0)
(1.43236 -0.0530466 0)
(1.09466 -0.0652555 0)
(1.05697 -0.049071 0)
(1.06513 -0.0321777 0)
(2.2846 -0.0842141 0)
(1.9702 -0.0596809 0)
(1.43299 -0.0451468 0)
(1.0947 -0.0676518 0)
(1.05854 -0.0510463 0)
(1.06622 -0.0329478 0)
(2.25924 -0.0517383 0)
(1.96527 -0.0399897 0)
(1.4352 -0.0389738 0)
(1.09474 -0.0711475 0)
(1.06012 -0.0533297 0)
(1.0674 -0.0336492 0)
(2.23357 -0.0150806 0)
(1.9611 -0.0162054 0)
(1.43474 -0.03341 0)
(1.09507 -0.0730742 0)
(1.06169 -0.0554239 0)
(1.06881 -0.0341834 0)
(2.21768 0.0186919 0)
(1.96253 0.0119476 0)
(1.43257 -0.0263198 0)
(1.09552 -0.0725698 0)
(1.06333 -0.0566405 0)
(1.07004 -0.0346809 0)
(2.20628 0.0708776 0)
(1.96595 0.0301191 0)
(1.41766 -0.0235636 0)
(1.09869 -0.0705044 0)
(1.06569 -0.0583514 0)
(1.0713 -0.0360945 0)
(2.19181 0.0952782 0)
(1.96454 0.00529449 0)
(1.40315 -0.054364 0)
(1.10309 -0.0731693 0)
(1.06824 -0.0619474 0)
(1.07365 -0.0385441 0)
(2.16483 0.0791406 0)
(1.95148 -0.0547976 0)
(1.40093 -0.107982 0)
(1.10849 -0.0865348 0)
(1.07218 -0.0691913 0)
(1.07661 -0.0393722 0)
(2.12492 0.0348908 0)
(1.93106 -0.0917209 0)
(1.40921 -0.136326 0)
(1.1158 -0.103413 0)
(1.07785 -0.0774262 0)
(1.08024 -0.0384421 0)
(2.09219 0.000665342 0)
(1.9195 -0.091429 0)
(1.41731 -0.13866 0)
(1.12279 -0.106768 0)
(1.08519 -0.0791964 0)
(1.08414 -0.0354408 0)
(2.06942 -0.0051111 0)
(1.90757 -0.0788194 0)
(1.42055 -0.122567 0)
(1.12789 -0.0986464 0)
(1.09253 -0.0743417 0)
(1.08805 -0.0311594 0)
(2.0465 0.000906992 0)
(1.89607 -0.0584532 0)
(1.42492 -0.105586 0)
(1.13447 -0.092997 0)
(1.09956 -0.0679575 0)
(1.09213 -0.0265882 0)
(2.0271 0.012567 0)
(1.88503 -0.0342887 0)
(1.42215 -0.0803347 0)
(1.13689 -0.0778725 0)
(1.10554 -0.0578295 0)
(1.09622 -0.0220026 0)
(2.01201 0.0275121 0)
(1.87479 -0.0143754 0)
(1.41847 -0.0584861 0)
(1.13784 -0.0612576 0)
(1.10908 -0.0447804 0)
(1.09943 -0.0164795 0)
(1.99714 0.044325 0)
(1.86119 0.00604153 0)
(1.412 -0.0384686 0)
(1.13989 -0.0473041 0)
(1.11343 -0.0338588 0)
(1.10271 -0.0116155 0)
(1.98181 0.0608047 0)
(1.84884 0.0222929 0)
(1.40567 -0.0218759 0)
(1.13954 -0.0321458 0)
(1.11526 -0.0208791 0)
(1.10478 -0.0060216 0)
(1.97115 0.0755048 0)
(1.8374 0.0367864 0)
(1.39962 -0.00743141 0)
(1.1405 -0.019385 0)
(1.11691 -0.00894268 0)
(1.10591 -0.000297707 0)
(1.96262 0.0877242 0)
(1.82513 0.0492576 0)
(1.39312 0.00675226 0)
(1.14039 -0.00365006 0)
(1.11721 0.00405192 0)
(1.10583 0.00512619 0)
(1.95534 0.0977198 0)
(1.81116 0.0616407 0)
(1.38641 0.0231181 0)
(1.14047 0.0147989 0)
(1.11657 0.0164645 0)
(1.10487 0.00752253 0)
(1.953 0.103689 0)
(1.80026 0.0728241 0)
(1.38171 0.0435516 0)
(1.13957 0.0349852 0)
(1.11449 0.0231317 0)
(1.10317 0.00760468 0)
(1.95466 0.101273 0)
(1.79207 0.0852944 0)
(1.37871 0.0664114 0)
(1.13714 0.0462619 0)
(1.11113 0.0241783 0)
(1.10144 0.00634896 0)
(1.95891 0.0956357 0)
(1.78825 0.0934107 0)
(1.37586 0.0792616 0)
(1.13313 0.0476679 0)
(1.10678 0.0223946 0)
(1.10014 0.00430214 0)
(1.96667 0.0834601 0)
(1.78684 0.0910011 0)
(1.37285 0.0808348 0)
(1.12749 0.0458692 0)
(1.10332 0.0166977 0)
(1.09919 0.0021723 0)
(1.97888 0.0593678 0)
(1.79173 0.0736902 0)
(1.37274 0.0686328 0)
(1.12363 0.0348907 0)
(1.10072 0.00877495 0)
(1.09862 0.000816613 0)
(1.97601 0.0203164 0)
(1.78169 0.0317092 0)
(1.36108 0.0290748 0)
(1.11728 0.0103545 0)
(1.09907 0.00149508 0)
(1.09832 0.000168711 0)
)
;

boundaryField
{
    inlet
    {
        type            fixedValue;
        value           nonuniform List<vector> 0();
    }
    outlet
    {
        type            inletOutlet;
        inletValue      uniform (3 0 0);
        value           nonuniform List<vector> 
54
(
(1.0713 -0.0360945 0)
(1.07365 -0.0385441 0)
(1.07661 -0.0393722 0)
(1.08024 -0.0384421 0)
(1.08414 -0.0354408 0)
(1.08805 -0.0311594 0)
(1.09213 -0.0265882 0)
(1.09622 -0.0220026 0)
(1.09943 -0.0164795 0)
(1.10271 -0.0116155 0)
(1.10478 -0.0060216 0)
(1.10591 -0.000297707 0)
(1.10583 0.00512619 0)
(1.10487 0.00752253 0)
(1.10317 0.00760468 0)
(1.10144 0.00634896 0)
(1.10014 0.00430214 0)
(1.09919 0.0021723 0)
(1.09862 0.000816613 0)
(1.09832 0.000168711 0)
(1.05311 -0.0145808 0)
(1.05287 -0.0161391 0)
(1.0538 -0.0176167 0)
(1.05465 -0.0189262 0)
(1.0556 -0.0201458 0)
(1.05633 -0.0213983 0)
(1.05711 -0.0226442 0)
(1.05785 -0.0239384 0)
(1.05865 -0.025238 0)
(1.05949 -0.0265182 0)
(1.06038 -0.0276975 0)
(1.0613 -0.0287419 0)
(1.06223 -0.0296637 0)
(1.06319 -0.0304831 0)
(1.06417 -0.0312925 0)
(1.06513 -0.0321777 0)
(1.06622 -0.0329478 0)
(1.0674 -0.0336492 0)
(1.06881 -0.0341834 0)
(1.07004 -0.0346809 0)
(1.05455 0.00442832 0)
(1.05492 0.00316842 0)
(1.05447 0.00191783 0)
(1.05457 0.000669597 0)
(1.05457 -0.000669589 0)
(1.05447 -0.00191782 0)
(1.05492 -0.00316842 0)
(1.05455 -0.00442832 0)
(1.05492 -0.00573916 0)
(1.05485 -0.00712682 0)
(1.0543 -0.00856732 0)
(1.05338 -0.00996423 0)
(1.05317 -0.0116053 0)
(1.05254 -0.0129558 0)
)
;
    }
    triangle
    {
        type            slip;
    }
    top
    {
        type            symmetryPlane;
    }
    bottom
    {
        type            symmetryPlane;
    }
    defaultFaces
    {
        type            empty;
    }
    procBoundary7to2
    {
        type            processor;
        value           nonuniform List<vector> 7((0.19086 0.0169021 0) (-0.214059 -0.0355872 0) (-0.345721 -0.0253174 0) (0.105739 0.00399086 0) (0.105739 0.00399086 0) (0.309841 0.025444 0) (0.894812 -0.0402947 0));
    }
    procBoundary7to3
    {
        type            processor;
        value           nonuniform List<vector> 8((1.04085 0.122889 0) (1.00961 0.030684 0) (1.0339 0.0115321 0) (1.05492 0.00573917 0) (1.70396 0.0441299 0) (1.63043 0.183216 0) (1.30409 0.243381 0) (1.30409 0.243381 0));
    }
    procBoundary7to6
    {
        type            processor;
        value           nonuniform List<vector> 
47
(
(1.70396 -0.0441305 0)
(2.30101 -0.080661 0)
(2.52902 -0.0880609 0)
(2.6092 -0.183407 0)
(2.62348 -0.305083 0)
(2.6172 -0.597596 0)
(2.62392 -0.829844 0)
(2.61844 -0.825886 0)
(2.58818 -0.775484 0)
(2.55977 -0.693239 0)
(2.55063 -0.632934 0)
(2.56375 -0.580456 0)
(2.57566 -0.516646 0)
(2.58365 -0.469291 0)
(2.58401 -0.419758 0)
(2.57959 -0.366982 0)
(2.56895 -0.318077 0)
(2.53905 -0.260419 0)
(2.49803 -0.218233 0)
(2.45349 -0.165433 0)
(2.42022 -0.129861 0)
(2.38436 -0.0846869 0)
(2.35173 -0.0507223 0)
(2.31434 -0.0133485 0)
(2.27792 0.0192291 0)
(2.23905 0.0546475 0)
(2.20085 0.0874446 0)
(2.16448 0.145103 0)
(2.1292 0.21053 0)
(2.10257 0.206553 0)
(2.0711 0.170983 0)
(2.04424 0.0981153 0)
(2.02443 0.0689637 0)
(2.00626 0.0644422 0)
(1.98774 0.0698167 0)
(1.97883 0.0815284 0)
(1.97291 0.0936881 0)
(1.96627 0.105082 0)
(1.96582 0.113708 0)
(1.96962 0.11644 0)
(1.97508 0.115295 0)
(1.97956 0.112203 0)
(1.98663 0.100926 0)
(1.99882 0.0821371 0)
(2.01285 0.058822 0)
(2.02638 0.0336846 0)
(2.02979 0.00816448 0)
)
;
    }
}


// ************************************************************************* //
