/*--------------------------------*- C++ -*----------------------------------*\
  =========                 |
  \\      /  F ield         | OpenFOAM: The Open Source CFD Toolbox
   \\    /   O peration     | Website:  https://openfoam.org
    \\  /    A nd           | Version:  8
     \\/     M anipulation  |
\*---------------------------------------------------------------------------*/
FoamFile
{
    version     2.0;
    format      ascii;
    class       volScalarField;
    location    "1.8";
    object      p;
}
// * * * * * * * * * * * * * * * * * * * * * * * * * * * * * * * * * * * * * //

dimensions      [1 -1 -2 0 0 0 0];

internalField   nonuniform List<scalar> 
2600
(
0.833773
0.781666
0.750536
0.778166
0.897667
1.07598
1.27646
1.36193
1.34303
1.32495
0.843426
0.771615
0.74526
0.784106
0.909715
1.09419
1.29265
1.3723
1.35372
1.31923
0.842059
0.767278
0.742031
0.797882
0.924329
1.09999
1.30032
1.36785
1.35808
1.31048
0.838757
0.759612
0.736544
0.806922
0.947413
1.11243
1.27795
1.3356
1.33939
1.3216
0.835544
0.751152
0.73061
0.808608
0.955031
1.1311
1.29622
1.36129
1.34115
1.32856
0.838681
0.749629
0.731773
0.812282
0.957211
1.13507
1.3228
1.39219
1.35988
1.3298
0.841649
0.750346
0.74016
0.822508
0.971854
1.13897
1.31162
1.3703
1.37092
1.33969
0.845285
0.755155
0.744678
0.824132
0.968862
1.14096
1.31638
1.37038
1.35473
1.32688
0.847589
0.756607
0.739168
0.818697
0.967588
1.14483
1.32581
1.35406
1.35138
1.31515
0.849576
0.756407
0.738309
0.818744
0.971126
1.14152
1.31185
1.34573
1.35974
1.32955
0.849779
0.755607
0.735182
0.81861
0.971006
1.14022
1.30497
1.38007
1.34809
1.33315
0.848075
0.756096
0.736962
0.818748
0.968159
1.14331
1.31245
1.38895
1.36151
1.34661
0.845838
0.755585
0.745173
0.824065
0.969058
1.14008
1.31708
1.37256
1.36072
1.33658
0.841943
0.750974
0.741064
0.823304
0.973073
1.13965
1.32311
1.37095
1.34264
1.32203
0.838786
0.749423
0.731776
0.812879
0.958345
1.13645
1.32355
1.37298
1.35505
1.32301
0.835105
0.750269
0.730147
0.808421
0.955361
1.13189
1.2848
1.35386
1.37132
1.32731
0.837814
0.758722
0.735639
0.806497
0.949215
1.11125
1.27796
1.34827
1.34304
1.3328
0.841128
0.766712
0.7415
0.798952
0.925708
1.09832
1.30704
1.37398
1.33176
1.31832
0.843234
0.77172
0.745919
0.784733
0.90983
1.09448
1.29397
1.36629
1.34974
1.31288
0.834854
0.782327
0.750813
0.777947
0.898564
1.0773
1.27318
1.35236
1.3514
1.32099
0.973799
0.792157
0.761393
0.77457
0.878171
1.0524
1.24865
1.33016
1.34275
1.31812
1.12395
0.818799
0.788467
0.772363
0.852004
1.01794
1.23622
1.3246
1.32696
1.30963
1.26937
0.866639
0.809633
0.773713
0.826816
0.983752
1.22567
1.32537
1.32233
1.30201
1.38817
0.936065
0.832947
0.779682
0.812016
0.951748
1.20979
1.32265
1.32451
1.29769
1.49194
1.00933
0.865569
0.790557
0.807775
0.921488
1.18286
1.31421
1.3242
1.29712
1.57837
1.07999
0.902199
0.808584
0.810367
0.893321
1.14731
1.29627
1.31831
1.29557
1.65265
1.15336
0.939139
0.829885
0.809805
0.865897
1.109
1.27725
1.30839
1.28945
1.71588
1.22491
0.982506
0.849796
0.808693
0.843961
1.06777
1.26177
1.30331
1.28144
1.77033
1.29109
1.03134
0.876312
0.810525
0.829532
1.02424
1.2459
1.30082
1.27473
1.81989
1.35085
1.07737
0.912503
0.816326
0.823314
0.978973
1.22557
1.2973
1.27071
1.86284
1.40834
1.12112
0.947228
0.831014
0.821376
0.937859
1.19933
1.29158
1.2668
1.90034
1.46081
1.16632
0.979574
0.851395
0.81874
0.902161
1.16754
1.28357
1.25913
1.93326
1.50853
1.21131
1.01573
0.871517
0.818153
0.871205
1.12986
1.27342
1.2501
1.9627
1.55222
1.25355
1.05388
0.896169
0.821185
0.847252
1.08695
1.26181
1.24223
1.98918
1.59352
1.29486
1.08902
0.926333
0.828169
0.832658
1.04153
1.24798
1.23628
2.01316
1.63231
1.33562
1.12225
0.954115
0.839861
0.824525
0.998155
1.23099
1.23039
2.03492
1.66872
1.37433
1.15677
0.981603
0.851542
0.821969
0.959912
1.21094
1.22291
2.05453
1.70264
1.41114
1.18916
1.01255
0.865338
0.822585
0.926671
1.18737
1.21365
2.07213
1.73381
1.44587
1.22114
1.04213
0.882772
0.824086
0.897211
1.16001
1.20365
2.08822
1.76266
1.47894
1.25198
1.07088
0.903587
0.82584
0.870168
1.12834
1.19268
3.74485
3.56904
3.44978
3.33258
3.2179
3.10532
2.9846
2.85009
2.65776
2.44953
3.50603
3.33989
3.26389
3.1783
3.09223
2.99766
2.88818
2.75211
2.55653
2.28709
3.42731
3.30594
3.24169
3.15976
3.0797
2.98964
2.88202
2.74333
2.54648
2.28075
3.32692
3.23635
3.1833
3.10865
3.03615
2.94791
2.84131
2.70203
2.51021
2.24401
3.24214
3.17207
3.12955
3.06141
2.99338
2.90664
2.80283
2.66575
2.48193
2.21927
3.16408
3.10713
3.0705
3.00976
2.94865
2.86569
2.76612
2.63207
2.45726
2.20493
3.09598
3.05019
3.01866
2.96404
2.90749
2.82724
2.73207
2.60213
2.43695
2.2016
3.03485
2.99737
2.96913
2.91939
2.86657
2.78985
2.69988
2.5754
2.42042
2.20361
2.98242
2.95171
2.92588
2.87957
2.82943
2.75629
2.67144
2.55287
2.40807
2.20964
2.93935
2.91154
2.88604
2.8423
2.79505
2.72604
2.64636
2.53416
2.39911
2.21843
2.90341
2.8745
2.84873
2.8084
2.76459
2.69998
2.62515
2.51945
2.39291
2.228
2.86773
2.84072
2.81711
2.78015
2.73891
2.67805
2.60744
2.50789
2.38964
2.23838
2.8354
2.81157
2.7904
2.75631
2.71729
2.65974
2.5927
2.49872
2.38783
2.24869
2.8072
2.78653
2.76708
2.73509
2.69785
2.64337
2.57971
2.49134
2.38763
2.25894
2.78367
2.76548
2.74659
2.71565
2.67944
2.62778
2.56737
2.48445
2.3872
2.26794
2.76391
2.74632
2.72688
2.69677
2.66193
2.61332
2.55624
2.47873
2.3876
2.27632
2.75482
2.73227
2.71071
2.68071
2.64664
2.60003
2.54537
2.47259
2.38699
2.28288
2.73453
2.71117
2.69105
2.66279
2.63067
2.58707
2.53561
2.46781
2.38726
2.28895
2.71311
2.6914
2.67311
2.6468
2.61664
2.5753
2.52655
2.46289
2.38696
2.29467
2.6933
2.67423
2.65726
2.63241
2.60365
2.56483
2.51904
2.45934
2.38693
2.29901
1.00614
1.01985
1.03661
1.05689
1.08176
1.13078
1.24956
1.45199
2.48968
3.04883
1.00614
1.01985
1.03661
1.05689
1.08175
1.1308
1.24948
1.45178
2.48697
3.0359
1.00614
1.01985
1.03661
1.0569
1.08175
1.13085
1.24934
1.45139
2.48296
3.01687
1.00614
1.01985
1.03661
1.0569
1.08173
1.13092
1.24913
1.45081
2.47729
2.99391
1.00614
1.01985
1.03661
1.05691
1.08172
1.13102
1.24884
1.44997
2.47011
2.96994
1.00614
1.01985
1.03661
1.05691
1.08169
1.13113
1.2485
1.44881
2.46147
2.94566
1.00614
1.01985
1.03661
1.05692
1.08167
1.13126
1.24816
1.44731
2.45143
2.92181
1.00614
1.01986
1.03661
1.05693
1.08165
1.1314
1.2479
1.44541
2.44018
2.89884
1.00614
1.01986
1.0366
1.05694
1.08163
1.13154
1.24775
1.4431
2.42765
2.87605
1.00614
1.01986
1.0366
1.05695
1.0816
1.13168
1.24776
1.44042
2.41443
2.8546
1.00614
1.01986
1.0366
1.05695
1.08158
1.1318
1.24792
1.43736
2.40066
2.83482
1.00614
1.01986
1.0366
1.05696
1.08156
1.13192
1.24822
1.43397
2.38635
2.81565
1.00614
1.01986
1.0366
1.05697
1.08155
1.13201
1.24865
1.43022
2.37156
2.79681
1.00614
1.01986
1.0366
1.05697
1.08153
1.13209
1.24918
1.42599
2.35643
2.77815
1.00614
1.01986
1.0366
1.05698
1.08152
1.13216
1.24977
1.42133
2.34118
2.75997
1.00614
1.01986
1.03659
1.05698
1.08151
1.13221
1.25042
1.41639
2.32618
2.74333
1.00614
1.01986
1.03659
1.05699
1.08149
1.13224
1.2511
1.41119
2.31157
2.72694
1.00614
1.01986
1.03659
1.05699
1.08148
1.13228
1.2518
1.40576
2.29713
2.71351
1.00614
1.01986
1.03659
1.05699
1.08147
1.1323
1.25251
1.40019
2.28289
2.70239
1.00614
1.01986
1.03659
1.05699
1.08146
1.13233
1.25325
1.39464
2.26862
2.69186
1.00614
1.01986
1.03659
1.05699
1.08146
1.13233
1.25325
1.39464
2.26862
2.69186
1.00614
1.01986
1.03659
1.05699
1.08147
1.1323
1.25251
1.40019
2.28289
2.70239
1.00614
1.01986
1.03659
1.05699
1.08148
1.13228
1.2518
1.40576
2.29713
2.7135
1.00614
1.01986
1.03659
1.05699
1.08149
1.13224
1.2511
1.41119
2.31157
2.72694
1.00614
1.01986
1.03659
1.05698
1.08151
1.13221
1.25042
1.41639
2.32618
2.74333
1.00614
1.01986
1.0366
1.05698
1.08152
1.13216
1.24977
1.42133
2.34118
2.75996
1.00614
1.01986
1.0366
1.05697
1.08153
1.13209
1.24918
1.42599
2.35643
2.77815
1.00614
1.01986
1.0366
1.05697
1.08155
1.13201
1.24865
1.43022
2.37156
2.79681
1.00614
1.01986
1.0366
1.05696
1.08156
1.13192
1.24822
1.43397
2.38635
2.81565
1.00614
1.01986
1.0366
1.05695
1.08158
1.1318
1.24792
1.43736
2.40066
2.83482
1.00614
1.01986
1.0366
1.05695
1.0816
1.13168
1.24776
1.44042
2.41443
2.8546
1.00614
1.01986
1.0366
1.05694
1.08163
1.13154
1.24775
1.4431
2.42765
2.87605
1.00614
1.01986
1.03661
1.05693
1.08165
1.1314
1.2479
1.44541
2.44018
2.89884
1.00614
1.01985
1.03661
1.05692
1.08167
1.13126
1.24816
1.44731
2.45143
2.92181
1.00614
1.01985
1.03661
1.05691
1.08169
1.13113
1.2485
1.44881
2.46147
2.94566
1.00614
1.01985
1.03661
1.05691
1.08172
1.13102
1.24884
1.44997
2.47011
2.96994
1.00614
1.01985
1.03661
1.0569
1.08173
1.13092
1.24913
1.45082
2.47729
2.99391
1.00614
1.01985
1.03661
1.0569
1.08175
1.13085
1.24934
1.45139
2.48296
3.01687
1.00614
1.01985
1.03661
1.05689
1.08175
1.1308
1.24948
1.45178
2.48697
3.0359
1.00614
1.01985
1.03661
1.05689
1.08176
1.13078
1.24956
1.45199
2.48968
3.04883
2.6933
2.67422
2.65725
2.6324
2.60365
2.56483
2.51904
2.45935
2.38694
2.29902
2.71311
2.6914
2.67311
2.6468
2.61664
2.5753
2.52656
2.4629
2.38698
2.29468
2.73452
2.71117
2.69105
2.66279
2.63067
2.58707
2.53561
2.46782
2.38728
2.28896
2.75482
2.73227
2.71071
2.68071
2.64664
2.60003
2.54538
2.4726
2.387
2.28288
2.76391
2.74632
2.72688
2.69677
2.66193
2.61332
2.55625
2.47875
2.38761
2.27633
2.78367
2.76548
2.74659
2.71565
2.67945
2.62778
2.56738
2.48446
2.38721
2.26795
2.8072
2.78653
2.76708
2.73509
2.69785
2.64338
2.57971
2.49135
2.38764
2.25895
2.83539
2.81157
2.7904
2.75631
2.7173
2.65975
2.5927
2.49873
2.38784
2.24871
2.86773
2.84071
2.81711
2.78015
2.73891
2.67806
2.60745
2.5079
2.38965
2.23841
2.90341
2.8745
2.84873
2.8084
2.76459
2.69999
2.62516
2.51946
2.39292
2.22803
2.93935
2.91154
2.88605
2.8423
2.79505
2.72605
2.64637
2.53418
2.39913
2.21845
2.98242
2.95171
2.92588
2.87958
2.82944
2.7563
2.67145
2.55289
2.4081
2.20963
3.03485
2.99737
2.96913
2.91939
2.86657
2.78986
2.6999
2.57541
2.42045
2.20357
3.09598
3.05019
3.01866
2.96405
2.90749
2.82725
2.73208
2.60215
2.43696
2.20158
3.16408
3.10713
3.0705
3.00976
2.94866
2.8657
2.76614
2.63208
2.45727
2.20494
3.24214
3.17207
3.12956
3.06141
2.99338
2.90664
2.80284
2.66576
2.48192
2.21935
3.32692
3.23635
3.1833
3.10865
3.03616
2.94792
2.84132
2.70204
2.5102
2.24411
3.42731
3.30594
3.24169
3.15976
3.0797
2.98965
2.88202
2.74334
2.54648
2.28079
3.50603
3.33989
3.26389
3.1783
3.09223
2.99767
2.88818
2.75212
2.55654
2.28709
3.74485
3.56904
3.44978
3.33258
3.2179
3.10532
2.98461
2.85009
2.65776
2.44949
2.08822
1.76266
1.47894
1.25196
1.0708
0.903534
0.825807
0.870389
1.12812
1.19293
2.07213
1.7338
1.44588
1.22114
1.04203
0.882733
0.824058
0.897524
1.1602
1.20372
2.05454
1.70263
1.41117
1.18912
1.01252
0.86538
0.822539
0.927047
1.18773
1.21319
2.03494
1.66872
1.37431
1.15678
0.981612
0.851558
0.821909
0.960379
1.21101
1.22224
2.01318
1.63231
1.3356
1.12226
0.954086
0.839782
0.824513
0.999363
1.23093
1.23037
1.98919
1.59352
1.29485
1.08897
0.926214
0.828253
0.832727
1.04379
1.24778
1.23692
1.96271
1.55224
1.2535
1.05379
0.896057
0.821467
0.847496
1.08871
1.26162
1.24234
1.93328
1.50854
1.21125
1.01572
0.871384
0.8183
0.871512
1.1296
1.27292
1.24957
1.90038
1.46084
1.16632
0.979564
0.851273
0.818793
0.902632
1.16641
1.28268
1.25875
1.86289
1.4084
1.1212
0.947041
0.831207
0.821373
0.938229
1.19944
1.29064
1.2672
1.8199
1.35094
1.07728
0.912427
0.816378
0.82325
0.979277
1.2276
1.29664
1.27171
1.77022
1.29112
1.03114
0.87665
0.810441
0.829582
1.02332
1.24833
1.30114
1.27414
1.7157
1.22484
0.982618
0.850111
0.808185
0.843919
1.06686
1.26303
1.3041
1.28042
1.65249
1.15327
0.939517
0.82963
0.809222
0.8656
1.10897
1.2763
1.30823
1.28846
1.5784
1.07981
0.902409
0.808289
0.809721
0.892788
1.14894
1.29426
1.31475
1.29605
1.49225
1.00897
0.865535
0.790586
0.807287
0.921464
1.18361
1.31521
1.32348
1.29923
1.38861
0.935673
0.832857
0.779835
0.812083
0.952585
1.2083
1.32361
1.32796
1.29783
1.26963
0.866908
0.809527
0.773636
0.826399
0.984316
1.22392
1.32356
1.32833
1.29994
1.12372
0.819612
0.788979
0.771842
0.850655
1.0175
1.23574
1.32143
1.32733
1.30674
0.973313
0.792074
0.762288
0.774355
0.876759
1.05089
1.2523
1.33237
1.33094
1.31761
2.25892
2.11537
1.95091
1.77108
1.57489
1.37011
1.1757
1.00504
0.780949
0.61831
2.2596
2.11535
1.9482
1.76851
1.5727
1.36836
1.1743
1.00296
0.780304
0.62256
2.2587
2.11528
1.9459
1.76426
1.56895
1.36528
1.17172
0.999251
0.779728
0.627692
2.25707
2.11349
1.94196
1.75875
1.56395
1.36103
1.1682
0.994148
0.779451
0.636188
2.25454
2.11026
1.93712
1.75268
1.55748
1.35531
1.1633
0.987271
0.779589
0.646354
2.25186
2.10595
1.93113
1.74448
1.54912
1.34777
1.15678
0.978487
0.779297
0.658618
2.24918
2.10026
1.92358
1.73432
1.53824
1.33778
1.14813
0.967868
0.778952
0.673143
2.24609
2.0926
1.91389
1.72134
1.52404
1.32466
1.13668
0.954577
0.776886
0.690686
2.24269
2.08417
1.90177
1.70547
1.50607
1.3081
1.12205
0.939047
0.772946
0.712671
2.23951
2.07431
1.88687
1.68611
1.48483
1.28863
1.1044
0.92091
0.768884
0.738927
2.2362
2.0629
1.86922
1.66405
1.46084
1.26615
1.0832
0.900711
0.75821
0.768888
2.23273
2.05069
1.84952
1.63961
1.43447
1.24158
1.05895
0.879304
0.751112
0.806552
2.2288
2.03651
1.82797
1.61219
1.40615
1.21465
1.0314
0.858887
0.745783
0.84863
2.22288
2.01889
1.80107
1.58124
1.37463
1.18571
1.00043
0.840158
0.7449
0.897105
2.21323
1.99635
1.76948
1.54599
1.34031
1.15374
0.966926
0.826814
0.751622
0.951986
2.19957
1.96867
1.73278
1.50558
1.30248
1.11905
0.931253
0.818037
0.775094
1.0088
2.18136
1.9358
1.69063
1.46064
1.26096
1.08012
0.895922
0.811599
0.820272
1.06433
2.16116
1.89664
1.64255
1.41087
1.21539
1.03684
0.866534
0.810869
0.886758
1.11193
2.13789
1.85474
1.5883
1.35605
1.16648
0.989131
0.843246
0.81727
0.973173
1.14713
2.11062
1.80294
1.52732
1.29777
1.11324
0.93973
0.83107
0.840138
1.06609
1.17409
2.11061
1.80293
1.52732
1.29781
1.11328
0.939721
0.831076
0.840085
1.06588
1.17402
2.13788
1.85473
1.58831
1.35606
1.16651
0.989089
0.84328
0.81732
0.97278
1.14719
2.16115
1.89664
1.64254
1.41087
1.21538
1.0368
0.8665
0.810904
0.88686
1.11204
2.18136
1.9358
1.69061
1.46063
1.26096
1.08009
0.895844
0.811625
0.820462
1.0644
2.19957
1.96867
1.73277
1.50557
1.30248
1.11901
0.93122
0.818081
0.775216
1.0088
2.21323
1.99635
1.76948
1.54599
1.34029
1.1537
0.966881
0.826818
0.75164
0.951949
2.22288
2.01888
1.80106
1.58124
1.37462
1.18569
1.0004
0.840129
0.744905
0.89708
2.2288
2.03651
1.82798
1.61219
1.40613
1.21464
1.0314
0.858859
0.745766
0.848601
2.23273
2.05069
1.84953
1.63961
1.43447
1.24159
1.05894
0.87927
0.75108
0.806499
2.23621
2.06291
1.86922
1.66405
1.46085
1.26616
1.08321
0.900698
0.758176
0.768829
2.23952
2.07432
1.88687
1.68611
1.48484
1.28864
1.10441
0.920911
0.768842
0.738883
2.2427
2.08417
1.90178
1.70548
1.50608
1.30811
1.12206
0.939052
0.772952
0.712651
2.2461
2.09261
1.9139
1.72135
1.52404
1.32466
1.13669
0.954585
0.776901
0.690679
2.24918
2.10026
1.92359
1.73433
1.53825
1.33779
1.14813
0.967878
0.778969
0.673142
2.25186
2.10595
1.93114
1.74449
1.54913
1.34778
1.15679
0.9785
0.779316
0.658619
2.25454
2.11027
1.93713
1.75269
1.55749
1.35532
1.16331
0.987287
0.779613
0.646357
2.25707
2.1135
1.94197
1.75876
1.56396
1.36105
1.16821
0.994167
0.779477
0.63619
2.2587
2.11529
1.94591
1.76427
1.56896
1.3653
1.17174
0.999272
0.779754
0.627694
2.2596
2.11536
1.94821
1.76852
1.57271
1.36838
1.17432
1.00298
0.78033
0.62256
2.25892
2.11537
1.95092
1.7711
1.57491
1.37013
1.17572
1.00507
0.780976
0.618311
2.66862
2.65356
2.63808
2.61394
2.58623
2.55014
2.50756
2.45277
2.38607
2.30669
2.64505
2.63054
2.61524
2.5928
2.56715
2.53363
2.49467
2.44515
2.38572
2.31697
2.62486
2.60863
2.59349
2.57299
2.54982
2.51929
2.48435
2.44028
2.38669
2.32514
2.60283
2.5878
2.57474
2.55667
2.53622
2.50866
2.47623
2.43627
2.38772
2.33208
2.58124
2.56753
2.55624
2.54053
2.52241
2.4984
2.46873
2.43268
2.38866
2.33853
2.56473
2.55061
2.53988
2.52547
2.50908
2.488
2.46138
2.42895
2.38781
2.34169
2.55516
2.53905
2.52702
2.51211
2.49592
2.47628
2.45214
2.42296
2.38557
2.34279
2.55132
2.53366
2.52002
2.50355
2.48588
2.46561
2.442
2.41461
2.38038
2.34109
2.5514
2.53298
2.51829
2.50046
2.48121
2.45961
2.43517
2.4077
2.375
2.33837
2.55346
2.53455
2.51926
2.50068
2.4805
2.45788
2.43246
2.40418
2.37181
2.33652
2.55627
2.53716
2.52161
2.50279
2.48201
2.45859
2.43238
2.40324
2.37069
2.33583
2.5591
2.53993
2.52427
2.50548
2.48453
2.46076
2.4341
2.40427
2.37182
2.33688
2.56136
2.54224
2.5265
2.50776
2.48684
2.46314
2.43649
2.40668
2.37429
2.33859
2.56255
2.54355
2.5278
2.50901
2.48819
2.46475
2.43851
2.4088
2.3768
2.34056
2.56279
2.54389
2.52817
2.50934
2.48866
2.4655
2.43949
2.41048
2.37878
2.34236
2.56241
2.54347
2.52778
2.50899
2.48851
2.46549
2.43975
2.41171
2.3788
2.34277
2.56159
2.5425
2.52692
2.5083
2.48808
2.4651
2.44043
2.411
2.37838
2.34264
2.56073
2.54122
2.52577
2.50732
2.48704
2.46553
2.44008
2.41076
2.3785
2.34257
2.55985
2.53982
2.52451
2.50612
2.48635
2.4657
2.4395
2.41135
2.37959
2.34329
2.55996
2.53961
2.52425
2.5058
2.48652
2.46618
2.43976
2.41211
2.38069
2.34361
1.00614
1.01986
1.03659
1.057
1.08145
1.13235
1.25417
1.38808
2.25081
2.6789
1.00614
1.01986
1.03659
1.057
1.08144
1.13239
1.25527
1.38099
2.22863
2.66664
1.00614
1.01986
1.03659
1.057
1.08142
1.13242
1.25634
1.37501
2.20512
2.65622
1.00614
1.01986
1.03659
1.05701
1.08141
1.13242
1.25735
1.37061
2.18118
2.6474
1.00614
1.01986
1.03659
1.05701
1.0814
1.13239
1.25835
1.36738
2.15816
2.64075
1.00614
1.01986
1.03658
1.05701
1.08139
1.1323
1.25938
1.36502
2.13673
2.63545
1.00614
1.01986
1.03658
1.05702
1.08139
1.13213
1.2605
1.36337
2.11646
2.63175
1.00614
1.01986
1.03658
1.05702
1.0814
1.13184
1.26175
1.36306
2.09676
2.6295
1.00614
1.01986
1.03658
1.05702
1.08141
1.13146
1.26322
1.36319
2.07732
2.62842
1.00614
1.01986
1.03658
1.05702
1.08143
1.13111
1.26478
1.36367
2.05824
2.62767
1.00614
1.01986
1.03657
1.05702
1.08144
1.13088
1.26604
1.36416
2.04011
2.6268
1.00614
1.01986
1.03657
1.05702
1.08144
1.13078
1.26679
1.36434
2.02386
2.62576
1.00614
1.01986
1.03657
1.05702
1.08144
1.13073
1.26723
1.3644
2.01008
2.62442
1.00614
1.01986
1.03657
1.05702
1.08144
1.1307
1.26758
1.3644
1.99875
2.62263
1.00614
1.01987
1.03656
1.05703
1.08144
1.13066
1.26791
1.36432
1.98968
2.62071
1.00614
1.01987
1.03656
1.05703
1.08144
1.13063
1.26828
1.36408
1.98286
2.61897
1.00614
1.01987
1.03656
1.05703
1.08143
1.1306
1.26866
1.3636
1.97791
2.61739
1.00614
1.01987
1.03656
1.05703
1.08143
1.13058
1.26905
1.36285
1.97557
2.6164
1.00614
1.01987
1.03656
1.05703
1.08143
1.13057
1.26936
1.36218
1.97411
2.61585
1.00614
1.01987
1.03656
1.05703
1.08143
1.13055
1.2696
1.36183
1.9735
2.61621
1.00614
1.01987
1.03656
1.05703
1.08143
1.13055
1.2696
1.36183
1.9735
2.61621
1.00614
1.01987
1.03656
1.05703
1.08143
1.13057
1.26936
1.36218
1.97411
2.61585
1.00614
1.01987
1.03656
1.05703
1.08143
1.13058
1.26905
1.36285
1.97557
2.6164
1.00614
1.01987
1.03656
1.05703
1.08143
1.1306
1.26866
1.3636
1.97791
2.61738
1.00614
1.01987
1.03656
1.05703
1.08144
1.13063
1.26828
1.36408
1.98286
2.61897
1.00614
1.01987
1.03656
1.05703
1.08144
1.13066
1.26791
1.36432
1.98968
2.62071
1.00614
1.01986
1.03657
1.05702
1.08144
1.1307
1.26758
1.3644
1.99875
2.62263
1.00614
1.01986
1.03657
1.05702
1.08144
1.13073
1.26723
1.3644
2.01008
2.62442
1.00614
1.01986
1.03657
1.05702
1.08144
1.13078
1.26679
1.36434
2.02386
2.62576
1.00614
1.01986
1.03657
1.05702
1.08144
1.13088
1.26604
1.36416
2.04011
2.6268
1.00614
1.01986
1.03658
1.05702
1.08143
1.13111
1.26478
1.36367
2.05824
2.62767
1.00614
1.01986
1.03658
1.05702
1.08141
1.13146
1.26322
1.36319
2.07732
2.62842
1.00614
1.01986
1.03658
1.05702
1.0814
1.13184
1.26175
1.36306
2.09676
2.6295
1.00614
1.01986
1.03658
1.05702
1.08139
1.13212
1.2605
1.36337
2.11646
2.63175
1.00614
1.01986
1.03658
1.05701
1.08139
1.1323
1.25938
1.36502
2.13673
2.63545
1.00614
1.01986
1.03659
1.05701
1.0814
1.13239
1.25835
1.36738
2.15816
2.64075
1.00614
1.01986
1.03659
1.05701
1.08141
1.13242
1.25735
1.37061
2.18118
2.6474
1.00614
1.01986
1.03659
1.057
1.08142
1.13242
1.25634
1.37501
2.20512
2.65622
1.00614
1.01986
1.03659
1.057
1.08144
1.13239
1.25527
1.38099
2.22863
2.66664
1.00614
1.01986
1.03659
1.057
1.08145
1.13235
1.25417
1.38808
2.25081
2.6789
2.55996
2.53961
2.52426
2.5058
2.48652
2.46618
2.43976
2.41211
2.38069
2.34361
2.55985
2.53983
2.52451
2.50612
2.48635
2.4657
2.4395
2.41135
2.37959
2.34329
2.56073
2.54122
2.52577
2.50732
2.48704
2.46553
2.44008
2.41076
2.3785
2.34257
2.56159
2.5425
2.52692
2.50829
2.48808
2.4651
2.44043
2.411
2.37838
2.34264
2.56241
2.54347
2.52778
2.50899
2.48851
2.46549
2.43975
2.41171
2.3788
2.34277
2.56279
2.54389
2.52816
2.50934
2.48866
2.4655
2.43949
2.41048
2.37878
2.34236
2.56254
2.54355
2.5278
2.50901
2.48819
2.46475
2.43851
2.4088
2.37679
2.34055
2.56135
2.54224
2.5265
2.50776
2.48684
2.46314
2.43649
2.40668
2.37429
2.33858
2.5591
2.53993
2.52427
2.50548
2.48453
2.46075
2.4341
2.40427
2.37182
2.33688
2.55627
2.53716
2.52161
2.50279
2.48201
2.45858
2.43237
2.40324
2.37068
2.33583
2.55346
2.53455
2.51926
2.50068
2.4805
2.45787
2.43246
2.40417
2.3718
2.33652
2.5514
2.53298
2.51829
2.50046
2.48121
2.45961
2.43516
2.40769
2.375
2.33837
2.55132
2.53366
2.52002
2.50355
2.48587
2.46561
2.44199
2.4146
2.38037
2.34109
2.55516
2.53905
2.52702
2.5121
2.49591
2.47627
2.45214
2.42296
2.38557
2.34278
2.56473
2.55061
2.53988
2.52546
2.50908
2.48799
2.46137
2.42894
2.38781
2.34168
2.58124
2.56753
2.55623
2.54052
2.52241
2.4984
2.46873
2.43268
2.38865
2.33853
2.60283
2.5878
2.57474
2.55667
2.53621
2.50865
2.47622
2.43626
2.38772
2.33207
2.62486
2.60862
2.59348
2.57298
2.54982
2.51929
2.48435
2.44027
2.38669
2.32514
2.64505
2.63054
2.61523
2.59279
2.56715
2.53363
2.49467
2.44515
2.38573
2.31698
2.66862
2.65356
2.63808
2.61393
2.58623
2.55014
2.50756
2.45277
2.38607
2.3067
)
;

boundaryField
{
    inlet
    {
        type            fixedValue;
        value           uniform 1;
    }
    outlet
    {
        type            zeroGradient;
    }
    triangle
    {
        type            zeroGradient;
    }
    top
    {
        type            symmetryPlane;
    }
    bottom
    {
        type            symmetryPlane;
    }
    defaultFaces
    {
        type            empty;
    }
}


// ************************************************************************* //
