/*--------------------------------*- C++ -*----------------------------------*\
  =========                 |
  \\      /  F ield         | OpenFOAM: The Open Source CFD Toolbox
   \\    /   O peration     | Website:  https://openfoam.org
    \\  /    A nd           | Version:  8
     \\/     M anipulation  |
\*---------------------------------------------------------------------------*/
FoamFile
{
    version     2.0;
    format      ascii;
    class       volScalarField;
    location    "1.8";
    object      rho;
}
// * * * * * * * * * * * * * * * * * * * * * * * * * * * * * * * * * * * * * //

dimensions      [1 -3 0 0 0 0 0];

internalField   nonuniform List<scalar> 
2600
(
0.956059
0.942545
0.982648
1.09105
1.24356
1.43902
1.6368
1.718
1.70169
1.6796
0.933205
0.893821
0.932911
1.06212
1.23013
1.43837
1.63804
1.71728
1.70221
1.66306
0.925388
0.875524
0.897558
1.03307
1.21011
1.4167
1.62465
1.69597
1.68793
1.63454
0.922773
0.866157
0.873458
0.997787
1.18822
1.38693
1.57467
1.64027
1.63872
1.60918
0.921003
0.857655
0.854489
0.95905
1.14304
1.34718
1.54164
1.61493
1.58897
1.56555
0.923853
0.853824
0.843361
0.928708
1.09046
1.28487
1.49544
1.5715
1.53929
1.51308
0.925957
0.850941
0.841898
0.91554
1.05962
1.22998
1.41471
1.48245
1.48716
1.47822
0.928238
0.852447
0.842452
0.909444
1.03839
1.19868
1.36643
1.43117
1.43695
1.44361
0.929504
0.852699
0.837798
0.905558
1.03541
1.19242
1.35088
1.39544
1.41893
1.42404
0.930846
0.85239
0.837311
0.906689
1.0393
1.1893
1.33539
1.38134
1.41973
1.43236
0.931038
0.851753
0.834746
0.906574
1.03924
1.18822
1.33044
1.4076
1.41056
1.43562
0.929926
0.852319
0.835906
0.905524
1.03578
1.1911
1.34162
1.42209
1.42581
1.44842
0.928657
0.852764
0.84282
0.909269
1.0383
1.19773
1.36776
1.4323
1.44205
1.45062
0.926146
0.851406
0.842727
0.916071
1.06016
1.22977
1.42463
1.48247
1.46653
1.46384
0.923914
0.853695
0.843399
0.929083
1.09087
1.28498
1.49769
1.55665
1.5366
1.50681
0.920646
0.856893
0.854063
0.95876
1.14294
1.34706
1.53245
1.60996
1.61501
1.56347
0.921961
0.865337
0.872661
0.99732
1.18957
1.38535
1.57457
1.65362
1.64197
1.61734
0.924511
0.875027
0.897134
1.03398
1.21128
1.41486
1.63077
1.70405
1.66352
1.64045
0.932809
0.893877
0.933619
1.0627
1.23024
1.43841
1.63976
1.71338
1.69666
1.65727
0.956789
0.943092
0.983106
1.09081
1.2444
1.44011
1.63429
1.70982
1.70788
1.67585
1.16852
1.01503
1.04246
1.11528
1.24215
1.42792
1.6189
1.69289
1.70528
1.67975
1.39194
1.09811
1.11022
1.13306
1.22651
1.40057
1.61154
1.68878
1.69265
1.67621
1.57977
1.18467
1.15692
1.14515
1.20629
1.37005
1.60334
1.68905
1.6889
1.67132
1.7218
1.28308
1.1961
1.15699
1.19511
1.34038
1.58887
1.6847
1.6913
1.6687
1.83374
1.37719
1.24197
1.17295
1.19341
1.31178
1.56454
1.67526
1.69209
1.66941
1.91881
1.45819
1.28676
1.19394
1.19812
1.28496
1.53329
1.65926
1.68924
1.66959
1.98794
1.5344
1.32689
1.21716
1.19932
1.25884
1.49985
1.64402
1.68362
1.6661
2.04574
1.60534
1.37209
1.23946
1.20047
1.23856
1.46297
1.63257
1.68223
1.66118
2.09561
1.67016
1.42287
1.26928
1.20532
1.22583
1.42259
1.62041
1.68263
1.6574
2.14073
1.72847
1.471
1.30928
1.21461
1.22077
1.37921
1.60325
1.68113
1.65567
2.17899
1.78384
1.51654
1.34745
1.23288
1.2192
1.33906
1.57978
1.67643
1.65333
2.21082
1.83327
1.56256
1.38252
1.255
1.21714
1.30324
1.55049
1.66895
1.64673
2.23693
1.87665
1.60706
1.42041
1.27593
1.21717
1.27118
1.51516
1.6593
1.63811
2.25873
1.91463
1.64741
1.45898
1.3013
1.22068
1.24518
1.47458
1.64837
1.62964
2.27731
1.94901
1.68543
1.49329
1.33176
1.22791
1.22801
1.4317
1.63548
1.62212
2.29363
1.98027
1.72172
1.52462
1.35907
1.23968
1.2174
1.39105
1.61939
1.61368
2.30801
2.00902
1.75527
1.55634
1.38549
1.25004
1.21437
1.3543
1.59892
1.60324
2.32026
2.03537
1.7865
1.58533
1.41487
1.26276
1.21487
1.32142
1.57356
1.59148
2.33042
2.05905
1.81539
1.6135
1.44252
1.27984
1.21644
1.29165
1.54452
1.57976
2.33969
2.08058
1.84247
1.64037
1.46931
1.30084
1.2185
1.26405
1.51291
1.56835
3.50873
3.38793
3.3031
3.22028
3.13993
3.06108
2.97583
2.88021
2.74216
2.56522
3.35568
3.24043
3.18564
3.12454
3.06318
2.99551
2.91658
2.81788
2.67449
2.46169
3.31487
3.23195
3.18852
3.13142
3.07405
3.00858
2.92978
2.82802
2.68196
2.47833
3.25561
3.19323
3.15779
3.1062
3.05463
2.99064
2.91235
2.80925
2.66521
2.46066
3.20409
3.1548
3.12521
3.07729
3.02897
2.96644
2.89045
2.78868
2.64972
2.44672
3.15475
3.11402
3.08768
3.04412
3.00021
2.94014
2.86715
2.76743
2.63483
2.43949
3.11099
3.07819
3.05559
3.01622
2.9751
2.91636
2.84603
2.74886
2.62314
2.44081
3.07399
3.04764
3.02759
2.99137
2.95217
2.89501
2.8276
2.73371
2.61524
2.44678
3.04787
3.02542
3.00597
2.97101
2.93263
2.87695
2.81236
2.72208
2.61086
2.45584
3.02308
3.00213
2.98241
2.94888
2.91228
2.85917
2.79795
2.71196
2.60775
2.46591
2.99016
2.97026
2.95208
2.92251
2.88952
2.84041
2.78316
2.70213
2.60401
2.47451
2.95537
2.93727
2.92163
2.89585
2.86618
2.82114
2.76795
2.69197
2.60049
2.48166
2.92463
2.90878
2.89517
2.87206
2.84489
2.80327
2.75355
2.68235
2.59717
2.4876
2.89966
2.88592
2.87326
2.85153
2.82587
2.78696
2.74026
2.67386
2.59444
2.49303
2.88015
2.86732
2.85416
2.83263
2.80762
2.77107
2.72732
2.66552
2.59131
2.49745
2.86146
2.84744
2.83358
2.81288
2.78919
2.75534
2.7146
2.65742
2.58837
2.50119
2.83681
2.82406
2.81191
2.79296
2.77075
2.73904
2.70054
2.64746
2.58342
2.50263
2.81951
2.80274
2.78975
2.7718
2.75154
2.72218
2.68601
2.63703
2.57762
2.50256
2.81112
2.79252
2.77773
2.75845
2.73748
2.70824
2.67345
2.62734
2.57146
2.50188
2.80818
2.79137
2.77578
2.75448
2.73086
2.70069
2.66645
2.62226
2.56844
2.50179
1.40614
1.41981
1.43644
1.45645
1.48087
1.52853
1.64179
1.82535
2.67922
3.05682
1.40614
1.41981
1.43644
1.45645
1.48086
1.52855
1.64172
1.82513
2.67693
3.0501
1.40614
1.41981
1.43644
1.45646
1.48086
1.5286
1.6416
1.82471
2.67298
3.04154
1.40614
1.41981
1.43644
1.45646
1.48084
1.52867
1.64142
1.82411
2.66722
3.0306
1.40614
1.41981
1.43644
1.45647
1.48083
1.52875
1.64117
1.82329
2.6601
3.01816
1.40614
1.41981
1.43643
1.45647
1.48081
1.52886
1.64086
1.82222
2.65191
3.00459
1.40614
1.41981
1.43643
1.45648
1.48079
1.52899
1.64054
1.82087
2.6428
2.99026
1.40614
1.41981
1.43643
1.45649
1.48076
1.52912
1.64029
1.81923
2.63278
2.97388
1.40614
1.41981
1.43643
1.4565
1.48074
1.52926
1.64015
1.81727
2.62173
2.95309
1.40614
1.41981
1.43643
1.4565
1.48072
1.5294
1.64014
1.81501
2.61068
2.93063
1.40614
1.41981
1.43642
1.45651
1.4807
1.52952
1.64027
1.81243
2.60049
2.91025
1.40614
1.41981
1.43642
1.45652
1.48068
1.52964
1.64053
1.80955
2.59087
2.8918
1.40614
1.41981
1.43642
1.45653
1.48066
1.52973
1.64091
1.80632
2.58125
2.87554
1.40614
1.41981
1.43642
1.45653
1.48065
1.52982
1.64137
1.80266
2.57123
2.8611
1.40614
1.41981
1.43642
1.45654
1.48063
1.52988
1.6419
1.79858
2.56082
2.84851
1.40614
1.41981
1.43642
1.45654
1.48062
1.52994
1.64248
1.79423
2.55053
2.84003
1.40614
1.41981
1.43642
1.45654
1.48061
1.52998
1.64307
1.78964
2.54074
2.83743
1.40614
1.41981
1.43642
1.45655
1.4806
1.53001
1.64368
1.78483
2.53021
2.83875
1.40614
1.41981
1.43642
1.45655
1.48059
1.53004
1.64429
1.77991
2.51864
2.84018
1.40614
1.41981
1.43642
1.45655
1.48058
1.53007
1.64491
1.77501
2.50609
2.83758
1.40614
1.41981
1.43642
1.45655
1.48058
1.53007
1.64491
1.77501
2.50609
2.83758
1.40614
1.41981
1.43642
1.45655
1.48059
1.53004
1.64429
1.77991
2.51864
2.84018
1.40614
1.41981
1.43642
1.45655
1.4806
1.53001
1.64368
1.78483
2.53021
2.83875
1.40614
1.41981
1.43642
1.45654
1.48061
1.52998
1.64307
1.78964
2.54074
2.83743
1.40614
1.41981
1.43642
1.45654
1.48062
1.52994
1.64248
1.79423
2.55053
2.84003
1.40614
1.41981
1.43642
1.45654
1.48063
1.52988
1.6419
1.79858
2.56082
2.84851
1.40614
1.41981
1.43642
1.45653
1.48065
1.52982
1.64137
1.80266
2.57123
2.8611
1.40614
1.41981
1.43642
1.45653
1.48066
1.52973
1.64091
1.80632
2.58125
2.87554
1.40614
1.41981
1.43642
1.45652
1.48068
1.52964
1.64053
1.80955
2.59087
2.89179
1.40614
1.41981
1.43642
1.45651
1.4807
1.52952
1.64027
1.81243
2.60049
2.91025
1.40614
1.41981
1.43643
1.4565
1.48072
1.5294
1.64014
1.81501
2.61068
2.93063
1.40614
1.41981
1.43643
1.4565
1.48074
1.52926
1.64015
1.81727
2.62173
2.95309
1.40614
1.41981
1.43643
1.45649
1.48076
1.52912
1.64029
1.81923
2.63278
2.97388
1.40614
1.41981
1.43643
1.45648
1.48079
1.52899
1.64054
1.82087
2.6428
2.99026
1.40614
1.41981
1.43643
1.45647
1.48081
1.52886
1.64086
1.82222
2.65191
3.00459
1.40614
1.41981
1.43644
1.45647
1.48083
1.52875
1.64117
1.82329
2.6601
3.01816
1.40614
1.41981
1.43644
1.45646
1.48084
1.52867
1.64142
1.82411
2.66722
3.0306
1.40614
1.41981
1.43644
1.45646
1.48086
1.5286
1.6416
1.82471
2.67298
3.04154
1.40614
1.41981
1.43644
1.45645
1.48086
1.52855
1.64172
1.82513
2.67693
3.0501
1.40614
1.41981
1.43644
1.45645
1.48087
1.52853
1.64179
1.82535
2.67922
3.05682
2.80817
2.79137
2.77577
2.75448
2.73085
2.70069
2.66645
2.62226
2.56845
2.5018
2.81112
2.79251
2.77773
2.75845
2.73748
2.70824
2.67345
2.62734
2.57147
2.50189
2.81951
2.80273
2.78975
2.7718
2.75154
2.72218
2.68601
2.63703
2.57763
2.50256
2.8368
2.82406
2.81191
2.79296
2.77075
2.73904
2.70055
2.64747
2.58342
2.50264
2.86146
2.84744
2.83358
2.81288
2.7892
2.75534
2.71461
2.65742
2.58838
2.50119
2.88015
2.86732
2.85416
2.83263
2.80762
2.77108
2.72732
2.66553
2.59132
2.49745
2.89966
2.88591
2.87326
2.85154
2.82587
2.78696
2.74027
2.67386
2.59444
2.49304
2.92463
2.90878
2.89517
2.87206
2.84489
2.80328
2.75356
2.68235
2.59718
2.48762
2.95537
2.93727
2.92163
2.89585
2.86618
2.82114
2.76795
2.69198
2.6005
2.48167
2.99016
2.97026
2.95208
2.92251
2.88952
2.84041
2.78317
2.70213
2.60402
2.47454
3.02308
3.00213
2.98241
2.94888
2.91229
2.85918
2.79796
2.71197
2.60776
2.46592
3.04787
3.02542
3.00598
2.97101
2.93264
2.87696
2.81237
2.72209
2.61088
2.45583
3.07399
3.04765
3.0276
2.99137
2.95217
2.89502
2.82761
2.73372
2.61526
2.44676
3.11099
3.07819
3.05559
3.01622
2.9751
2.91637
2.84604
2.74887
2.62316
2.44079
3.15475
3.11402
3.08768
3.04413
3.00022
2.94014
2.86716
2.76744
2.63484
2.4395
3.20409
3.1548
3.12521
3.0773
3.02897
2.96644
2.89046
2.78869
2.64972
2.44679
3.25561
3.19323
3.15779
3.1062
3.05463
2.99064
2.91235
2.80926
2.6652
2.46074
3.31487
3.23195
3.18852
3.13143
3.07405
3.00858
2.92979
2.82802
2.68196
2.47837
3.35568
3.24043
3.18564
3.12454
3.06318
2.99551
2.91658
2.81788
2.67449
2.4617
3.50873
3.38793
3.3031
3.22028
3.13993
3.06109
2.97583
2.88022
2.74217
2.5652
2.33969
2.08058
1.84246
1.64035
1.46923
1.30079
1.21846
1.26428
1.5127
1.56857
2.33042
2.05904
1.8154
1.6135
1.44243
1.27981
1.21642
1.29197
1.54469
1.57985
2.32027
2.03535
1.78652
1.58529
1.41483
1.2628
1.21483
1.3218
1.57388
1.59109
2.30802
2.00902
1.75526
1.55634
1.3855
1.25006
1.2143
1.35477
1.59897
1.6026
2.29365
1.98027
1.7217
1.52463
1.35904
1.2396
1.21739
1.39222
1.61929
1.61362
2.27732
1.94901
1.68542
1.49324
1.33164
1.22801
1.22808
1.43384
1.63528
1.62271
2.25873
1.91464
1.64736
1.45889
1.30118
1.22099
1.24544
1.47614
1.64823
1.62978
2.23695
1.87666
1.607
1.4204
1.27579
1.21733
1.2715
1.51472
1.65891
1.63765
2.21086
1.8333
1.56256
1.38251
1.25486
1.21718
1.30374
1.54918
1.66818
1.64641
2.17904
1.7839
1.51662
1.34726
1.23309
1.2192
1.33944
1.5796
1.67561
1.65376
2.14074
1.72854
1.47091
1.3092
1.2147
1.22072
1.37954
1.60482
1.68062
1.65659
2.09552
1.67019
1.42268
1.26963
1.20523
1.22588
1.42173
1.62236
1.68308
1.65676
2.04559
1.60527
1.3722
1.23979
1.19993
1.23852
1.46214
1.63354
1.68302
1.66017
1.98781
1.53431
1.32727
1.21689
1.19871
1.25854
1.49985
1.64322
1.68348
1.66513
1.91883
1.45802
1.28696
1.19362
1.19746
1.28441
1.53481
1.6577
1.68608
1.6699
1.83399
1.37681
1.24195
1.173
1.1929
1.31174
1.56517
1.6766
1.69166
1.67116
1.7222
1.28265
1.19603
1.15719
1.19517
1.34122
1.58732
1.68594
1.69477
1.66867
1.58002
1.1849
1.15681
1.14507
1.20587
1.37062
1.60148
1.68747
1.69474
1.66939
1.39172
1.09883
1.11073
1.13252
1.2251
1.40016
1.61088
1.68578
1.69328
1.67374
1.1681
1.0149
1.04319
1.1151
1.24073
1.42648
1.62213
1.69489
1.69477
1.67971
2.49415
2.36887
2.22346
2.06707
1.90207
1.73048
1.55986
1.39904
1.16897
0.985643
2.49502
2.36907
2.22144
2.06505
1.90021
1.72891
1.55856
1.39701
1.16831
0.990528
2.49537
2.36965
2.22018
2.06188
1.8971
1.72613
1.55615
1.39345
1.16783
0.996498
2.49636
2.36943
2.21805
2.05795
1.89294
1.72222
1.55282
1.38858
1.1678
1.0064
2.49804
2.36875
2.21554
2.05372
1.88749
1.71685
1.54815
1.382
1.16836
1.01828
2.50017
2.36754
2.21208
2.04771
1.88036
1.70976
1.5419
1.37348
1.16867
1.03251
2.50127
2.36456
2.20676
2.03991
1.87121
1.70055
1.53365
1.36305
1.16917
1.04901
2.49971
2.35808
2.1987
2.0298
1.85981
1.68909
1.52297
1.34983
1.16827
1.06833
2.49574
2.34896
2.18771
2.01783
1.84649
1.67566
1.50977
1.33435
1.16558
1.09187
2.48876
2.3365
2.17407
2.00418
1.83228
1.66118
1.49441
1.31644
1.16195
1.11996
2.4782
2.32117
2.15863
1.98981
1.81746
1.64541
1.47637
1.2968
1.14863
1.15304
2.46789
2.30596
2.14252
1.97418
1.80113
1.62834
1.45578
1.27598
1.13968
1.19226
2.46074
2.29177
2.12572
1.95516
1.78179
1.60832
1.43172
1.25599
1.13371
1.23429
2.45505
2.27755
2.10458
1.93088
1.75679
1.58443
1.40328
1.23745
1.133
1.28166
2.44834
2.26091
2.07891
1.90036
1.72609
1.55516
1.37073
1.22424
1.14038
1.33497
2.43862
2.2401
2.04825
1.86363
1.68988
1.52105
1.33426
1.21506
1.16572
1.39036
2.42268
2.21427
2.01304
1.82263
1.64927
1.48138
1.29678
1.20692
1.21404
1.44537
2.40209
2.18302
1.97374
1.77819
1.60513
1.4369
1.26467
1.20485
1.28225
1.49324
2.37872
2.15035
1.93031
1.73042
1.55873
1.38806
1.23881
1.21046
1.36707
1.52702
2.35552
2.11079
1.88159
1.68015
1.50895
1.33777
1.2247
1.23346
1.45468
1.55129
2.35551
2.11079
1.88159
1.68019
1.509
1.33776
1.22471
1.2334
1.4545
1.55124
2.37871
2.15034
1.93032
1.73043
1.55875
1.38802
1.23884
1.21051
1.36669
1.52709
2.40208
2.18302
1.97373
1.77819
1.60511
1.43686
1.26464
1.20488
1.28235
1.49337
2.42268
2.21426
2.01302
1.82261
1.64927
1.48135
1.2967
1.20693
1.21424
1.44546
2.43862
2.2401
2.04824
1.86362
1.68988
1.52101
1.33423
1.2151
1.16585
1.39036
2.44835
2.26091
2.0789
1.90035
1.72608
1.55513
1.37069
1.22425
1.1404
1.33493
2.45506
2.27755
2.10458
1.93088
1.75678
1.58442
1.40325
1.23742
1.13301
1.28164
2.46075
2.29177
2.12572
1.95516
1.78178
1.60831
1.43172
1.25596
1.13369
1.23426
2.46789
2.30596
2.14252
1.97418
1.80113
1.62835
1.45577
1.27594
1.13964
1.19221
2.47821
2.32117
2.15864
1.98981
1.81747
1.64543
1.47638
1.29678
1.1486
1.15298
2.48877
2.33651
2.17408
2.00419
1.83229
1.66119
1.49442
1.31644
1.1619
1.11991
2.49574
2.34896
2.18772
2.01783
1.8465
1.67567
1.50977
1.33436
1.16558
1.09184
2.49971
2.35809
2.19871
2.02981
1.85981
1.68909
1.52298
1.34984
1.16828
1.06832
2.50128
2.36457
2.20677
2.03992
1.87122
1.70056
1.53365
1.36306
1.16919
1.04901
2.50017
2.36754
2.21208
2.04771
1.88037
1.70976
1.54191
1.3735
1.1687
1.03251
2.49804
2.36876
2.21554
2.05373
1.8875
1.71686
1.54817
1.38201
1.16838
1.01829
2.49636
2.36943
2.21805
2.05796
1.89295
1.72223
1.55284
1.3886
1.16783
1.0064
2.49537
2.36965
2.22019
2.06189
1.89711
1.72614
1.55616
1.39347
1.16786
0.996499
2.49502
2.36908
2.22145
2.06506
1.90023
1.72893
1.55857
1.39703
1.16834
0.990527
2.49415
2.36887
2.22347
2.06708
1.90208
1.7305
1.55988
1.39906
1.169
0.985645
2.80403
2.79072
2.77638
2.75488
2.73034
2.69974
2.66496
2.62178
2.57015
2.50827
2.79588
2.78402
2.77108
2.75222
2.73037
2.70206
2.66942
2.62857
2.5798
2.52329
2.77966
2.76789
2.75692
2.74165
2.72395
2.70003
2.67226
2.63686
2.59303
2.54087
2.7616
2.75069
2.74154
2.72868
2.71401
2.69385
2.66965
2.63918
2.60122
2.55478
2.74459
2.7345
2.72648
2.71524
2.70231
2.68497
2.66336
2.63692
2.60379
2.56273
2.73183
2.72137
2.71366
2.70321
2.69134
2.67596
2.6566
2.63326
2.60299
2.56543
2.7248
2.71284
2.70414
2.69328
2.68149
2.66708
2.64951
2.62868
2.60138
2.56624
2.72266
2.70958
2.69977
2.68787
2.67507
2.6603
2.64322
2.62387
2.59908
2.5663
2.7241
2.71051
2.70003
2.68727
2.67348
2.65793
2.64044
2.62129
2.59811
2.56799
2.72766
2.71379
2.70297
2.68978
2.67549
2.65942
2.64145
2.62195
2.59967
2.57247
2.73204
2.71814
2.70734
2.69419
2.67969
2.66326
2.64495
2.62516
2.60346
2.57808
2.73632
2.72248
2.71178
2.69888
2.68449
2.66808
2.64983
2.63001
2.60869
2.58296
2.73998
2.72629
2.71567
2.70298
2.6888
2.67274
2.65498
2.63557
2.61374
2.58587
2.74281
2.72929
2.71878
2.70619
2.69226
2.67674
2.65974
2.6403
2.61732
2.58701
2.74504
2.73167
2.72129
2.70879
2.6952
2.68029
2.66365
2.64372
2.61887
2.58576
2.74696
2.73363
2.7234
2.71109
2.69796
2.68347
2.66656
2.64548
2.61672
2.58127
2.74861
2.73522
2.72521
2.71325
2.70066
2.68619
2.66875
2.6439
2.61202
2.57557
2.7499
2.73624
2.72644
2.71486
2.70254
2.68881
2.66882
2.64061
2.60716
2.57086
2.75038
2.73634
2.72674
2.71544
2.70377
2.69022
2.66747
2.63795
2.6045
2.56869
2.75083
2.73655
2.72696
2.71569
2.70452
2.69101
2.66684
2.63723
2.6041
2.56804
1.40614
1.41981
1.43642
1.45655
1.48056
1.53011
1.64569
1.76923
2.48994
2.82684
1.40614
1.41981
1.43642
1.45656
1.48055
1.53015
1.64663
1.76296
2.47026
2.81326
1.40614
1.41981
1.43641
1.45656
1.48054
1.53018
1.64756
1.75764
2.45038
2.80268
1.40614
1.41981
1.43641
1.45657
1.48052
1.53018
1.64848
1.7536
2.43077
2.7948
1.40614
1.41981
1.43641
1.45657
1.48051
1.53015
1.6494
1.75059
2.41232
2.78931
1.40614
1.41981
1.43641
1.45657
1.4805
1.53007
1.65034
1.74839
2.39538
2.78512
1.40614
1.41981
1.43641
1.45658
1.4805
1.5299
1.65137
1.74685
2.37931
2.78253
1.40614
1.41981
1.4364
1.45658
1.48051
1.52962
1.65253
1.74654
2.3634
2.78157
1.40614
1.41981
1.4364
1.45657
1.48052
1.52925
1.65389
1.74665
2.34736
2.78209
1.40614
1.41981
1.4364
1.45657
1.48054
1.52891
1.65534
1.74708
2.33139
2.78342
1.40614
1.41981
1.4364
1.45658
1.48055
1.5287
1.65651
1.74753
2.3162
2.7849
1.40614
1.41982
1.4364
1.45658
1.48055
1.5286
1.65721
1.74768
2.30269
2.78613
1.40614
1.41982
1.43639
1.45658
1.48055
1.52855
1.65761
1.74773
2.29135
2.78697
1.40614
1.41982
1.43639
1.45658
1.48055
1.52852
1.65793
1.74773
2.28212
2.78747
1.40614
1.41982
1.43639
1.45659
1.48055
1.52849
1.65824
1.74765
2.2748
2.78799
1.40614
1.41982
1.43639
1.45659
1.48055
1.52845
1.65858
1.74743
2.26932
2.78881
1.40614
1.41982
1.43638
1.45659
1.48054
1.52843
1.65894
1.74698
2.26534
2.78981
1.40614
1.41982
1.43638
1.45659
1.48054
1.5284
1.6593
1.74627
2.26346
2.79095
1.40614
1.41982
1.43638
1.45659
1.48054
1.52839
1.65959
1.74565
2.26228
2.79165
1.40614
1.41982
1.43638
1.45659
1.48054
1.52838
1.65981
1.74533
2.26177
2.79228
1.40614
1.41982
1.43638
1.45659
1.48054
1.52838
1.65981
1.74533
2.26177
2.79228
1.40614
1.41982
1.43638
1.45659
1.48054
1.52839
1.65959
1.74565
2.26228
2.79165
1.40614
1.41982
1.43638
1.45659
1.48054
1.5284
1.6593
1.74627
2.26346
2.79095
1.40614
1.41982
1.43638
1.45659
1.48054
1.52843
1.65894
1.74698
2.26534
2.78981
1.40614
1.41982
1.43639
1.45659
1.48055
1.52845
1.65858
1.74743
2.26932
2.78881
1.40614
1.41982
1.43639
1.45659
1.48055
1.52849
1.65824
1.74765
2.2748
2.78799
1.40614
1.41982
1.43639
1.45658
1.48055
1.52852
1.65793
1.74773
2.28212
2.78747
1.40614
1.41982
1.43639
1.45658
1.48055
1.52855
1.65761
1.74773
2.29135
2.78697
1.40614
1.41982
1.4364
1.45658
1.48055
1.5286
1.65721
1.74768
2.30269
2.78613
1.40614
1.41981
1.4364
1.45658
1.48055
1.5287
1.65651
1.74753
2.3162
2.7849
1.40614
1.41981
1.4364
1.45657
1.48054
1.52891
1.65534
1.74708
2.33139
2.78342
1.40614
1.41981
1.4364
1.45657
1.48052
1.52925
1.65389
1.74664
2.34736
2.78209
1.40614
1.41981
1.4364
1.45658
1.48051
1.52962
1.65253
1.74654
2.3634
2.78157
1.40614
1.41981
1.43641
1.45658
1.4805
1.5299
1.65137
1.74685
2.37931
2.78253
1.40614
1.41981
1.43641
1.45657
1.4805
1.53007
1.65034
1.74839
2.39538
2.78512
1.40614
1.41981
1.43641
1.45657
1.48051
1.53015
1.6494
1.75059
2.41232
2.78931
1.40614
1.41981
1.43641
1.45657
1.48052
1.53018
1.64848
1.7536
2.43077
2.7948
1.40614
1.41981
1.43641
1.45656
1.48054
1.53018
1.64756
1.75764
2.45038
2.80268
1.40614
1.41981
1.43642
1.45656
1.48055
1.53015
1.64663
1.76296
2.47026
2.81326
1.40614
1.41981
1.43642
1.45655
1.48056
1.53011
1.64569
1.76923
2.48994
2.82684
2.75083
2.73655
2.72696
2.71569
2.70452
2.69101
2.66684
2.63723
2.6041
2.56804
2.75038
2.73634
2.72675
2.71544
2.70377
2.69022
2.66747
2.63795
2.6045
2.56869
2.7499
2.73624
2.72644
2.71486
2.70254
2.68881
2.66882
2.64061
2.60716
2.57086
2.74861
2.73522
2.72521
2.71325
2.70066
2.68619
2.66875
2.6439
2.61202
2.57557
2.74696
2.73363
2.7234
2.71109
2.69796
2.68347
2.66657
2.64549
2.61672
2.58127
2.74504
2.73167
2.72129
2.70879
2.6952
2.68029
2.66365
2.64372
2.61887
2.58576
2.74281
2.72929
2.71878
2.70619
2.69226
2.67674
2.65974
2.6403
2.61731
2.58701
2.73998
2.72629
2.71567
2.70298
2.6888
2.67274
2.65498
2.63557
2.61374
2.58587
2.73632
2.72248
2.71178
2.69888
2.68449
2.66808
2.64983
2.63001
2.60869
2.58295
2.73204
2.71814
2.70734
2.69419
2.67969
2.66326
2.64495
2.62515
2.60346
2.57808
2.72766
2.71379
2.70298
2.68978
2.67549
2.65942
2.64144
2.62194
2.59967
2.57246
2.7241
2.71051
2.70003
2.68726
2.67347
2.65792
2.64044
2.62128
2.5981
2.56798
2.72266
2.70958
2.69977
2.68787
2.67507
2.6603
2.64322
2.62386
2.59907
2.5663
2.7248
2.71284
2.70413
2.69328
2.68148
2.66707
2.6495
2.62867
2.60138
2.56623
2.73183
2.72137
2.71365
2.70321
2.69134
2.67596
2.65659
2.63325
2.60298
2.56542
2.74459
2.7345
2.72647
2.71524
2.70231
2.68497
2.66336
2.63691
2.60379
2.56272
2.76159
2.75069
2.74154
2.72868
2.71401
2.69385
2.66964
2.63918
2.60121
2.55477
2.77966
2.76788
2.75692
2.74164
2.72395
2.70003
2.67225
2.63686
2.59302
2.54087
2.79588
2.78402
2.77107
2.75221
2.73037
2.70205
2.66941
2.62856
2.5798
2.52329
2.80403
2.79072
2.77638
2.75488
2.73034
2.69974
2.66496
2.62178
2.57015
2.50828
)
;

boundaryField
{
    inlet
    {
        type            calculated;
        value           uniform 1.40001;
    }
    outlet
    {
        type            calculated;
        value           nonuniform List<scalar> 
100
(
1.55128
1.52712
1.49342
1.44556
1.39049
1.33504
1.28169
1.23425
1.19215
1.15291
1.11983
1.09177
1.06829
1.04901
1.03254
1.01835
1.0065
0.996627
0.990681
0.985792
1.67991
1.6765
1.67146
1.66863
1.66923
1.66963
1.66629
1.66127
1.65742
1.65551
1.65338
1.64687
1.63822
1.62964
1.62203
1.61362
1.60324
1.59151
1.5798
1.5684
1.6797
1.66225
1.63451
1.60958
1.56576
1.51326
1.47827
1.44391
1.42372
1.43217
1.43602
1.44912
1.4507
1.46406
1.50686
1.56298
1.61759
1.6409
1.65701
1.67555
1.56862
1.57987
1.59111
1.60262
1.61358
1.62264
1.62975
1.63773
1.64656
1.65382
1.65641
1.65676
1.66026
1.66535
1.67007
1.67095
1.66843
1.66955
1.67401
1.68001
0.985791
0.990681
0.996625
1.0065
1.01835
1.03254
1.04901
1.06829
1.09179
1.11988
1.15297
1.19221
1.23428
1.28172
1.33508
1.39049
1.44547
1.49329
1.52705
1.55134
)
;
    }
    triangle
    {
        type            calculated;
        value           nonuniform List<scalar> 
40
(
3.50873
3.38793
3.3031
3.22028
3.13993
3.06108
2.97583
2.88021
2.74216
2.56522
0.956059
0.933205
0.925388
0.922773
0.921003
0.923853
0.925957
0.928238
0.929504
0.930846
0.931038
0.929926
0.928657
0.926146
0.923914
0.920646
0.921961
0.924511
0.932809
0.956789
3.50873
3.38793
3.3031
3.22028
3.13993
3.06109
2.97583
2.88022
2.74217
2.5652
)
;
    }
    top
    {
        type            symmetryPlane;
    }
    bottom
    {
        type            symmetryPlane;
    }
    defaultFaces
    {
        type            empty;
    }
}


// ************************************************************************* //
