/*--------------------------------*- C++ -*----------------------------------*\
  =========                 |
  \\      /  F ield         | OpenFOAM: The Open Source CFD Toolbox
   \\    /   O peration     | Website:  https://openfoam.org
    \\  /    A nd           | Version:  8
     \\/     M anipulation  |
\*---------------------------------------------------------------------------*/
FoamFile
{
    version     2.0;
    format      ascii;
    class       volScalarField;
    location    "1.8";
    object      T;
}
// * * * * * * * * * * * * * * * * * * * * * * * * * * * * * * * * * * * * * //

dimensions      [0 0 0 1 0 0 0];

internalField   nonuniform List<scalar> 
2600
(
1.22094
1.16104
1.06931
0.998518
1.0106
1.04682
1.0918
1.10984
1.10493
1.10439
1.26532
1.20859
1.1184
1.03355
1.03534
1.065
1.10481
1.11876
1.11338
1.11057
1.27394
1.22691
1.15742
1.08128
1.06938
1.08702
1.12052
1.12915
1.12643
1.12244
1.27254
1.22779
1.18056
1.1322
1.11628
1.12291
1.1362
1.13997
1.14427
1.14981
1.2701
1.22615
1.19704
1.18039
1.16973
1.17545
1.17713
1.18013
1.18165
1.18807
1.27094
1.22916
1.21477
1.2245
1.22893
1.23678
1.23837
1.24026
1.23683
1.23042
1.27254
1.2345
1.23082
1.25774
1.28404
1.29642
1.29799
1.29409
1.29058
1.26881
1.27489
1.24022
1.23752
1.26867
1.30627
1.33259
1.34873
1.34054
1.3199
1.2868
1.27663
1.24224
1.23519
1.26572
1.30831
1.34413
1.37403
1.35849
1.33336
1.29295
1.27777
1.24236
1.23447
1.26421
1.30816
1.34376
1.37533
1.36392
1.34085
1.29952
1.27782
1.24197
1.23302
1.26416
1.30808
1.34345
1.3732
1.37263
1.33801
1.30008
1.27678
1.24195
1.23429
1.26584
1.30861
1.34384
1.36956
1.36739
1.33686
1.3016
1.27515
1.24046
1.2378
1.26882
1.30664
1.33262
1.34813
1.34161
1.32105
1.28994
1.27272
1.23486
1.23111
1.25823
1.285
1.29741
1.30024
1.29469
1.28174
1.26438
1.27101
1.229
1.21472
1.2249
1.22992
1.23818
1.23722
1.23482
1.23459
1.22923
1.26992
1.2258
1.19688
1.18048
1.17024
1.17637
1.17376
1.17731
1.18876
1.18854
1.27223
1.22752
1.18018
1.13213
1.11714
1.123
1.13628
1.14149
1.14513
1.15371
1.27374
1.22671
1.15713
1.08178
1.06994
1.08679
1.12208
1.12883
1.1208
1.12509
1.26557
1.20868
1.11854
1.03381
1.03538
1.06525
1.10477
1.11639
1.11374
1.10907
1.22159
1.16135
1.06921
0.998455
1.01092
1.04729
1.09066
1.10731
1.10779
1.10356
1.16671
1.0926
1.02254
0.972309
0.989775
1.03183
1.07982
1.10003
1.10238
1.0986
1.13046
1.0439
0.994266
0.954327
0.972524
1.01753
1.07395
1.09809
1.09754
1.09384
1.12493
1.02416
0.97975
0.945908
0.959588
1.00526
1.07023
1.09856
1.09614
1.09065
1.12873
1.02136
0.974945
0.943443
0.951233
0.994082
1.06599
1.09913
1.09639
1.08873
1.13906
1.02605
0.975707
0.94359
0.947611
0.983465
1.05846
1.09828
1.09562
1.0878
1.15161
1.0369
0.981603
0.948141
0.946917
0.973299
1.04758
1.09373
1.09258
1.08638
1.16388
1.05234
0.990885
0.95455
0.945315
0.962994
1.03518
1.08767
1.08798
1.08351
1.17427
1.06823
1.0025
0.959866
0.943108
0.953973
1.02181
1.08203
1.08465
1.07997
1.1827
1.08225
1.01476
0.966566
0.941442
0.947401
1.00798
1.07643
1.08233
1.07677
1.19018
1.09415
1.02537
0.975733
0.940925
0.944191
0.993732
1.07021
1.08036
1.07449
1.19688
1.1053
1.03497
0.984171
0.943664
0.943186
0.980546
1.06285
1.07861
1.0727
1.20339
1.11557
1.04498
0.991965
0.949765
0.941745
0.969143
1.05422
1.07673
1.07048
1.20995
1.12538
1.05524
1.00114
0.956263
0.941051
0.959497
1.04399
1.07442
1.06839
1.21652
1.13501
1.0653
1.01128
0.964147
0.94182
0.952595
1.03198
1.07169
1.06718
1.22287
1.14465
1.07558
1.021
0.973801
0.944235
0.949281
1.01848
1.0683
1.067
1.22881
1.154
1.08605
1.03052
0.982854
0.948482
0.948198
1.00458
1.06422
1.06747
1.23435
1.16286
1.09616
1.04058
0.991884
0.953698
0.947622
0.992305
1.06029
1.06789
1.23967
1.17114
1.10585
1.05015
1.00191
0.95939
0.947936
0.981777
1.05641
1.06764
1.24484
1.17886
1.11503
1.05957
1.01141
0.965652
0.94844
0.972476
1.05147
1.06669
1.24953
1.18608
1.12378
1.06853
1.02037
0.972467
0.948859
0.963758
1.04413
1.06466
1.49422
1.47485
1.46218
1.44883
1.43477
1.42024
1.40413
1.38536
1.35691
1.33686
1.46273
1.44298
1.43439
1.42409
1.41328
1.40101
1.38637
1.36733
1.33826
1.30071
1.44749
1.43206
1.42335
1.41267
1.40258
1.39119
1.37718
1.35808
1.32928
1.28839
1.43067
1.41891
1.41131
1.40111
1.39154
1.38
1.36586
1.34657
1.31858
1.27674
1.41663
1.40767
1.40195
1.39278
1.38356
1.37178
1.35757
1.33829
1.31135
1.26986
1.40415
1.39691
1.39222
1.3842
1.37594
1.36456
1.35068
1.33153
1.30565
1.26539
1.39325
1.38727
1.38308
1.37579
1.36819
1.35722
1.34395
1.32528
1.30063
1.2628
1.38218
1.37691
1.37297
1.36632
1.35941
1.34915
1.33677
1.31893
1.29571
1.26086
1.36994
1.36589
1.3627
1.35692
1.35074
1.34129
1.32985
1.31298
1.29127
1.25965
1.36123
1.35776
1.35477
1.3494
1.34365
1.33482
1.32415
1.30822
1.28799
1.2595
1.35939
1.35487
1.35099
1.34534
1.33947
1.33079
1.32052
1.30536
1.28651
1.26053
1.35849
1.35398
1.34992
1.34407
1.33784
1.329
1.31882
1.30427
1.28649
1.26276
1.35729
1.35322
1.34934
1.34358
1.33721
1.32832
1.31822
1.30416
1.28716
1.26555
1.35536
1.35179
1.34827
1.34283
1.33658
1.32788
1.31798
1.30444
1.28841
1.26855
1.35311
1.35028
1.34724
1.34219
1.33609
1.32761
1.3179
1.3049
1.28973
1.27135
1.35228
1.35029
1.34729
1.34222
1.33613
1.32784
1.31833
1.30587
1.29141
1.27414
1.35955
1.3545
1.34962
1.34374
1.33729
1.32895
1.31956
1.30753
1.29356
1.27707
1.35781
1.35427
1.35047
1.34495
1.33851
1.33052
1.32161
1.31017
1.29662
1.28051
1.35119
1.34931
1.34727
1.34334
1.33821
1.33129
1.32308
1.31238
1.29956
1.28405
1.34273
1.34125
1.34023
1.33796
1.33479
1.32958
1.32261
1.31303
1.30107
1.28653
1.00175
1.00563
1.01032
1.01593
1.02269
1.0357
1.06554
1.11365
1.30096
1.39634
1.00175
1.00563
1.01032
1.01593
1.02269
1.03571
1.06552
1.11362
1.30065
1.39349
1.00175
1.00563
1.01032
1.01593
1.02269
1.03572
1.06548
1.11357
1.30048
1.38865
1.00175
1.00563
1.01032
1.01593
1.02268
1.03574
1.06541
1.1135
1.30031
1.38306
1.00175
1.00563
1.01032
1.01593
1.02268
1.03576
1.06533
1.11335
1.30001
1.37764
1.00175
1.00563
1.01032
1.01594
1.02267
1.03579
1.06524
1.11312
1.29947
1.37255
1.00175
1.00563
1.01032
1.01594
1.02266
1.03583
1.06516
1.11278
1.29863
1.36796
1.00175
1.00563
1.01032
1.01594
1.02266
1.03586
1.06509
1.11233
1.29759
1.36468
1.00175
1.00563
1.01032
1.01594
1.02265
1.0359
1.06506
1.11175
1.29637
1.36348
1.00175
1.00563
1.01032
1.01595
1.02265
1.03593
1.06507
1.11106
1.29476
1.36368
1.00175
1.00563
1.01032
1.01595
1.02264
1.03596
1.06512
1.11028
1.29243
1.36372
1.00175
1.00563
1.01032
1.01595
1.02264
1.03599
1.06522
1.10943
1.28949
1.36314
1.00175
1.00563
1.01032
1.01595
1.02263
1.03601
1.06534
1.1085
1.28627
1.36167
1.00175
1.00563
1.01032
1.01595
1.02263
1.03603
1.06548
1.10747
1.28305
1.35941
1.00175
1.00563
1.01032
1.01595
1.02262
1.03604
1.06565
1.10635
1.27993
1.35649
1.00175
1.00563
1.01032
1.01596
1.02262
1.03605
1.06583
1.10518
1.27686
1.35234
1.00175
1.00563
1.01032
1.01596
1.02262
1.03606
1.06602
1.10395
1.27372
1.34549
1.00175
1.00563
1.01032
1.01596
1.02262
1.03606
1.06622
1.10267
1.27104
1.33824
1.00175
1.00563
1.01032
1.01596
1.02261
1.03607
1.06643
1.10134
1.26896
1.33208
1.00175
1.00563
1.01032
1.01596
1.02261
1.03607
1.06666
1.1
1.26734
1.32811
1.00175
1.00563
1.01032
1.01596
1.02261
1.03607
1.06666
1.1
1.26734
1.32811
1.00175
1.00563
1.01032
1.01596
1.02261
1.03607
1.06643
1.10134
1.26896
1.33208
1.00175
1.00563
1.01032
1.01596
1.02262
1.03606
1.06622
1.10267
1.27104
1.33824
1.00175
1.00563
1.01032
1.01596
1.02262
1.03606
1.06602
1.10395
1.27372
1.34549
1.00175
1.00563
1.01032
1.01596
1.02262
1.03605
1.06583
1.10518
1.27686
1.35234
1.00175
1.00563
1.01032
1.01595
1.02262
1.03604
1.06565
1.10635
1.27993
1.35649
1.00175
1.00563
1.01032
1.01595
1.02263
1.03603
1.06548
1.10747
1.28305
1.35941
1.00175
1.00563
1.01032
1.01595
1.02263
1.03601
1.06534
1.1085
1.28627
1.36167
1.00175
1.00563
1.01032
1.01595
1.02264
1.03599
1.06522
1.10943
1.28949
1.36314
1.00175
1.00563
1.01032
1.01595
1.02264
1.03596
1.06512
1.11028
1.29243
1.36372
1.00175
1.00563
1.01032
1.01595
1.02265
1.03593
1.06507
1.11106
1.29476
1.36368
1.00175
1.00563
1.01032
1.01594
1.02265
1.0359
1.06506
1.11175
1.29637
1.36348
1.00175
1.00563
1.01032
1.01594
1.02266
1.03586
1.06509
1.11233
1.29759
1.36468
1.00175
1.00563
1.01032
1.01594
1.02266
1.03583
1.06516
1.11278
1.29863
1.36796
1.00175
1.00563
1.01032
1.01594
1.02267
1.03579
1.06524
1.11312
1.29947
1.37255
1.00175
1.00563
1.01032
1.01593
1.02268
1.03576
1.06533
1.11335
1.30001
1.37764
1.00175
1.00563
1.01032
1.01593
1.02268
1.03574
1.06541
1.1135
1.30031
1.38306
1.00175
1.00563
1.01032
1.01593
1.02269
1.03572
1.06548
1.11357
1.30048
1.38865
1.00175
1.00563
1.01032
1.01593
1.02269
1.03571
1.06552
1.11362
1.30065
1.39349
1.00175
1.00563
1.01032
1.01593
1.02269
1.0357
1.06554
1.11365
1.30096
1.39634
1.34273
1.34125
1.34023
1.33796
1.33479
1.32958
1.32261
1.31303
1.30107
1.28653
1.35119
1.34931
1.34727
1.34334
1.33821
1.33129
1.32308
1.31238
1.29956
1.28405
1.35781
1.35427
1.35047
1.34495
1.33851
1.33052
1.32161
1.31017
1.29662
1.28051
1.35955
1.3545
1.34962
1.34374
1.33729
1.32895
1.31956
1.30753
1.29356
1.27707
1.35228
1.35029
1.34729
1.34222
1.33613
1.32784
1.31834
1.30587
1.29141
1.27414
1.35311
1.35028
1.34724
1.34219
1.33609
1.32761
1.3179
1.3049
1.28973
1.27135
1.35536
1.35179
1.34827
1.34283
1.33658
1.32788
1.31798
1.30444
1.28841
1.26855
1.35729
1.35322
1.34934
1.34358
1.33721
1.32833
1.31822
1.30416
1.28716
1.26555
1.35849
1.35398
1.34992
1.34407
1.33784
1.329
1.31882
1.30427
1.28649
1.26277
1.35939
1.35487
1.35099
1.34534
1.33947
1.33079
1.32052
1.30536
1.28651
1.26054
1.36123
1.35776
1.35477
1.3494
1.34365
1.33482
1.32416
1.30822
1.288
1.25951
1.36994
1.36589
1.3627
1.35692
1.35074
1.34129
1.32985
1.31298
1.29127
1.25965
1.38218
1.37691
1.37297
1.36632
1.35941
1.34915
1.33677
1.31893
1.29572
1.26086
1.39325
1.38727
1.38308
1.37579
1.36819
1.35723
1.34395
1.32528
1.30063
1.2628
1.40415
1.39691
1.39222
1.3842
1.37594
1.36456
1.35068
1.33153
1.30566
1.26539
1.41663
1.40767
1.40195
1.39278
1.38356
1.37178
1.35757
1.33829
1.31135
1.26987
1.43067
1.41891
1.41131
1.40111
1.39154
1.38
1.36586
1.34657
1.31858
1.27676
1.44749
1.43206
1.42335
1.41267
1.40258
1.39119
1.37718
1.35808
1.32928
1.2884
1.46273
1.44298
1.43439
1.42409
1.41328
1.40101
1.38637
1.36733
1.33826
1.30071
1.49422
1.47485
1.46218
1.44883
1.43477
1.42024
1.40413
1.38536
1.35691
1.33686
1.24953
1.18608
1.12378
1.06852
1.02035
0.97245
0.948846
0.963829
1.04407
1.06473
1.24484
1.17886
1.11503
1.05957
1.01138
0.965639
0.948429
0.972574
1.05153
1.06669
1.23967
1.17114
1.10586
1.05014
1.00191
0.959403
0.94792
0.981893
1.05651
1.06749
1.23436
1.16286
1.09616
1.04058
0.991888
0.953702
0.947602
0.992447
1.06032
1.06772
1.22881
1.154
1.08604
1.03052
0.982848
0.948449
0.948196
1.00495
1.06423
1.06749
1.22288
1.14465
1.07557
1.02098
0.973767
0.944257
0.949306
1.01917
1.06825
1.06716
1.21652
1.13501
1.06528
1.01126
0.964115
0.941904
0.952674
1.03256
1.07162
1.06719
1.20995
1.12538
1.05523
1.00113
0.956225
0.941097
0.959591
1.04405
1.07426
1.06824
1.2034
1.11558
1.04498
0.991961
0.949735
0.941779
0.969283
1.05409
1.07647
1.07036
1.19689
1.10532
1.03499
0.984116
0.943724
0.943182
0.980649
1.06307
1.07836
1.07276
1.19018
1.09417
1.02535
0.975711
0.940915
0.944163
0.993807
1.07093
1.08014
1.07474
1.18267
1.08226
1.01471
0.966672
0.941416
0.947415
1.00769
1.07724
1.0823
1.07668
1.17423
1.06822
1.00253
0.959971
0.94294
0.953956
1.02152
1.08247
1.0848
1.07977
1.16385
1.05232
0.991001
0.954473
0.94511
0.962898
1.03515
1.08739
1.08794
1.08331
1.15162
1.03684
0.981672
0.948045
0.946679
0.973141
1.04803
1.09306
1.09168
1.08658
1.13913
1.02596
0.97569
0.943581
0.947441
0.983464
1.05871
1.09824
1.0953
1.08842
1.12882
1.02129
0.974898
0.943467
0.95126
0.994335
1.06571
1.09913
1.09699
1.08887
1.12498
1.02428
0.979715
0.945878
0.95944
1.00542
1.06994
1.09809
1.09732
1.09017
1.13041
1.04426
0.994461
0.954141
0.972097
1.01739
1.07397
1.09742
1.09743
1.09303
1.16655
1.09262
1.02302
0.972201
0.98931
1.03138
1.08082
1.10056
1.09946
1.09821
1.26796
1.25019
1.2284
1.19953
1.15919
1.10845
1.05521
1.00574
0.935294
0.878245
1.26791
1.25007
1.2278
1.19897
1.1587
1.10804
1.05484
1.00511
0.935049
0.879923
1.26722
1.24972
1.22705
1.19792
1.15784
1.10733
1.05416
1.00395
0.934741
0.881861
1.26581
1.24878
1.22575
1.19647
1.15668
1.1064
1.05323
1.00233
0.934434
0.885001
1.26354
1.24723
1.22407
1.19478
1.15523
1.10519
1.05198
1.00014
0.934155
0.888651
1.26096
1.24532
1.2222
1.19269
1.15338
1.1036
1.05033
0.997381
0.933552
0.893037
1.2589
1.24352
1.22035
1.19027
1.15088
1.10134
1.04808
0.994108
0.932744
0.898374
1.25796
1.24239
1.21866
1.18725
1.14725
1.09795
1.04491
0.990059
0.930988
0.905116
1.25806
1.24219
1.21702
1.18329
1.1419
1.09291
1.04048
0.985251
0.928406
0.913797
1.2598
1.2429
1.21506
1.17782
1.13453
1.08603
1.03463
0.979365
0.926413
0.923696
1.26329
1.24423
1.2123
1.17081
1.1253
1.07731
1.02717
0.972396
0.924141
0.933572
1.2666
1.24503
1.20855
1.16274
1.115
1.06748
1.01838
0.964774
0.922683
0.947089
1.26804
1.24407
1.20391
1.15442
1.10485
1.05733
1.00855
0.957373
0.920963
0.962568
1.26761
1.241
1.1981
1.1465
1.09546
1.04769
0.998097
0.950524
0.920441
0.979938
1.26556
1.23618
1.19163
1.13894
1.0871
1.03863
0.987576
0.945519
0.922739
0.998366
1.26277
1.23036
1.18438
1.13103
1.07906
1.03
0.977138
0.942548
0.930875
1.0158
1.26055
1.22394
1.17578
1.12195
1.07038
1.02078
0.967241
0.941444
0.94592
1.03092
1.25959
1.21635
1.16509
1.11081
1.06007
1.01022
0.959264
0.942206
0.968191
1.0425
1.25827
1.20755
1.15195
1.09712
1.0477
0.99764
0.952974
0.945246
0.996615
1.05171
1.25445
1.19582
1.13641
1.08138
1.03286
0.983444
0.950029
0.953577
1.02601
1.05959
1.25445
1.19582
1.13641
1.08139
1.03287
0.983443
0.950032
0.95356
1.02595
1.05956
1.25826
1.20755
1.15195
1.09712
1.04771
0.997629
0.952982
0.945269
0.996496
1.05172
1.25958
1.21634
1.16508
1.11081
1.06007
1.01021
0.959249
0.942222
0.968226
1.04252
1.26055
1.22394
1.17578
1.12195
1.07038
1.02077
0.967214
0.941459
0.945987
1.03092
1.26277
1.23036
1.18438
1.13102
1.07906
1.02999
0.977127
0.942567
0.930918
1.01579
1.26556
1.23618
1.19163
1.13894
1.0871
1.03862
0.987563
0.94552
0.922745
0.998352
1.26761
1.241
1.1981
1.1465
1.09546
1.04769
0.998089
0.950514
0.920442
0.979931
1.26804
1.24407
1.20391
1.15442
1.10485
1.05732
1.00855
0.957364
0.920956
0.962559
1.2666
1.24503
1.20855
1.16274
1.115
1.06748
1.01838
0.964763
0.922672
0.947071
1.26329
1.24423
1.2123
1.17081
1.1253
1.07731
1.02718
0.972392
0.924129
0.933551
1.2598
1.2429
1.21506
1.17782
1.13453
1.08603
1.03464
0.979366
0.926396
0.92368
1.25806
1.24219
1.21702
1.18329
1.1419
1.09291
1.04048
0.985252
0.928407
0.913788
1.25796
1.24239
1.21866
1.18725
1.14725
1.09795
1.04491
0.990062
0.930994
0.905112
1.2589
1.24352
1.22035
1.19028
1.15089
1.10135
1.04808
0.994111
0.93275
0.898372
1.26096
1.24532
1.2222
1.19269
1.15338
1.1036
1.05033
0.997385
0.933559
0.893037
1.26354
1.24723
1.22407
1.19479
1.15523
1.10519
1.05198
1.00014
0.934163
0.888652
1.26581
1.24878
1.22575
1.19647
1.15669
1.1064
1.05324
1.00233
0.934443
0.885002
1.26722
1.24972
1.22705
1.19793
1.15784
1.10734
1.05416
1.00396
0.934749
0.881861
1.26791
1.25007
1.2278
1.19897
1.15871
1.10805
1.05484
1.00512
0.935057
0.879923
1.26797
1.25019
1.2284
1.19954
1.1592
1.10846
1.05521
1.00575
0.935302
0.878246
1.3324
1.3312
1.33027
1.32838
1.32611
1.32243
1.31731
1.30976
1.29973
1.28749
1.32448
1.32282
1.32127
1.31891
1.31632
1.31274
1.30836
1.30232
1.29468
1.28553
1.32204
1.31945
1.31701
1.31388
1.31051
1.30629
1.30156
1.29563
1.2886
1.28114
1.31952
1.3171
1.31483
1.31175
1.30829
1.30376
1.29857
1.29236
1.2851
1.27796
1.31668
1.31452
1.31259
1.30992
1.3068
1.30272
1.2977
1.29157
1.28433
1.27753
1.31437
1.31216
1.31035
1.30795
1.3052
1.30167
1.29713
1.29138
1.28427
1.2779
1.31284
1.31032
1.30831
1.30583
1.30312
1.29985
1.29572
1.29044
1.28386
1.2781
1.3119
1.30911
1.30679
1.304
1.30099
1.29755
1.29343
1.28835
1.2822
1.27715
1.31125
1.30831
1.30577
1.30268
1.29932
1.29555
1.29116
1.28593
1.27979
1.27482
1.3106
1.30754
1.30485
1.30158
1.29797
1.29391
1.28924
1.28373
1.27729
1.2716
1.30993
1.30679
1.30396
1.30055
1.29673
1.29241
1.28749
1.28166
1.27483
1.26845
1.30933
1.30613
1.3032
1.29968
1.29572
1.29122
1.28603
1.27984
1.27288
1.26663
1.30873
1.30549
1.30248
1.29889
1.29485
1.29021
1.28479
1.27842
1.27175
1.26613
1.30799
1.30473
1.30166
1.298
1.29389
1.28913
1.28355
1.27725
1.27135
1.26663
1.30706
1.30377
1.30065
1.29692
1.29272
1.28781
1.28219
1.27649
1.27166
1.26822
1.30595
1.30262
1.29944
1.29564
1.29132
1.28628
1.28092
1.27629
1.27271
1.27065
1.30475
1.30136
1.29814
1.29425
1.28981
1.28477
1.28023
1.27668
1.27478
1.27339
1.3037
1.30022
1.29696
1.29298
1.28837
1.28375
1.28001
1.27814
1.27722
1.27569
1.30302
1.29946
1.29617
1.29209
1.28743
1.28316
1.28036
1.27975
1.27911
1.27716
1.30287
1.29925
1.29594
1.2918
1.28716
1.28304
1.2808
1.2805
1.2799
1.27765
1.00175
1.00563
1.01032
1.01596
1.02261
1.03607
1.06694
1.0984
1.26556
1.32674
1.00175
1.00563
1.01032
1.01596
1.0226
1.03608
1.06726
1.09667
1.26306
1.32704
1.00175
1.00563
1.01032
1.01596
1.0226
1.03608
1.06756
1.09523
1.25987
1.32685
1.00175
1.00563
1.01031
1.01596
1.0226
1.03608
1.06783
1.09424
1.25626
1.32617
1.00175
1.00563
1.01031
1.01596
1.02259
1.03607
1.06809
1.09354
1.2525
1.32544
1.00175
1.00563
1.01031
1.01596
1.02259
1.03605
1.06835
1.09303
1.24883
1.32477
1.00175
1.00563
1.01031
1.01596
1.02259
1.03601
1.06863
1.09267
1.24534
1.32414
1.00175
1.00563
1.01031
1.01596
1.0226
1.03593
1.06894
1.09261
1.24205
1.32347
1.00175
1.00563
1.01031
1.01596
1.0226
1.03583
1.0693
1.09265
1.23895
1.32268
1.00175
1.00563
1.01031
1.01596
1.0226
1.03574
1.06969
1.09276
1.23598
1.32166
1.00175
1.00563
1.01031
1.01596
1.02261
1.03568
1.07
1.09288
1.23312
1.32053
1.00175
1.00563
1.01031
1.01596
1.02261
1.03565
1.07019
1.09292
1.23048
1.31942
1.00175
1.00563
1.01031
1.01597
1.02261
1.03564
1.07029
1.09294
1.22815
1.31835
1.00175
1.00563
1.01031
1.01597
1.02261
1.03563
1.07038
1.09294
1.22617
1.31721
1.00175
1.00563
1.01031
1.01597
1.02261
1.03562
1.07046
1.09293
1.22453
1.31601
1.00175
1.00563
1.01031
1.01597
1.02261
1.03561
1.07055
1.09288
1.22328
1.31474
1.00175
1.00563
1.01031
1.01597
1.02261
1.03561
1.07064
1.09277
1.22237
1.31348
1.00175
1.00563
1.01031
1.01597
1.02261
1.0356
1.07074
1.09261
1.22193
1.31245
1.00175
1.00563
1.01031
1.01597
1.02261
1.0356
1.07081
1.09246
1.22167
1.31184
1.00175
1.00563
1.01031
1.01597
1.02261
1.03559
1.07087
1.09238
1.22157
1.31173
1.00175
1.00563
1.01031
1.01597
1.02261
1.03559
1.07087
1.09238
1.22157
1.31173
1.00175
1.00563
1.01031
1.01597
1.02261
1.0356
1.07081
1.09246
1.22167
1.31184
1.00175
1.00563
1.01031
1.01597
1.02261
1.0356
1.07074
1.09261
1.22193
1.31245
1.00175
1.00563
1.01031
1.01597
1.02261
1.03561
1.07064
1.09277
1.22237
1.31348
1.00175
1.00563
1.01031
1.01597
1.02261
1.03561
1.07055
1.09288
1.22328
1.31474
1.00175
1.00563
1.01031
1.01597
1.02261
1.03562
1.07046
1.09293
1.22453
1.31601
1.00175
1.00563
1.01031
1.01597
1.02261
1.03563
1.07038
1.09294
1.22617
1.31721
1.00175
1.00563
1.01031
1.01597
1.02261
1.03564
1.07029
1.09294
1.22815
1.31835
1.00175
1.00563
1.01031
1.01596
1.02261
1.03565
1.07019
1.09292
1.23048
1.31942
1.00175
1.00563
1.01031
1.01596
1.02261
1.03568
1.07
1.09288
1.23312
1.32053
1.00175
1.00563
1.01031
1.01596
1.0226
1.03574
1.06969
1.09276
1.23598
1.32166
1.00175
1.00563
1.01031
1.01596
1.0226
1.03583
1.0693
1.09265
1.23895
1.32268
1.00175
1.00563
1.01031
1.01596
1.0226
1.03593
1.06894
1.09261
1.24205
1.32347
1.00175
1.00563
1.01031
1.01596
1.02259
1.03601
1.06863
1.09267
1.24534
1.32414
1.00175
1.00563
1.01031
1.01596
1.02259
1.03605
1.06835
1.09303
1.24883
1.32477
1.00175
1.00563
1.01031
1.01596
1.02259
1.03607
1.06809
1.09354
1.2525
1.32544
1.00175
1.00563
1.01031
1.01596
1.0226
1.03608
1.06783
1.09424
1.25626
1.32617
1.00175
1.00563
1.01032
1.01596
1.0226
1.03608
1.06756
1.09523
1.25987
1.32685
1.00175
1.00563
1.01032
1.01596
1.0226
1.03608
1.06726
1.09667
1.26306
1.32704
1.00175
1.00563
1.01032
1.01596
1.02261
1.03607
1.06694
1.0984
1.26556
1.32674
1.30287
1.29925
1.29594
1.2918
1.28716
1.28304
1.2808
1.2805
1.2799
1.27765
1.30302
1.29946
1.29617
1.29209
1.28743
1.28316
1.28036
1.27975
1.27911
1.27716
1.3037
1.30022
1.29696
1.29298
1.28837
1.28375
1.28001
1.27814
1.27722
1.27569
1.30475
1.30136
1.29814
1.29425
1.28981
1.28477
1.28023
1.27668
1.27478
1.27339
1.30595
1.30262
1.29944
1.29564
1.29132
1.28628
1.28092
1.27629
1.27271
1.27065
1.30705
1.30377
1.30065
1.29692
1.29272
1.28781
1.28219
1.27649
1.27166
1.26822
1.30799
1.30473
1.30166
1.298
1.29389
1.28913
1.28355
1.27725
1.27135
1.26663
1.30873
1.30549
1.30248
1.29889
1.29485
1.29021
1.28479
1.27842
1.27175
1.26613
1.30933
1.30613
1.3032
1.29968
1.29572
1.29122
1.28603
1.27984
1.27288
1.26663
1.30993
1.30679
1.30396
1.30055
1.29673
1.29241
1.28749
1.28166
1.27483
1.26845
1.3106
1.30754
1.30485
1.30158
1.29797
1.29391
1.28924
1.28373
1.27729
1.2716
1.31125
1.30831
1.30577
1.30268
1.29932
1.29555
1.29116
1.28593
1.27979
1.27482
1.3119
1.30911
1.30679
1.304
1.30099
1.29755
1.29343
1.28835
1.2822
1.27715
1.31284
1.31032
1.30831
1.30583
1.30312
1.29985
1.29572
1.29044
1.28386
1.2781
1.31437
1.31216
1.31035
1.30795
1.3052
1.30167
1.29713
1.29138
1.28427
1.2779
1.31668
1.31452
1.31259
1.30992
1.3068
1.30272
1.2977
1.29157
1.28433
1.27753
1.31952
1.3171
1.31482
1.31175
1.30829
1.30376
1.29857
1.29236
1.2851
1.27797
1.32204
1.31945
1.31701
1.31388
1.31051
1.30629
1.30156
1.29563
1.2886
1.28114
1.32448
1.32282
1.32127
1.31891
1.31632
1.31274
1.30836
1.30232
1.29469
1.28554
1.33239
1.3312
1.33027
1.32838
1.32611
1.32243
1.31731
1.30976
1.29973
1.28749
)
;

boundaryField
{
    inlet
    {
        type            fixedValue;
        value           uniform 1;
    }
    outlet
    {
        type            inletOutlet;
        inletValue      uniform 1;
        value           nonuniform List<scalar> 
100
(
1.05953
1.0517
1.04248
1.03085
1.0157
0.998271
0.979889
0.962563
0.947113
0.93361
0.923749
0.913854
0.905145
0.89837
0.893008
0.888598
0.884919
0.881749
0.879786
0.878114
1.0985
1.09364
1.09056
1.08878
1.08792
1.08635
1.08339
1.07991
1.07675
1.07459
1.07267
1.07039
1.06832
1.06718
1.06706
1.06751
1.06789
1.06762
1.06666
1.06462
1.10433
1.11111
1.12246
1.14953
1.18791
1.23028
1.26876
1.28653
1.29324
1.29969
1.29972
1.30096
1.28987
1.26419
1.2292
1.18891
1.15353
1.12478
1.10925
1.10376
1.0647
1.06667
1.06748
1.06772
1.06751
1.06721
1.06721
1.06819
1.07026
1.07272
1.07486
1.07668
1.07971
1.08317
1.08647
1.08856
1.08903
1.09006
1.09285
1.09801
0.878114
0.879786
0.881748
0.884918
0.888597
0.893008
0.898371
0.905149
0.913862
0.923765
0.933631
0.947131
0.962572
0.979895
0.998285
1.01571
1.03085
1.04246
1.05169
1.05956
)
;
    }
    triangle
    {
        type            zeroGradient;
    }
    top
    {
        type            symmetryPlane;
    }
    bottom
    {
        type            symmetryPlane;
    }
    defaultFaces
    {
        type            empty;
    }
}


// ************************************************************************* //
