/*--------------------------------*- C++ -*----------------------------------*\
  =========                 |
  \\      /  F ield         | OpenFOAM: The Open Source CFD Toolbox
   \\    /   O peration     | Website:  https://openfoam.org
    \\  /    A nd           | Version:  8
     \\/     M anipulation  |
\*---------------------------------------------------------------------------*/
FoamFile
{
    version     2.0;
    format      ascii;
    class       volVectorField;
    location    "1.8";
    object      U;
}
// * * * * * * * * * * * * * * * * * * * * * * * * * * * * * * * * * * * * * //

dimensions      [0 1 -1 0 0 0 0];

internalField   nonuniform List<vector> 
2600
(
(0.625949 0.0248699 0)
(1.09576 0.1235 0)
(1.38058 0.245351 0)
(1.51522 0.306352 0)
(1.52573 0.251295 0)
(1.48462 0.171366 0)
(1.38309 0.0991733 0)
(1.33343 0.0437444 0)
(1.33372 0.0173713 0)
(1.31278 -0.0155888 0)
(0.207299 -0.121491 0)
(0.733459 0.080548 0)
(1.19214 0.215689 0)
(1.44256 0.284857 0)
(1.49492 0.236529 0)
(1.47279 0.15115 0)
(1.38236 0.0875787 0)
(1.33228 0.035681 0)
(1.33248 0.0112492 0)
(1.31072 -0.00938514 0)
(0.0259373 -0.131152 0)
(0.398209 0.0359294 0)
(0.923727 0.166179 0)
(1.31015 0.240015 0)
(1.43402 0.214975 0)
(1.44052 0.148268 0)
(1.37359 0.0838532 0)
(1.32935 0.0404948 0)
(1.32677 0.0108067 0)
(1.30179 0.00127616 0)
(-0.0453567 -0.158613 0)
(0.174265 -0.0203392 0)
(0.633329 0.105842 0)
(1.10284 0.19523 0)
(1.32052 0.180701 0)
(1.37299 0.134611 0)
(1.34359 0.100618 0)
(1.31051 0.0617842 0)
(1.30547 0.0272419 0)
(1.26934 -0.00224933 0)
(-0.0969006 -0.151969 0)
(0.0204394 -0.0499939 0)
(0.350866 0.0491914 0)
(0.821727 0.14436 0)
(1.13139 0.148587 0)
(1.23975 0.111223 0)
(1.25918 0.0949601 0)
(1.24478 0.0517194 0)
(1.24269 0.0272542 0)
(1.19734 -0.00688935 0)
(-0.143088 -0.143132 0)
(-0.110504 -0.0616928 0)
(0.0713306 0.0129291 0)
(0.469273 0.0996666 0)
(0.83417 0.130566 0)
(1.00456 0.0929406 0)
(1.09135 0.06123 0)
(1.11144 0.0143168 0)
(1.11552 0.0187479 0)
(1.07211 -0.000379845 0)
(-0.184255 -0.122322 0)
(-0.2402 -0.06154 0)
(-0.196608 0.001701 0)
(0.0777618 0.0621488 0)
(0.434067 0.0958164 0)
(0.656113 0.0808571 0)
(0.818224 0.0658285 0)
(0.891801 0.0414234 0)
(0.925941 0.0170026 0)
(0.909956 0.0057705 0)
(-0.218948 -0.0934193 0)
(-0.358764 -0.0466977 0)
(-0.414336 -0.00172884 0)
(-0.270951 0.0266013 0)
(0.0251852 0.0507493 0)
(0.276324 0.0510081 0)
(0.502855 0.0518507 0)
(0.641253 0.045693 0)
(0.726426 0.00223216 0)
(0.761315 -0.000786379 0)
(-0.243657 -0.0576398 0)
(-0.440274 -0.034994 0)
(-0.542303 -0.00980418 0)
(-0.48635 0.00385124 0)
(-0.25122 0.0289507 0)
(0.00741736 0.0445225 0)
(0.272381 0.0485157 0)
(0.461267 0.02509 0)
(0.592347 0.0112263 0)
(0.6716 -0.00243195 0)
(-0.260816 -0.0198503 0)
(-0.474553 -0.01325 0)
(-0.584896 -0.00529385 0)
(-0.555665 0.000267875 0)
(-0.34886 0.012938 0)
(-0.0938313 0.0199044 0)
(0.182655 0.0140854 0)
(0.397264 0.0052268 0)
(0.545844 0.0187725 0)
(0.643309 0.0080366 0)
(-0.260741 0.0203421 0)
(-0.47426 0.0131452 0)
(-0.585293 0.00459346 0)
(-0.555774 -0.00220614 0)
(-0.349196 -0.0125589 0)
(-0.0942553 -0.0169282 0)
(0.182805 -0.0223532 0)
(0.397038 -0.0192838 0)
(0.54693 0.00656069 0)
(0.641106 0.00572299 0)
(-0.243514 0.057879 0)
(-0.439872 0.0348454 0)
(-0.541404 0.00980957 0)
(-0.487115 -0.00573049 0)
(-0.253354 -0.0296267 0)
(0.00544549 -0.0433507 0)
(0.272658 -0.0429084 0)
(0.465676 -0.0308419 0)
(0.594095 -0.0165471 0)
(0.66952 -0.0056785 0)
(-0.219078 0.0934386 0)
(-0.358647 0.0462675 0)
(-0.413899 0.000758252 0)
(-0.27208 -0.0265214 0)
(0.0209697 -0.0498772 0)
(0.272532 -0.0486872 0)
(0.506451 -0.0499887 0)
(0.646212 -0.0171091 0)
(0.727464 -0.0324944 0)
(0.759065 -0.00764357 0)
(-0.184395 0.122078 0)
(-0.240301 0.0615156 0)
(-0.196704 -0.00201299 0)
(0.0765811 -0.0637188 0)
(0.429144 -0.0961991 0)
(0.651788 -0.0797817 0)
(0.821836 -0.0603992 0)
(0.899075 -0.0398468 0)
(0.924975 -0.0251099 0)
(0.906863 0.00217258 0)
(-0.143214 0.14294 0)
(-0.110588 0.0620963 0)
(0.0712728 -0.011731 0)
(0.468402 -0.0994886 0)
(0.830223 -0.129786 0)
(1.00174 -0.0893061 0)
(1.09476 -0.061599 0)
(1.11678 -0.0356349 0)
(1.11378 -0.0182976 0)
(1.06982 -0.00657406 0)
(-0.0967784 0.150958 0)
(0.0204612 0.0507053 0)
(0.351185 -0.0495485 0)
(0.821264 -0.145319 0)
(1.12883 -0.149006 0)
(1.23845 -0.109601 0)
(1.26364 -0.104358 0)
(1.24723 -0.0550287 0)
(1.24056 -0.00499599 0)
(1.19463 0.00244093 0)
(-0.0453249 0.158407 0)
(0.174211 0.0194272 0)
(0.633682 -0.107814 0)
(1.10274 -0.195937 0)
(1.31923 -0.177986 0)
(1.37266 -0.134464 0)
(1.34564 -0.0998889 0)
(1.30936 -0.0528587 0)
(1.30514 -0.0255875 0)
(1.26669 0.0130136 0)
(0.0259877 0.131263 0)
(0.398474 -0.0362447 0)
(0.924162 -0.166687 0)
(1.31001 -0.238731 0)
(1.43294 -0.214174 0)
(1.44066 -0.148856 0)
(1.37445 -0.0804947 0)
(1.32848 -0.035761 0)
(1.32968 -0.0286254 0)
(1.29938 0.00333843 0)
(0.207651 0.122392 0)
(0.733477 -0.0811409 0)
(1.19203 -0.215181 0)
(1.44219 -0.284798 0)
(1.49404 -0.236815 0)
(1.47312 -0.150037 0)
(1.38351 -0.0883747 0)
(1.33269 -0.0404305 0)
(1.33234 -0.0143546 0)
(1.31088 0.00485474 0)
(0.62544 -0.0259435 0)
(1.09587 -0.122018 0)
(1.38033 -0.244992 0)
(1.51505 -0.307061 0)
(1.52523 -0.250404 0)
(1.48503 -0.169963 0)
(1.38391 -0.100914 0)
(1.33266 -0.0482874 0)
(1.33294 -0.0114848 0)
(1.31292 0.0132157 0)
(1.16664 0.0328372 0)
(1.36113 -0.144046 0)
(1.48711 -0.26161 0)
(1.55144 -0.326658 0)
(1.54052 -0.277624 0)
(1.48995 -0.189369 0)
(1.38502 -0.11341 0)
(1.3341 -0.0582617 0)
(1.33466 -0.0157672 0)
(1.31415 0.0143773 0)
(1.32315 0.132898 0)
(1.47926 -0.13119 0)
(1.54259 -0.250796 0)
(1.57067 -0.337208 0)
(1.55173 -0.302751 0)
(1.49857 -0.212632 0)
(1.38763 -0.118992 0)
(1.33614 -0.0595392 0)
(1.33745 -0.0224688 0)
(1.31637 0.0136406 0)
(1.33952 0.163909 0)
(1.50727 -0.12154 0)
(1.55788 -0.252512 0)
(1.57422 -0.342213 0)
(1.55832 -0.322417 0)
(1.51058 -0.236524 0)
(1.39335 -0.12169 0)
(1.33916 -0.0578794 0)
(1.34103 -0.0229125 0)
(1.31981 0.0126219 0)
(1.30712 0.191002 0)
(1.49783 -0.0889645 0)
(1.55574 -0.240458 0)
(1.56986 -0.338639 0)
(1.56371 -0.338845 0)
(1.52549 -0.259519 0)
(1.40283 -0.126507 0)
(1.34483 -0.0567623 0)
(1.34538 -0.0199798 0)
(1.32344 0.0143308 0)
(1.27678 0.199068 0)
(1.47852 -0.0733927 0)
(1.54527 -0.231286 0)
(1.56232 -0.332787 0)
(1.56452 -0.349473 0)
(1.5367 -0.280942 0)
(1.41445 -0.13767 0)
(1.35234 -0.0594506 0)
(1.34918 -0.018112 0)
(1.32743 0.0177234 0)
(1.24899 0.202145 0)
(1.45185 -0.0425539 0)
(1.5316 -0.215052 0)
(1.55413 -0.327978 0)
(1.56813 -0.357095 0)
(1.54633 -0.305922 0)
(1.42633 -0.153554 0)
(1.35921 -0.0654672 0)
(1.3526 -0.01966 0)
(1.33054 0.0206149 0)
(1.22292 0.203215 0)
(1.42784 -0.0239025 0)
(1.5157 -0.194171 0)
(1.54856 -0.320691 0)
(1.5672 -0.363519 0)
(1.55082 -0.328591 0)
(1.44501 -0.175606 0)
(1.36767 -0.0734863 0)
(1.35562 -0.0229449 0)
(1.33373 0.0216893 0)
(1.19935 0.201304 0)
(1.4003 -0.00179154 0)
(1.49517 -0.170362 0)
(1.54237 -0.303564 0)
(1.56298 -0.36542 0)
(1.553 -0.346326 0)
(1.46233 -0.195841 0)
(1.3759 -0.0785761 0)
(1.35825 -0.0233248 0)
(1.33652 0.0220744 0)
(1.17705 0.199537 0)
(1.37567 0.0140952 0)
(1.47803 -0.156788 0)
(1.53154 -0.286834 0)
(1.55685 -0.365031 0)
(1.55266 -0.357807 0)
(1.4819 -0.219718 0)
(1.38472 -0.0836828 0)
(1.36061 -0.0224806 0)
(1.33822 0.0236485 0)
(1.15771 0.196589 0)
(1.34915 0.0312567 0)
(1.45853 -0.136385 0)
(1.51915 -0.273454 0)
(1.54935 -0.361919 0)
(1.55186 -0.365085 0)
(1.4993 -0.245023 0)
(1.39419 -0.0904038 0)
(1.36293 -0.0215428 0)
(1.34026 0.0268178 0)
(1.14059 0.193469 0)
(1.32553 0.0431065 0)
(1.43928 -0.118011 0)
(1.50661 -0.258399 0)
(1.54147 -0.357707 0)
(1.55267 -0.371055 0)
(1.51282 -0.270257 0)
(1.40463 -0.100141 0)
(1.36655 -0.0221833 0)
(1.34238 0.0302548 0)
(1.12578 0.189118 0)
(1.30379 0.05274 0)
(1.4183 -0.0992157 0)
(1.49114 -0.235547 0)
(1.5354 -0.350233 0)
(1.55065 -0.375112 0)
(1.52357 -0.294037 0)
(1.41761 -0.114214 0)
(1.37061 -0.0241277 0)
(1.3453 0.0315966 0)
(1.11462 0.185084 0)
(1.28449 0.0610367 0)
(1.40172 -0.0869342 0)
(1.47689 -0.218744 0)
(1.52818 -0.333193 0)
(1.54855 -0.376444 0)
(1.53154 -0.313433 0)
(1.43383 -0.132201 0)
(1.37553 -0.0270482 0)
(1.34865 0.0322397 0)
(1.10533 0.180694 0)
(1.26823 0.0672406 0)
(1.38448 -0.0714114 0)
(1.46292 -0.202194 0)
(1.51829 -0.316293 0)
(1.5451 -0.375215 0)
(1.53912 -0.329345 0)
(1.45343 -0.154294 0)
(1.38116 -0.0296943 0)
(1.35207 0.0339468 0)
(1.09803 0.176811 0)
(1.25332 0.0731383 0)
(1.36965 -0.0588452 0)
(1.45116 -0.187829 0)
(1.50899 -0.302227 0)
(1.54018 -0.3715 0)
(1.54698 -0.339358 0)
(1.47234 -0.17771 0)
(1.38773 -0.0324402 0)
(1.35601 0.0370245 0)
(1.09072 0.172805 0)
(1.24051 0.0775292 0)
(1.35481 -0.0461164 0)
(1.43728 -0.170243 0)
(1.50026 -0.286952 0)
(1.53683 -0.367622 0)
(1.55498 -0.346106 0)
(1.48634 -0.199404 0)
(1.39622 -0.0361204 0)
(1.36076 0.039527 0)
(1.08566 0.169417 0)
(1.22836 0.0820908 0)
(1.34229 -0.0363195 0)
(1.42653 -0.158068 0)
(1.48854 -0.266832 0)
(1.53675 -0.361823 0)
(1.55599 -0.34622 0)
(1.49942 -0.220018 0)
(1.41012 -0.0424525 0)
(1.36697 0.0413697 0)
(1.0806 0.165594 0)
(1.2178 0.0852022 0)
(1.32927 -0.0259635 0)
(1.41491 -0.144441 0)
(1.47978 -0.252308 0)
(1.53415 -0.348752 0)
(1.55508 -0.345629 0)
(1.51307 -0.238836 0)
(1.42922 -0.0498853 0)
(1.3737 0.0423009 0)
(1.07732 0.162091 0)
(1.20792 0.0878414 0)
(1.31852 -0.018465 0)
(1.40409 -0.132136 0)
(1.47055 -0.236466 0)
(1.53025 -0.33759 0)
(1.55439 -0.345583 0)
(1.52569 -0.256239 0)
(1.45378 -0.0600851 0)
(1.38045 0.0439679 0)
(1.07453 0.158628 0)
(1.19931 0.0892962 0)
(1.3072 -0.0104279 0)
(1.39409 -0.12069 0)
(1.46133 -0.221491 0)
(1.52208 -0.320792 0)
(1.5536 -0.344603 0)
(1.53603 -0.272883 0)
(1.47528 -0.0727163 0)
(1.38477 0.0449764 0)
(0.377877 0.130036 0)
(0.447568 0.162734 0)
(0.487646 0.215194 0)
(0.531806 0.25411 0)
(0.571399 0.287315 0)
(0.611376 0.315211 0)
(0.654219 0.34234 0)
(0.707364 0.369061 0)
(0.779908 0.405443 0)
(0.911105 0.441408 0)
(0.406224 0.156209 0)
(0.458568 0.177199 0)
(0.487256 0.217877 0)
(0.528158 0.252337 0)
(0.566774 0.285003 0)
(0.608001 0.312993 0)
(0.652561 0.34035 0)
(0.707404 0.367631 0)
(0.78164 0.402688 0)
(0.910048 0.429651 0)
(0.457633 0.150039 0)
(0.496898 0.163837 0)
(0.514087 0.195442 0)
(0.546578 0.226699 0)
(0.578698 0.260375 0)
(0.618229 0.290196 0)
(0.663779 0.320065 0)
(0.721438 0.348688 0)
(0.8005 0.383992 0)
(0.934578 0.398737 0)
(0.507639 0.15842 0)
(0.539836 0.176257 0)
(0.550674 0.205078 0)
(0.579176 0.228437 0)
(0.605712 0.255577 0)
(0.641125 0.280543 0)
(0.682577 0.307542 0)
(0.736807 0.333149 0)
(0.814291 0.364236 0)
(0.944708 0.370282 0)
(0.551035 0.157072 0)
(0.578153 0.174159 0)
(0.587347 0.201396 0)
(0.613899 0.223636 0)
(0.636522 0.250408 0)
(0.66974 0.274096 0)
(0.709091 0.299901 0)
(0.762533 0.32304 0)
(0.84 0.350977 0)
(0.965896 0.349418 0)
(0.587997 0.158933 0)
(0.610661 0.175302 0)
(0.618558 0.200444 0)
(0.643049 0.220612 0)
(0.663472 0.245489 0)
(0.695678 0.266831 0)
(0.733656 0.291101 0)
(0.786082 0.311565 0)
(0.861152 0.335527 0)
(0.978444 0.330798 0)
(0.619739 0.15853 0)
(0.638172 0.173536 0)
(0.644532 0.19585 0)
(0.666502 0.214028 0)
(0.685111 0.237246 0)
(0.716281 0.25675 0)
(0.752804 0.279551 0)
(0.803845 0.29781 0)
(0.875124 0.3182 0)
(0.98332 0.313017 0)
(0.646586 0.159686 0)
(0.66158 0.173026 0)
(0.667133 0.192543 0)
(0.687051 0.208563 0)
(0.70441 0.229708 0)
(0.734365 0.247043 0)
(0.769262 0.267982 0)
(0.818483 0.284183 0)
(0.885444 0.301284 0)
(0.984377 0.295661 0)
(0.668385 0.160467 0)
(0.681344 0.17212 0)
(0.687259 0.189348 0)
(0.706071 0.203616 0)
(0.722708 0.222721 0)
(0.751242 0.237834 0)
(0.784199 0.256568 0)
(0.830958 0.270732 0)
(0.893318 0.285092 0)
(0.982593 0.279385 0)
(0.688793 0.159453 0)
(0.700548 0.169148 0)
(0.706528 0.184297 0)
(0.723979 0.197539 0)
(0.739927 0.215231 0)
(0.767174 0.228847 0)
(0.79858 0.245804 0)
(0.843107 0.258406 0)
(0.901238 0.270412 0)
(0.982074 0.265256 0)
(0.710636 0.159759 0)
(0.721814 0.168859 0)
(0.727479 0.182194 0)
(0.742944 0.193257 0)
(0.757468 0.208346 0)
(0.782518 0.219811 0)
(0.811655 0.234647 0)
(0.853379 0.245968 0)
(0.90676 0.255988 0)
(0.980069 0.25183 0)
(0.731575 0.160413 0)
(0.742165 0.168566 0)
(0.747641 0.18025 0)
(0.761704 0.189623 0)
(0.775364 0.202691 0)
(0.798605 0.212345 0)
(0.825856 0.225206 0)
(0.864763 0.235253 0)
(0.914177 0.244272 0)
(0.979669 0.240087 0)
(0.750469 0.159297 0)
(0.760111 0.166333 0)
(0.765305 0.176505 0)
(0.778224 0.184537 0)
(0.791229 0.195996 0)
(0.813001 0.204357 0)
(0.838656 0.215617 0)
(0.875077 0.224935 0)
(0.920944 0.233146 0)
(0.981125 0.229947 0)
(0.76723 0.157662 0)
(0.775871 0.163755 0)
(0.781101 0.172784 0)
(0.793308 0.179788 0)
(0.805882 0.189888 0)
(0.826398 0.197146 0)
(0.850645 0.206979 0)
(0.884626 0.21542 0)
(0.92692 0.222955 0)
(0.981434 0.220467 0)
(0.781246 0.154888 0)
(0.789317 0.159741 0)
(0.795015 0.167699 0)
(0.806818 0.174173 0)
(0.818838 0.183226 0)
(0.837819 0.189514 0)
(0.860337 0.198107 0)
(0.891902 0.205871 0)
(0.931346 0.21323 0)
(0.981822 0.21181 0)
(0.793635 0.151833 0)
(0.8024 0.155476 0)
(0.808938 0.162896 0)
(0.820536 0.169544 0)
(0.832279 0.178289 0)
(0.850088 0.18391 0)
(0.871041 0.191241 0)
(0.899883 0.197915 0)
(0.936039 0.204443 0)
(0.982039 0.20382 0)
(0.809254 0.147097 0)
(0.818586 0.151544 0)
(0.824433 0.15893 0)
(0.83487 0.165226 0)
(0.845557 0.172968 0)
(0.861656 0.177798 0)
(0.880524 0.184147 0)
(0.90643 0.190134 0)
(0.939477 0.195967 0)
(0.983386 0.196534 0)
(0.820188 0.139812 0)
(0.829717 0.144624 0)
(0.835894 0.152587 0)
(0.846955 0.159789 0)
(0.858378 0.168342 0)
(0.874331 0.173645 0)
(0.892285 0.179491 0)
(0.916044 0.18462 0)
(0.945489 0.188747 0)
(0.984248 0.189163 0)
(0.829048 0.13491 0)
(0.838303 0.1399 0)
(0.84461 0.146875 0)
(0.85527 0.153019 0)
(0.86711 0.160637 0)
(0.883596 0.166877 0)
(0.901701 0.173678 0)
(0.924678 0.179277 0)
(0.952517 0.183387 0)
(0.987748 0.183742 0)
(0.834675 0.128818 0)
(0.843198 0.134121 0)
(0.849747 0.141186 0)
(0.860371 0.147104 0)
(0.87172 0.153726 0)
(0.886791 0.159532 0)
(0.903945 0.165983 0)
(0.926265 0.171811 0)
(0.954033 0.176436 0)
(0.989545 0.178299 0)
(1.66276 -2.12804e-07 0)
(1.64707 1.09256e-06 0)
(1.62884 -4.51704e-06 0)
(1.60768 1.10697e-05 0)
(1.58363 -3.2131e-05 0)
(1.54235 0.000125288 0)
(1.45948 -0.00037398 0)
(1.34537 0.000432476 0)
(0.855449 0.00417882 0)
(0.475266 0.0136898 0)
(1.66276 -6.36448e-07 0)
(1.64707 3.23105e-06 0)
(1.62884 -1.32682e-05 0)
(1.60768 3.20661e-05 0)
(1.58363 -9.29891e-05 0)
(1.54237 0.000357891 0)
(1.45971 -0.00109621 0)
(1.34506 0.00130906 0)
(0.859167 0.0121772 0)
(0.49842 0.0395874 0)
(1.66276 -1.05071e-06 0)
(1.64707 5.32515e-06 0)
(1.62884 -2.18055e-05 0)
(1.60768 5.27148e-05 0)
(1.58365 -0.000152492 0)
(1.54235 0.000593995 0)
(1.46017 -0.00183721 0)
(1.34504 0.00232035 0)
(0.864268 0.0188062 0)
(0.531087 0.0584128 0)
(1.66276 -1.44926e-06 0)
(1.64707 7.33801e-06 0)
(1.62884 -2.99386e-05 0)
(1.60768 7.24984e-05 0)
(1.58366 -0.000209469 0)
(1.54234 0.00083061 0)
(1.4607 -0.00262725 0)
(1.34507 0.00339644 0)
(0.868908 0.0251124 0)
(0.562176 0.0763771 0)
(1.66276 -1.82783e-06 0)
(1.64707 9.24945e-06 0)
(1.62884 -3.75677e-05 0)
(1.60768 9.11781e-05 0)
(1.58369 -0.000262794 0)
(1.54235 0.00106456 0)
(1.46129 -0.00343397 0)
(1.34523 0.00455243 0)
(0.87413 0.0306644 0)
(0.59173 0.0883683 0)
(1.66276 -2.18304e-06 0)
(1.64707 1.10441e-05 0)
(1.62884 -4.46268e-05 0)
(1.60768 0.000108578 0)
(1.58371 -0.00031187 0)
(1.54236 0.00129348 0)
(1.46184 -0.0042349 0)
(1.34567 0.0057486 0)
(0.879525 0.0357615 0)
(0.617312 0.0994291 0)
(1.66276 -2.51192e-06 0)
(1.64707 1.2711e-05 0)
(1.62884 -5.1076e-05 0)
(1.60768 0.000124577 0)
(1.58374 -0.000356256 0)
(1.54239 0.0015144 0)
(1.46228 -0.00499701 0)
(1.34643 0.00691456 0)
(0.885304 0.0403606 0)
(0.640902 0.106616 0)
(1.66276 -2.81204e-06 0)
(1.64707 1.4242e-05 0)
(1.62884 -5.68944e-05 0)
(1.60768 0.000139104 0)
(1.58377 -0.000395754 0)
(1.54243 0.00172449 0)
(1.4625 -0.00567921 0)
(1.34756 0.00798224 0)
(0.891464 0.044523 0)
(0.662476 0.113175 0)
(1.66276 -3.08134e-06 0)
(1.64707 1.56291e-05 0)
(1.62885 -6.20688e-05 0)
(1.60767 0.000152111 0)
(1.58379 -0.000430327 0)
(1.54247 0.00192331 0)
(1.4626 -0.0062527 0)
(1.34907 0.0089066 0)
(0.898128 0.0480284 0)
(0.683608 0.117279 0)
(1.66276 -3.31797e-06 0)
(1.64707 1.68642e-05 0)
(1.62885 -6.65902e-05 0)
(1.60767 0.000163567 0)
(1.58382 -0.000459862 0)
(1.54251 0.00210544 0)
(1.46261 -0.00668315 0)
(1.35093 0.00968629 0)
(0.904806 0.0508961 0)
(0.703312 0.122142 0)
(1.66276 -3.52036e-06 0)
(1.64707 1.79399e-05 0)
(1.62885 -7.04526e-05 0)
(1.60767 0.000173444 0)
(1.58384 -0.00048439 0)
(1.54256 0.00226844 0)
(1.46244 -0.00704555 0)
(1.35315 0.0103122 0)
(0.911474 0.0529919 0)
(0.721333 0.124505 0)
(1.66276 -3.68759e-06 0)
(1.64707 1.88504e-05 0)
(1.62885 -7.36593e-05 0)
(1.60767 0.000181725 0)
(1.58386 -0.000504047 0)
(1.54261 0.00241139 0)
(1.4621 -0.00730362 0)
(1.35572 0.0107616 0)
(0.917793 0.0544746 0)
(0.737616 0.126533 0)
(1.66276 -3.81958e-06 0)
(1.64707 1.95934e-05 0)
(1.62885 -7.62305e-05 0)
(1.60767 0.000188426 0)
(1.58388 -0.000519095 0)
(1.54266 0.00253391 0)
(1.46169 -0.00749127 0)
(1.35859 0.0109953 0)
(0.92368 0.055715 0)
(0.75256 0.127376 0)
(1.66276 -3.91751e-06 0)
(1.64707 2.01744e-05 0)
(1.62885 -7.81924e-05 0)
(1.60767 0.000193594 0)
(1.58389 -0.00052988 0)
(1.54271 0.00263496 0)
(1.46121 -0.00762413 0)
(1.36161 0.0110928 0)
(0.929422 0.0567298 0)
(0.766455 0.127868 0)
(1.66276 -3.98315e-06 0)
(1.64707 2.0597e-05 0)
(1.62885 -7.95854e-05 0)
(1.60767 0.000197323 0)
(1.5839 -0.000536864 0)
(1.54277 0.00271505 0)
(1.46063 -0.0077008 0)
(1.36481 0.0109942 0)
(0.935247 0.0574594 0)
(0.779198 0.127069 0)
(1.66276 -4.0182e-06 0)
(1.64708 2.08882e-05 0)
(1.62885 -8.04691e-05 0)
(1.60767 0.000199738 0)
(1.58391 -0.000540344 0)
(1.54282 0.00277598 0)
(1.45999 -0.00772336 0)
(1.36807 0.0107484 0)
(0.941105 0.0578272 0)
(0.789847 0.125962 0)
(1.66276 -4.02706e-06 0)
(1.64708 2.10372e-05 0)
(1.62885 -8.09308e-05 0)
(1.60767 0.000200984 0)
(1.58391 -0.000540174 0)
(1.54287 0.00281571 0)
(1.45926 -0.00769116 0)
(1.37132 0.0103605 0)
(0.947125 0.0581589 0)
(0.796892 0.123829 0)
(1.66276 -4.01536e-06 0)
(1.64708 2.10974e-05 0)
(1.62885 -8.10528e-05 0)
(1.60766 0.000201185 0)
(1.58391 -0.000537511 0)
(1.54292 0.00283962 0)
(1.45845 -0.00761301 0)
(1.37457 0.00978945 0)
(0.953697 0.0587101 0)
(0.802433 0.12023 0)
(1.66276 -3.98912e-06 0)
(1.64708 2.10546e-05 0)
(1.62885 -8.08638e-05 0)
(1.60766 0.000200459 0)
(1.58392 -0.000532561 0)
(1.54297 0.00284112 0)
(1.45755 -0.00747601 0)
(1.37784 0.00899483 0)
(0.96058 0.0589694 0)
(0.808282 0.116579 0)
(1.66276 -3.95073e-06 0)
(1.64708 2.09562e-05 0)
(1.62885 -8.0464e-05 0)
(1.60766 0.000199121 0)
(1.58392 -0.000525785 0)
(1.54301 0.00283362 0)
(1.45658 -0.00729124 0)
(1.38097 0.00796277 0)
(0.967223 0.0592365 0)
(0.814107 0.112215 0)
(1.66276 3.95074e-06 0)
(1.64708 -2.09562e-05 0)
(1.62885 8.04641e-05 0)
(1.60766 -0.000199121 0)
(1.58392 0.000525785 0)
(1.54301 -0.00283362 0)
(1.45658 0.00729124 0)
(1.38097 -0.0079628 0)
(0.967223 -0.0592366 0)
(0.814108 -0.112215 0)
(1.66276 3.98913e-06 0)
(1.64708 -2.10546e-05 0)
(1.62885 8.08639e-05 0)
(1.60766 -0.00020046 0)
(1.58392 0.000532561 0)
(1.54297 -0.00284112 0)
(1.45755 0.00747601 0)
(1.37784 -0.00899486 0)
(0.96058 -0.0589695 0)
(0.808283 -0.116578 0)
(1.66276 4.01537e-06 0)
(1.64708 -2.10974e-05 0)
(1.62885 8.10528e-05 0)
(1.60766 -0.000201185 0)
(1.58391 0.000537511 0)
(1.54292 -0.00283962 0)
(1.45845 0.00761301 0)
(1.37457 -0.00978949 0)
(0.953697 -0.0587102 0)
(0.802434 -0.12023 0)
(1.66276 4.02707e-06 0)
(1.64708 -2.10372e-05 0)
(1.62885 8.09308e-05 0)
(1.60767 -0.000200984 0)
(1.58391 0.000540174 0)
(1.54287 -0.00281571 0)
(1.45926 0.00769116 0)
(1.37132 -0.0103605 0)
(0.947125 -0.058159 0)
(0.796893 -0.123829 0)
(1.66276 4.01821e-06 0)
(1.64708 -2.08882e-05 0)
(1.62885 8.04692e-05 0)
(1.60767 -0.000199738 0)
(1.58391 0.000540344 0)
(1.54282 -0.00277598 0)
(1.45999 0.00772336 0)
(1.36807 -0.0107485 0)
(0.941105 -0.0578273 0)
(0.789848 -0.125962 0)
(1.66276 3.98316e-06 0)
(1.64707 -2.05971e-05 0)
(1.62885 7.95855e-05 0)
(1.60767 -0.000197324 0)
(1.5839 0.000536864 0)
(1.54277 -0.00271505 0)
(1.46063 0.0077008 0)
(1.36481 -0.0109942 0)
(0.935247 -0.0574595 0)
(0.779199 -0.127069 0)
(1.66276 3.91752e-06 0)
(1.64707 -2.01745e-05 0)
(1.62885 7.81924e-05 0)
(1.60767 -0.000193594 0)
(1.58389 0.00052988 0)
(1.54271 -0.00263496 0)
(1.46121 0.00762413 0)
(1.36161 -0.0110928 0)
(0.929421 -0.0567298 0)
(0.766456 -0.127868 0)
(1.66276 3.81958e-06 0)
(1.64707 -1.95934e-05 0)
(1.62885 7.62305e-05 0)
(1.60767 -0.000188426 0)
(1.58388 0.000519095 0)
(1.54266 -0.00253391 0)
(1.46169 0.00749128 0)
(1.35859 -0.0109953 0)
(0.92368 -0.055715 0)
(0.752561 -0.127376 0)
(1.66276 3.6876e-06 0)
(1.64707 -1.88504e-05 0)
(1.62885 7.36594e-05 0)
(1.60767 -0.000181725 0)
(1.58386 0.000504047 0)
(1.54261 -0.00241139 0)
(1.4621 0.00730363 0)
(1.35572 -0.0107616 0)
(0.917793 -0.0544745 0)
(0.737617 -0.126533 0)
(1.66276 3.52037e-06 0)
(1.64707 -1.79399e-05 0)
(1.62885 7.04526e-05 0)
(1.60767 -0.000173444 0)
(1.58384 0.00048439 0)
(1.54256 -0.00226844 0)
(1.46244 0.00704555 0)
(1.35315 -0.0103122 0)
(0.911474 -0.0529918 0)
(0.721334 -0.124505 0)
(1.66276 3.31798e-06 0)
(1.64707 -1.68643e-05 0)
(1.62885 6.65903e-05 0)
(1.60767 -0.000163567 0)
(1.58382 0.000459862 0)
(1.54251 -0.00210544 0)
(1.46261 0.00668315 0)
(1.35093 -0.00968628 0)
(0.904806 -0.050896 0)
(0.703313 -0.122142 0)
(1.66276 3.08134e-06 0)
(1.64707 -1.56291e-05 0)
(1.62885 6.20689e-05 0)
(1.60767 -0.000152111 0)
(1.58379 0.000430327 0)
(1.54247 -0.00192331 0)
(1.4626 0.0062527 0)
(1.34907 -0.00890658 0)
(0.898128 -0.0480283 0)
(0.683608 -0.117279 0)
(1.66276 2.81204e-06 0)
(1.64707 -1.4242e-05 0)
(1.62884 5.68945e-05 0)
(1.60768 -0.000139104 0)
(1.58377 0.000395754 0)
(1.54243 -0.00172449 0)
(1.4625 0.00567921 0)
(1.34756 -0.00798222 0)
(0.891464 -0.0445229 0)
(0.662477 -0.113175 0)
(1.66276 2.51192e-06 0)
(1.64707 -1.2711e-05 0)
(1.62884 5.10761e-05 0)
(1.60768 -0.000124577 0)
(1.58374 0.000356256 0)
(1.54239 -0.0015144 0)
(1.46228 0.00499701 0)
(1.34643 -0.00691453 0)
(0.885304 -0.0403605 0)
(0.640903 -0.106616 0)
(1.66276 2.18304e-06 0)
(1.64707 -1.10441e-05 0)
(1.62884 4.46269e-05 0)
(1.60768 -0.000108578 0)
(1.58371 0.00031187 0)
(1.54236 -0.00129348 0)
(1.46184 0.0042349 0)
(1.34567 -0.00574857 0)
(0.879525 -0.0357614 0)
(0.617312 -0.0994291 0)
(1.66276 1.82783e-06 0)
(1.64707 -9.24946e-06 0)
(1.62884 3.75677e-05 0)
(1.60768 -9.11781e-05 0)
(1.58369 0.000262794 0)
(1.54235 -0.00106456 0)
(1.46129 0.00343396 0)
(1.34523 -0.00455239 0)
(0.87413 -0.0306642 0)
(0.59173 -0.0883684 0)
(1.66276 1.44926e-06 0)
(1.64707 -7.33802e-06 0)
(1.62884 2.99387e-05 0)
(1.60768 -7.24985e-05 0)
(1.58366 0.000209469 0)
(1.54234 -0.00083061 0)
(1.4607 0.00262724 0)
(1.34507 -0.00339639 0)
(0.868908 -0.0251123 0)
(0.562177 -0.0763772 0)
(1.66276 1.05071e-06 0)
(1.64707 -5.32515e-06 0)
(1.62884 2.18056e-05 0)
(1.60768 -5.27148e-05 0)
(1.58365 0.000152492 0)
(1.54235 -0.000593995 0)
(1.46017 0.0018372 0)
(1.34504 -0.0023203 0)
(0.864268 -0.018806 0)
(0.531088 -0.0584128 0)
(1.66276 6.36446e-07 0)
(1.64707 -3.23105e-06 0)
(1.62884 1.32683e-05 0)
(1.60768 -3.20661e-05 0)
(1.58363 9.29893e-05 0)
(1.54237 -0.000357892 0)
(1.45971 0.0010962 0)
(1.34506 -0.00130902 0)
(0.859167 -0.012177 0)
(0.49842 -0.0395874 0)
(1.66276 2.12802e-07 0)
(1.64707 -1.09257e-06 0)
(1.62884 4.51707e-06 0)
(1.60768 -1.10697e-05 0)
(1.58363 3.21312e-05 0)
(1.54235 -0.000125288 0)
(1.45948 0.000373971 0)
(1.34537 -0.000432431 0)
(0.855449 -0.00417865 0)
(0.475266 -0.0136898 0)
(0.834675 -0.128819 0)
(0.8432 -0.134121 0)
(0.849748 -0.141187 0)
(0.860373 -0.147105 0)
(0.871721 -0.153726 0)
(0.886791 -0.159533 0)
(0.903945 -0.165985 0)
(0.926264 -0.171812 0)
(0.954029 -0.176439 0)
(0.989542 -0.178303 0)
(0.829049 -0.13491 0)
(0.838304 -0.1399 0)
(0.844611 -0.146875 0)
(0.855271 -0.153019 0)
(0.86711 -0.160638 0)
(0.883596 -0.166878 0)
(0.901699 -0.17368 0)
(0.924676 -0.179278 0)
(0.952512 -0.18339 0)
(0.987744 -0.183745 0)
(0.820188 -0.139812 0)
(0.829718 -0.144624 0)
(0.835895 -0.152588 0)
(0.846956 -0.159789 0)
(0.858379 -0.168342 0)
(0.874331 -0.173646 0)
(0.892283 -0.179493 0)
(0.916041 -0.184623 0)
(0.945484 -0.188749 0)
(0.984244 -0.189165 0)
(0.809254 -0.147097 0)
(0.818586 -0.151544 0)
(0.824433 -0.15893 0)
(0.83487 -0.165227 0)
(0.845557 -0.172968 0)
(0.861655 -0.177799 0)
(0.880522 -0.184148 0)
(0.906427 -0.190138 0)
(0.939474 -0.195969 0)
(0.983381 -0.196536 0)
(0.793636 -0.151833 0)
(0.8024 -0.155476 0)
(0.808939 -0.162896 0)
(0.820536 -0.169544 0)
(0.832278 -0.178289 0)
(0.850086 -0.183911 0)
(0.871038 -0.191243 0)
(0.899879 -0.197919 0)
(0.936036 -0.204445 0)
(0.982035 -0.203822 0)
(0.781247 -0.154888 0)
(0.789317 -0.159742 0)
(0.795016 -0.167699 0)
(0.806817 -0.174173 0)
(0.818837 -0.183227 0)
(0.837817 -0.189515 0)
(0.860335 -0.198109 0)
(0.891898 -0.205874 0)
(0.931343 -0.213233 0)
(0.981818 -0.211813 0)
(0.767231 -0.157663 0)
(0.775872 -0.163756 0)
(0.781101 -0.172785 0)
(0.793307 -0.179789 0)
(0.805881 -0.189889 0)
(0.826396 -0.197147 0)
(0.850642 -0.206981 0)
(0.884622 -0.215422 0)
(0.926916 -0.222958 0)
(0.981428 -0.22047 0)
(0.75047 -0.159298 0)
(0.760111 -0.166334 0)
(0.765304 -0.176506 0)
(0.778223 -0.184538 0)
(0.791228 -0.195997 0)
(0.812999 -0.204359 0)
(0.838653 -0.215618 0)
(0.875074 -0.224936 0)
(0.920939 -0.233148 0)
(0.981118 -0.229951 0)
(0.731576 -0.160414 0)
(0.742165 -0.168567 0)
(0.74764 -0.180251 0)
(0.761703 -0.189625 0)
(0.775362 -0.202692 0)
(0.798603 -0.212346 0)
(0.825853 -0.225208 0)
(0.864759 -0.235254 0)
(0.914171 -0.244273 0)
(0.979661 -0.240092 0)
(0.710636 -0.15976 0)
(0.721814 -0.16886 0)
(0.727479 -0.182195 0)
(0.742943 -0.193258 0)
(0.757466 -0.208348 0)
(0.782516 -0.219812 0)
(0.811652 -0.234648 0)
(0.853376 -0.245969 0)
(0.906753 -0.255989 0)
(0.980058 -0.251835 0)
(0.688793 -0.159454 0)
(0.700548 -0.169149 0)
(0.706528 -0.184298 0)
(0.723978 -0.197539 0)
(0.739925 -0.215231 0)
(0.767172 -0.228847 0)
(0.798576 -0.245804 0)
(0.843102 -0.258406 0)
(0.90123 -0.270414 0)
(0.982063 -0.265259 0)
(0.668385 -0.160467 0)
(0.681343 -0.17212 0)
(0.687258 -0.189348 0)
(0.70607 -0.203617 0)
(0.722706 -0.222722 0)
(0.75124 -0.237834 0)
(0.784196 -0.256569 0)
(0.830953 -0.270732 0)
(0.893311 -0.285094 0)
(0.98259 -0.279378 0)
(0.646586 -0.159686 0)
(0.66158 -0.173026 0)
(0.667133 -0.192543 0)
(0.68705 -0.208564 0)
(0.704409 -0.229708 0)
(0.734363 -0.247043 0)
(0.769259 -0.267982 0)
(0.818478 -0.284183 0)
(0.88544 -0.301286 0)
(0.984386 -0.295649 0)
(0.619739 -0.15853 0)
(0.638172 -0.173536 0)
(0.644532 -0.19585 0)
(0.666501 -0.214028 0)
(0.685109 -0.237247 0)
(0.716279 -0.25675 0)
(0.752801 -0.279551 0)
(0.80384 -0.29781 0)
(0.875122 -0.3182 0)
(0.983332 -0.313008 0)
(0.587997 -0.158933 0)
(0.610661 -0.175302 0)
(0.618558 -0.200444 0)
(0.643048 -0.220612 0)
(0.663471 -0.245489 0)
(0.695676 -0.266831 0)
(0.733653 -0.291101 0)
(0.786078 -0.311564 0)
(0.861151 -0.335525 0)
(0.978448 -0.330794 0)
(0.551036 -0.157072 0)
(0.578153 -0.174159 0)
(0.587347 -0.201396 0)
(0.613898 -0.223636 0)
(0.636521 -0.250408 0)
(0.669738 -0.274096 0)
(0.709088 -0.299901 0)
(0.76253 -0.323039 0)
(0.839996 -0.350974 0)
(0.965879 -0.349434 0)
(0.507639 -0.15842 0)
(0.539836 -0.176257 0)
(0.550674 -0.205078 0)
(0.579175 -0.228437 0)
(0.605711 -0.255577 0)
(0.641124 -0.280543 0)
(0.682575 -0.307542 0)
(0.736805 -0.333148 0)
(0.814283 -0.364231 0)
(0.944685 -0.370298 0)
(0.457633 -0.15004 0)
(0.496898 -0.163838 0)
(0.514086 -0.195442 0)
(0.546577 -0.226699 0)
(0.578697 -0.260375 0)
(0.618227 -0.290196 0)
(0.663777 -0.320065 0)
(0.721437 -0.348688 0)
(0.800496 -0.38399 0)
(0.934562 -0.398739 0)
(0.406224 -0.156209 0)
(0.458568 -0.177199 0)
(0.487256 -0.217877 0)
(0.528157 -0.252337 0)
(0.566773 -0.285003 0)
(0.607999 -0.312993 0)
(0.652559 -0.34035 0)
(0.707403 -0.36763 0)
(0.781638 -0.402686 0)
(0.910046 -0.429644 0)
(0.377877 -0.130036 0)
(0.447568 -0.162734 0)
(0.487646 -0.215194 0)
(0.531806 -0.25411 0)
(0.571399 -0.287315 0)
(0.611375 -0.315211 0)
(0.654217 -0.34234 0)
(0.707362 -0.36906 0)
(0.779906 -0.405442 0)
(0.911111 -0.441394 0)
(1.07452 -0.158627 0)
(1.19931 -0.0892942 0)
(1.30719 0.0104065 0)
(1.39412 0.120726 0)
(1.46133 0.221547 0)
(1.52204 0.320771 0)
(1.5536 0.344613 0)
(1.53608 0.272778 0)
(1.47526 0.0729385 0)
(1.38471 -0.0450669 0)
(1.07731 -0.162091 0)
(1.20791 -0.0878464 0)
(1.31853 0.018468 0)
(1.40411 0.132128 0)
(1.47055 0.236499 0)
(1.53024 0.337572 0)
(1.55438 0.345637 0)
(1.52562 0.255859 0)
(1.45363 0.0600076 0)
(1.38039 -0.0439822 0)
(1.0806 -0.165598 0)
(1.2178 -0.0851929 0)
(1.32926 0.0259478 0)
(1.41492 0.144405 0)
(1.47981 0.252405 0)
(1.53416 0.348772 0)
(1.55507 0.345694 0)
(1.51312 0.2388 0)
(1.42927 0.0496611 0)
(1.37376 -0.04207 0)
(1.08565 -0.169425 0)
(1.22836 -0.0820922 0)
(1.34229 0.036305 0)
(1.42658 0.158083 0)
(1.48855 0.266894 0)
(1.53671 0.36179 0)
(1.556 0.346252 0)
(1.49919 0.219605 0)
(1.41006 0.0422261 0)
(1.36714 -0.0409222 0)
(1.09072 -0.172815 0)
(1.24052 -0.0775256 0)
(1.35481 0.0461049 0)
(1.43731 0.170263 0)
(1.50027 0.287007 0)
(1.53679 0.367459 0)
(1.555 0.346075 0)
(1.48619 0.198628 0)
(1.39642 0.0362875 0)
(1.36083 -0.0393594 0)
(1.09803 -0.176818 0)
(1.25332 -0.0731485 0)
(1.36965 0.0588628 0)
(1.45119 0.187861 0)
(1.50899 0.302162 0)
(1.54014 0.371467 0)
(1.54701 0.339269 0)
(1.47202 0.176059 0)
(1.38794 0.0325302 0)
(1.35602 -0.0372642 0)
(1.10533 -0.180699 0)
(1.26825 -0.0672248 0)
(1.38445 0.0713721 0)
(1.46297 0.202213 0)
(1.51835 0.316407 0)
(1.54502 0.375299 0)
(1.53914 0.329236 0)
(1.45339 0.153536 0)
(1.38145 0.0298076 0)
(1.35212 -0.0341019 0)
(1.11462 -0.185089 0)
(1.28448 -0.0610602 0)
(1.40174 0.0869353 0)
(1.47697 0.218861 0)
(1.52817 0.333183 0)
(1.54847 0.37646 0)
(1.53148 0.313011 0)
(1.4334 0.132212 0)
(1.37553 0.0269386 0)
(1.34836 -0.0318469 0)
(1.12577 -0.189133 0)
(1.30381 -0.0527472 0)
(1.41829 0.0991871 0)
(1.49118 0.235585 0)
(1.5355 0.350237 0)
(1.55066 0.375014 0)
(1.52371 0.293945 0)
(1.41764 0.115042 0)