/*--------------------------------*- C++ -*----------------------------------*\
  =========                 |
  \\      /  F ield         | OpenFOAM: The Open Source CFD Toolbox
   \\    /   O peration     | Website:  https://openfoam.org
    \\  /    A nd           | Version:  8
     \\/     M anipulation  |
\*---------------------------------------------------------------------------*/
FoamFile
{
    version     2.0;
    format      ascii;
    class       volScalarField;
    location    "0.8";
    object      rho;
}
// * * * * * * * * * * * * * * * * * * * * * * * * * * * * * * * * * * * * * //

dimensions      [1 -3 0 0 0 0 0];

internalField   nonuniform List<scalar> 
2600
(
0.736981
0.69684
0.677147
0.726783
0.814893
1.02233
1.31883
1.42884
1.43201
1.42409
0.739549
0.682781
0.659241
0.709395
0.798797
1.00878
1.30726
1.42364
1.42006
1.41158
0.748112
0.681616
0.649422
0.692654
0.777079
0.983565
1.29123
1.41968
1.41002
1.4013
0.753158
0.679517
0.644423
0.676277
0.753777
0.949753
1.27106
1.41018
1.39411
1.38948
0.757276
0.67672
0.638712
0.662311
0.729921
0.916704
1.24598
1.38752
1.37106
1.37595
0.759973
0.673504
0.633198
0.652156
0.713891
0.894363
1.21869
1.36171
1.34922
1.36366
0.75922
0.669988
0.630332
0.648462
0.709183
0.8904
1.19754
1.33695
1.32952
1.35463
0.760268
0.672531
0.629133
0.649611
0.711903
0.896123
1.18822
1.31887
1.31612
1.3493
0.760287
0.673892
0.62841
0.652814
0.718416
0.903952
1.18913
1.31438
1.31188
1.34771
0.761836
0.676285
0.629829
0.654414
0.721722
0.908864
1.18889
1.31219
1.31006
1.3473
0.761775
0.676249
0.629762
0.654395
0.721687
0.908857
1.18894
1.31233
1.30965
1.34721
0.760241
0.674233
0.629681
0.652927
0.718405
0.903944
1.18926
1.31452
1.3116
1.34759
0.760323
0.672502
0.628556
0.649527
0.712044
0.896245
1.18837
1.31883
1.31613
1.34936
0.759257
0.669955
0.630213
0.648367
0.70927
0.890682
1.19776
1.33696
1.32966
1.3547
0.75995
0.673459
0.633438
0.651999
0.713964
0.894579
1.21882
1.3617
1.3493
1.36365
0.757268
0.676372
0.637837
0.662166
0.729881
0.91703
1.24623
1.38759
1.371
1.37591
0.753188
0.679325
0.644211
0.676226
0.753707
0.949887
1.27133
1.4104
1.39413
1.38948
0.748153
0.681609
0.649361
0.692692
0.77705
0.983236
1.29087
1.4197
1.41009
1.40132
0.739596
0.682894
0.659557
0.7094
0.79874
1.00898
1.30713
1.42351
1.42004
1.41159
0.737041
0.696852
0.677189
0.726827
0.8146
1.02236
1.31903
1.42882
1.43195
1.42409
0.867375
0.719563
0.711294
0.742938
0.823964
1.02841
1.32451
1.43233
1.44723
1.44361
1.01654
0.770618
0.754981
0.759089
0.826439
1.03041
1.32394
1.43361
1.46327
1.46852
1.14722
0.831942
0.788271
0.77084
0.825119
1.02679
1.32037
1.43773
1.4786
1.48826
1.2471
0.898558
0.817555
0.782422
0.822924
1.01357
1.31857
1.4474
1.49254
1.50079
1.32688
0.967349
0.844053
0.794089
0.821356
0.994085
1.31896
1.46091
1.50517
1.50833
1.38813
1.0294
0.873134
0.806839
0.822511
0.971792
1.31869
1.47618
1.51549
1.51263
1.43882
1.08533
0.901957
0.821658
0.822878
0.949291
1.3169
1.48971
1.52313
1.51467
1.48129
1.13441
0.932291
0.838834
0.822094
0.931066
1.31594
1.50107
1.52921
1.51611
1.51729
1.18023
0.965494
0.855547
0.822807
0.916151
1.31639
1.51111
1.53432
1.51654
1.5484
1.2218
0.99866
0.875678
0.824491
0.906076
1.31773
1.51946
1.53754
1.5148
1.5749
1.25999
1.03386
0.899112
0.828071
0.89976
1.3185
1.52522
1.53847
1.51221
1.59781
1.29426
1.06829
0.9232
0.833434
0.89522
1.31831
1.52875
1.5385
1.50895
1.61715
1.32564
1.1021
0.949636
0.841365
0.902505
1.31774
1.53159
1.5384
1.50233
1.63378
1.3539
1.13481
0.974881
0.85017
0.909702
1.31563
1.53314
1.53655
1.49561
1.64842
1.37952
1.16651
1.00042
0.861468
0.92149
1.31238
1.53309
1.53191
1.48802
1.66129
1.40346
1.19607
1.02439
0.873286
0.937374
1.30791
1.53161
1.52544
1.47896
1.67334
1.42566
1.22453
1.04741
0.886345
0.957007
1.30131
1.5284
1.51778
1.47003
1.68451
1.44713
1.2511
1.06825
0.901492
0.979164
1.2929
1.52377
1.51088
1.46247
1.69539
1.46776
1.27548
1.08839
0.920703
1.00268
1.28395
1.51797
1.50474
1.45632
1.70575
1.48778
1.29843
1.10803
0.944399
1.02646
1.2752
1.51033
1.49875
1.45164
2.63261
2.54203
2.47664
2.41296
2.35117
2.29036
2.22423
2.14919
2.04185
1.9069
2.51663
2.43198
2.39025
2.34297
2.29523
2.24225
2.18026
2.10283
1.99152
1.83034
2.48992
2.42791
2.39346
2.34826
2.30267
2.25084
2.18888
2.11012
1.99815
1.84384
2.44865
2.40075
2.37146
2.33043
2.28912
2.23837
2.17702
2.09762
1.98764
1.83094
2.41204
2.37261
2.34753
2.30924
2.27024
2.22085
2.16166
2.08345
1.97692
1.82144
2.37526
2.34136
2.31876
2.2836
2.24799
2.20094
2.14465
2.06839
1.96654
1.81616
2.34011
2.31126
2.29131
2.25932
2.2265
2.18141
2.12802
2.05411
1.95729
1.81544
2.30487
2.28054
2.26297
2.23429
2.20437
2.16183
2.11165
2.04061
1.9491
1.81676
2.26905
2.24962
2.23505
2.21024
2.18342
2.14353
2.09639
2.02835
1.94215
1.81942
2.23115
2.21739
2.2067
2.18613
2.16247
2.12546
2.08141
2.01677
1.93585
1.82267
2.19385
2.18601
2.17962
2.16319
2.14241
2.10814
2.06692
2.00576
1.92994
1.82567
2.16799
2.16188
2.15688
2.14245
2.12343
2.09149
2.05281
1.99519
1.92413
1.82787
2.15517
2.14762
2.14017
2.12504
2.10652
2.07627
2.03967
1.98535
1.9188
1.82972
2.1471
2.13769
2.12763
2.11119
2.09226
2.06289
2.02788
1.97656
1.91401
1.83127
2.14374
2.13172
2.11962
2.10166
2.08143
2.05211
2.01806
1.96924
1.91027
1.83311
2.14056
2.12647
2.11336
2.09467
2.07349
2.04412
2.01059
1.96376
1.90756
1.83502
2.13261
2.11855
2.1059
2.08775
2.06672
2.03787
2.00487
1.95971
1.90604
1.83755
2.12187
2.10869
2.09701
2.07996
2.05987
2.0322
2.00011
1.95665
1.90507
1.84034
2.1101
2.09772
2.08684
2.07093
2.05191
2.02559
1.99471
1.95325
1.90411
1.84318
2.09794
2.08613
2.07565
2.06069
2.04287
2.01819
1.98904
1.94983
1.9032
1.84596
1.41319
1.46796
1.53974
1.56029
1.55904
1.55284
1.54346
1.53727
1.90817
2.27207
1.41319
1.46796
1.53974
1.56029
1.55904
1.55284
1.5435
1.53697
1.90676
2.26713
1.41319
1.46796
1.53974
1.56029
1.55904
1.55285
1.54354
1.53637
1.90469
2.26112
1.41319
1.46796
1.53974
1.56029
1.55904
1.55285
1.5436
1.5355
1.90149
2.25392
1.41319
1.46796
1.53974
1.56029
1.55903
1.55286
1.54367
1.53444
1.89726
2.24603
1.41319
1.46796
1.53975
1.56029
1.55903
1.55287
1.54374
1.53327
1.89188
2.23684
1.41319
1.46796
1.53975
1.56029
1.55902
1.55288
1.5438
1.53214
1.88543
2.22705
1.41319
1.46796
1.53975
1.56029
1.55902
1.55288
1.54386
1.5311
1.87781
2.21647
1.41319
1.46796
1.53976
1.56029
1.55901
1.55289
1.54391
1.5304
1.86911
2.20568
1.41319
1.46795
1.53976
1.56029
1.55901
1.5529
1.54396
1.5299
1.85929
2.19491
1.41319
1.46795
1.53977
1.56029
1.559
1.5529
1.54401
1.52981
1.84828
2.18473
1.41319
1.46795
1.53977
1.56029
1.55899
1.5529
1.54404
1.52988
1.83568
2.17461
1.41319
1.46795
1.53978
1.56029
1.55899
1.5529
1.54406
1.53001
1.82156
2.16416
1.41319
1.46795
1.53978
1.56029
1.55898
1.5529
1.54408
1.53013
1.80664
2.1531
1.41319
1.46795
1.53979
1.56028
1.55897
1.5529
1.54409
1.53025
1.79112
2.14083
1.41319
1.46795
1.5398
1.56028
1.55897
1.5529
1.5441
1.53036
1.77517
2.1275
1.41319
1.46795
1.53981
1.56027
1.55896
1.5529
1.54411
1.53046
1.75918
2.11336
1.41319
1.46794
1.53982
1.56027
1.55896
1.55289
1.54411
1.53057
1.74326
2.09856
1.41319
1.46794
1.53983
1.56026
1.55896
1.55289
1.5441
1.53067
1.72747
2.08325
1.41319
1.46794
1.53984
1.56025
1.55896
1.55288
1.5441
1.53077
1.71187
2.06769
1.41319
1.46794
1.53984
1.56025
1.55896
1.55288
1.5441
1.53077
1.71187
2.06769
1.41319
1.46794
1.53983
1.56026
1.55896
1.55289
1.5441
1.53067
1.72747
2.08325
1.41319
1.46794
1.53982
1.56027
1.55896
1.55289
1.54411
1.53057
1.74326
2.09856
1.41319
1.46795
1.53981
1.56027
1.55896
1.5529
1.54411
1.53046
1.75918
2.11336
1.41319
1.46795
1.5398
1.56028
1.55897
1.5529
1.5441
1.53036
1.77517
2.12751
1.41319
1.46795
1.53979
1.56028
1.55897
1.5529
1.5441
1.53025
1.79112
2.14083
1.41319
1.46795
1.53978
1.56029
1.55898
1.5529
1.54408
1.53013
1.80664
2.1531
1.41319
1.46795
1.53978
1.56029
1.55899
1.5529
1.54406
1.53001
1.82156
2.16416
1.41319
1.46795
1.53977
1.56029
1.55899
1.5529
1.54404
1.52988
1.83568
2.17461
1.41319
1.46795
1.53977
1.56029
1.559
1.5529
1.54401
1.52981
1.84828
2.18473
1.41319
1.46795
1.53976
1.56029
1.55901
1.5529
1.54396
1.5299
1.85929
2.19491
1.41319
1.46796
1.53976
1.56029
1.55901
1.55289
1.54391
1.5304
1.86911
2.20568
1.41319
1.46796
1.53975
1.56029
1.55902
1.55288
1.54386
1.5311
1.87781
2.21647
1.41319
1.46796
1.53975
1.56029
1.55902
1.55288
1.5438
1.53214
1.88543
2.22705
1.41319
1.46796
1.53975
1.56029
1.55903
1.55287
1.54374
1.53327
1.89188
2.23684
1.41319
1.46796
1.53974
1.56029
1.55903
1.55286
1.54366
1.53444
1.89726
2.24603
1.41319
1.46796
1.53974
1.56029
1.55904
1.55285
1.5436
1.5355
1.90149
2.25392
1.41319
1.46796
1.53974
1.56029
1.55904
1.55285
1.54354
1.53637
1.90469
2.26112
1.41319
1.46796
1.53974
1.56029
1.55904
1.55284
1.5435
1.53697
1.90676
2.26713
1.41319
1.46796
1.53974
1.56029
1.55904
1.55284
1.54346
1.53727
1.90817
2.27207
2.09794
2.08613
2.07565
2.06069
2.04287
2.01819
1.98904
1.94983
1.9032
1.84596
2.1101
2.09772
2.08684
2.07093
2.05191
2.02559
1.99471
1.95325
1.90411
1.84318
2.12187
2.10869
2.09701
2.07996
2.05987
2.0322
2.00011
1.95665
1.90507
1.84034
2.13262
2.11855
2.1059
2.08775
2.06672
2.03787
2.00487
1.95972
1.90604
1.83755
2.14056
2.12647
2.11336
2.09467
2.07349
2.04412
2.01059
1.96376
1.90756
1.83502
2.14375
2.13172
2.11962
2.10166
2.08143
2.05211
2.01806
1.96924
1.91028
1.83311
2.1471
2.13769
2.12763
2.11119
2.09227
2.06289
2.02789
1.97656
1.91401
1.83126
2.15517
2.14762
2.14017
2.12504
2.10652
2.07627
2.03967
1.98535
1.9188
1.82971
2.16799
2.16188
2.15688
2.14245
2.12343
2.09149
2.05281
1.99519
1.92412
1.82787
2.19385
2.18601
2.17962
2.16319
2.14241
2.10814
2.06692
2.00576
1.92994
1.82566
2.23115
2.21739
2.2067
2.18613
2.16247
2.12546
2.08141
2.01676
1.93585
1.82266
2.26905
2.24962
2.23505
2.21024
2.18343
2.14353
2.09639
2.02835
1.94215
1.81942
2.30487
2.28054
2.26297
2.23429
2.20437
2.16183
2.11165
2.04061
1.9491
1.81676
2.34011
2.31126
2.29131
2.25932
2.2265
2.18141
2.12802
2.05411
1.95728
1.81544
2.37526
2.34136
2.31876
2.2836
2.24799
2.20094
2.14465
2.06839
1.96654
1.81616
2.41204
2.37261
2.34754
2.30924
2.27024
2.22085
2.16166
2.08345
1.97692
1.82143
2.44865
2.40075
2.37146
2.33043
2.28912
2.23837
2.17701
2.09762
1.98763
1.83094
2.48993
2.42791
2.39346
2.34826
2.30268
2.25084
2.18888
2.11012
1.99815
1.84385
2.51663
2.43198
2.39025
2.34297
2.29523
2.24225
2.18025
2.10283
1.99152
1.83034
2.63261
2.54203
2.47664
2.41296
2.35117
2.29036
2.22423
2.14919
2.04185
1.9069
1.70575
1.48779
1.29843
1.10805
0.94441
1.02642
1.27507
1.51023
1.49867
1.45163
1.69539
1.46777
1.27549
1.0884
0.920737
1.00265
1.28397
1.51796
1.50469
1.4563
1.68452
1.44714
1.2511
1.06823
0.901529
0.979206
1.29314
1.52389
1.51088
1.46246
1.67334
1.42566
1.22453
1.04737
0.886374
0.957133
1.30154
1.52854
1.51779
1.47003
1.66129
1.40344
1.19607
1.02432
0.873287
0.937507
1.30786
1.53164
1.52549
1.47898
1.64841
1.3795
1.1665
1.00037
0.861446
0.921476
1.31214
1.53302
1.53192
1.48804
1.63377
1.35389
1.1348
0.974874
0.850102
0.909561
1.31548
1.53303
1.53654
1.4956
1.61714
1.32566
1.10209
0.949695
0.841225
0.902308
1.31774
1.53161
1.5384
1.50231
1.59781
1.2943
1.06828
0.923311
0.833268
0.894977
1.31835
1.52889
1.53855
1.50895
1.5749
1.26004
1.03385
0.899189
0.827894
0.89959
1.31843
1.52523
1.53852
1.51223
1.5484
1.22182
0.998649
0.875677
0.824422
0.906114
1.31766
1.51936
1.53752
1.51482
1.5173
1.18018
0.965495
0.855509
0.822855
0.91638
1.31652
1.51108
1.53428
1.51654
1.4813
1.13432
0.932324
0.838754
0.822231
0.931357
1.31618
1.50112
1.52919
1.51611
1.43882
1.08528
0.901999
0.82164
0.823047
0.94943
1.31694
1.48971
1.52313
1.51467
1.38812
1.02943
0.873135
0.806984
0.82267
0.971713
1.31848
1.47609
1.51548
1.51263
1.32688
0.967419
0.844028
0.794233
0.821447
0.993895
1.31868
1.46086
1.50517
1.50833
1.2471
0.898541
0.817529
0.782443
0.822908
1.01354
1.31854
1.44743
1.49256
1.50079
1.14724
0.831754
0.788199
0.770693
0.824961
1.027
1.32062
1.43778
1.47861
1.48827
1.01654
0.770477
0.754834
0.758903
0.826384
1.03082
1.32416
1.43362
1.46326
1.46852
0.867325
0.719626
0.711187
0.742805
0.824153
1.02875
1.3245
1.43228
1.44724
1.44361
2.13149
2.01891
1.88548
1.74524
1.59802
1.44583
1.29508
1.19737
1.19476
1.27322
2.12376
2.01668
1.88407
1.74319
1.59578
1.44412
1.29365
1.19946
1.20151
1.27597
2.12562
2.01705
1.88139
1.73979
1.59225
1.44114
1.2912
1.1941
1.19869
1.28141
2.11949
2.01594
1.87819
1.73542
1.58753
1.43709
1.28782
1.19209
1.20066
1.28625
2.10802
2.01576
1.87509
1.73018
1.58174
1.43144
1.28303
1.19377
1.20566
1.28892
2.07845
2.01145
1.87241
1.72468
1.57471
1.42369
1.27714
1.19904
1.2149
1.28964
2.02749
2.0014
1.87013
1.7185
1.56607
1.4138
1.27071
1.20704
1.22923
1.29001
1.95926
1.97847
1.86673
1.71074
1.55565
1.4015
1.26424
1.218
1.24605
1.294
1.8888
1.93703
1.85657
1.70146
1.54362
1.38688
1.25842
1.2304
1.26551
1.30058
1.83357
1.87537
1.83729
1.69074
1.53017
1.36976
1.25389
1.24347
1.28628
1.30993
1.80045
1.80274
1.79937
1.67661
1.51498
1.35063
1.25031
1.25657
1.30868
1.32225
1.78413
1.73361
1.73926
1.65358
1.49452
1.32854
1.2473
1.27022
1.33262
1.33686
1.77846
1.6823
1.66073
1.61744
1.46756
1.30423
1.24553
1.28579
1.35701
1.35288
1.77682
1.64818
1.57974
1.56256
1.43497
1.27987
1.241
1.30566
1.38048
1.36877
1.775
1.6282
1.51066
1.48689
1.39186
1.25426
1.23456
1.33022
1.40129
1.38292
1.77157
1.6133
1.45847
1.3985
1.334
1.22621
1.22863
1.35901
1.41941
1.39532
1.76493
1.59749
1.42279
1.31387
1.26051
1.18846
1.22501
1.39325
1.43713
1.40634
1.75417
1.57763
1.39308
1.24063
1.17177
1.14886
1.23246
1.43065
1.45521
1.41767
1.7393
1.55015
1.36423
1.18503
1.07666
1.10795
1.24378
1.46537
1.47256
1.42987
1.72109
1.5164
1.32896
1.13912
0.994392
1.06154
1.26196
1.49357
1.48865
1.44297
1.7211
1.5164
1.32896
1.13911
0.994406
1.06156
1.26205
1.49363
1.48865
1.44296
1.7393
1.55016
1.36423
1.18504
1.07667
1.10794
1.24374
1.46534
1.47253
1.42986
1.75417
1.57763
1.39308
1.24064
1.17176
1.14885
1.23244
1.43062
1.45519
1.41767
1.76493
1.59749
1.42279
1.31387
1.2605
1.18846
1.22501
1.39325
1.43713
1.40634
1.77157
1.6133
1.45847
1.3985
1.334
1.22621
1.22863
1.35902
1.41942
1.39532
1.775
1.6282
1.51066
1.48689
1.39187
1.25426
1.23456
1.33022
1.40129
1.38292
1.77682
1.64818
1.57974
1.56256
1.43497
1.27988
1.241
1.30566
1.38048
1.36877
1.77846
1.6823
1.66073
1.61745
1.46756
1.30423
1.24553
1.28579
1.35701
1.35288
1.78413
1.73361
1.73926
1.65358
1.49452
1.32854
1.2473
1.27022
1.33262
1.33686
1.80045
1.80274
1.79937
1.67661
1.51498
1.35063
1.25031
1.25657
1.30868
1.32225
1.83357
1.87537
1.83729
1.69074
1.53017
1.36977
1.25389
1.24347
1.28628
1.30993
1.8888
1.93703
1.85657
1.70146
1.54362
1.38688
1.25842
1.2304
1.26551
1.30058
1.95926
1.97847
1.86673
1.71074
1.55565
1.4015
1.26424
1.218
1.24605
1.294
2.02749
2.0014
1.87013
1.7185
1.56607
1.4138
1.27071
1.20704
1.22923
1.29001
2.07845
2.01145
1.87241
1.72468
1.57471
1.42369
1.27714
1.19904
1.2149
1.28964
2.10802
2.01576
1.87509
1.73018
1.58174
1.43144
1.28303
1.19377
1.20566
1.28892
2.11949
2.01594
1.87819
1.73542
1.58753
1.43709
1.28782
1.19209
1.20066
1.28625
2.12562
2.01705
1.88139
1.73979
1.59225
1.44114
1.2912
1.1941
1.19869
1.28141
2.12376
2.01668
1.88407
1.74319
1.59578
1.44412
1.29365
1.19946
1.20151
1.27597
2.13149
2.01891
1.88548
1.74524
1.59802
1.44583
1.29508
1.19737
1.19476
1.27322
2.08213
2.07124
2.06079
2.04625
2.02967
2.00685
1.98017
1.94449
1.90175
1.8502
2.06047
2.0521
2.04287
2.02908
2.01441
1.99446
1.97107
1.93977
1.90162
1.85639
2.03586
2.03157
2.02644
2.01479
2.00167
1.98446
1.9636
1.93602
1.90163
1.86094
2.01694
2.01138
2.00952
2.0017
1.99091
1.97602
1.95689
1.93241
1.90112
1.86322
2.0162
2.00557
1.99901
1.99108
1.9813
1.96747
1.94956
1.92735
1.89872
1.86339
2.02097
2.00359
1.99389
1.98315
1.97186
1.95785
1.94076
1.92033
1.89448
1.86178
2.02458
2.00325
1.98967
1.97581
1.96255
1.94821
1.93149
1.91229
1.88856
1.85852
2.02419
2.00113
1.98524
1.96971
1.955
1.94019
1.92345
1.90479
1.8823
1.85329
2.01697
1.99572
1.98017
1.96438
1.94905
1.93368
1.91667
1.89804
1.87606
1.8477
2.00183
1.98677
1.9732
1.9587
1.94381
1.92908
1.91299
1.8947
1.87232
1.84423
1.97708
1.97675
1.9654
1.95332
1.93987
1.92681
1.91228
1.89431
1.8712
1.8458
1.9436
1.9615
1.95492
1.94431
1.93429
1.92522
1.91323
1.89497
1.87202
1.85524
1.89812
1.94166
1.94305
1.9366
1.93107
1.92634
1.91482
1.8964
1.87906
1.88579
1.83716
1.91309
1.9308
1.93118
1.93078
1.92656
1.91459
1.90034
1.90228
1.95382
1.76113
1.8569
1.91313
1.92947
1.93192
1.92381
1.91406
1.91509
1.96669
2.04757
1.69077
1.76621
1.87117
1.92229
1.92949
1.9199
1.92187
1.97299
2.07355
2.12985
1.64043
1.67794
1.78327
1.88972
1.91556
1.92244
1.97089
2.08722
2.17061
2.17792
1.60901
1.62479
1.68008
1.80061
1.88204
1.95216
2.08804
2.19693
2.22224
2.1994
1.59126
1.59941
1.62013
1.68787
1.81585
2.01917
2.21442
2.2575
2.2392
2.19716
1.58173
1.58795
1.59763
1.62639
1.74647
2.06691
2.28279
2.30275
2.26138
2.21084
1.41319
1.46794
1.53985
1.56024
1.55896
1.55288
1.54409
1.53089
1.69267
2.04825
1.41319
1.46794
1.53987
1.56022
1.55896
1.55287
1.54408
1.53103
1.67009
2.02425
1.41319
1.46794
1.53988
1.5602
1.55896
1.55285
1.54408
1.53115
1.64833
2.0005
1.41319
1.46794
1.5399
1.56018
1.55896
1.55284
1.54408
1.53126
1.62731
1.97675
1.41319
1.46793
1.53991
1.56016
1.55897
1.55282
1.54408
1.53137
1.60682
1.94995
1.41319
1.46793
1.53992
1.56014
1.55897
1.55279
1.54409
1.53144
1.58732
1.92181
1.41319
1.46793
1.53993
1.56012
1.55898
1.55275
1.54414
1.53152
1.5696
1.89343
1.41319
1.46793
1.53994
1.5601
1.559
1.55269
1.54421
1.53169
1.55494
1.86287
1.41319
1.46793
1.53994
1.56008
1.55903
1.55261
1.54435
1.53151
1.54394
1.83011
1.41319
1.46794
1.53994
1.56006
1.55908
1.55249
1.54454
1.53106
1.53617
1.79601
1.41319
1.46794
1.53994
1.56004
1.55913
1.55236
1.54471
1.53102
1.53084
1.76035
1.41319
1.46794
1.53994
1.56003
1.55919
1.55222
1.54477
1.53142
1.52738
1.72447
1.41319
1.46794
1.53993
1.56001
1.55925
1.55208
1.54475
1.53207
1.52479
1.68936
1.41319
1.46794
1.53992
1.56
1.55931
1.552
1.5447
1.5329
1.52267
1.65577
1.41319
1.46794
1.53991
1.56
1.55936
1.55197
1.5446
1.5338
1.52087
1.62577
1.41319
1.46794
1.5399
1.55999
1.55941
1.55195
1.54447
1.53464
1.5194
1.60113
1.41319
1.46794
1.53988
1.55998
1.55946
1.55194
1.54431
1.53534
1.51841
1.58229
1.41319
1.46794
1.53988
1.55998
1.55951
1.55193
1.54417
1.53587
1.518
1.56896
1.41319
1.46794
1.53987
1.55997
1.55955
1.55194
1.54405
1.53619
1.51789
1.56045
1.41319
1.46794
1.53987
1.55996
1.55958
1.55195
1.54396
1.53636
1.51791
1.55571
1.41319
1.46794
1.53987
1.55996
1.55958
1.55195
1.54396
1.53636
1.51791
1.55571
1.41319
1.46794
1.53987
1.55997
1.55955
1.55194
1.54405
1.53619
1.51789
1.56045
1.41319
1.46794
1.53988
1.55998
1.55951
1.55193
1.54417
1.53587
1.518
1.56896
1.41319
1.46794
1.53988
1.55998
1.55946
1.55194
1.54431
1.53534
1.51841
1.58229
1.41319
1.46794
1.5399
1.55999
1.55941
1.55195
1.54447
1.53464
1.5194
1.60113
1.41319
1.46794
1.53991
1.56
1.55936
1.55197
1.5446
1.5338
1.52087
1.62577
1.41319
1.46794
1.53992
1.56
1.55931
1.552
1.5447
1.5329
1.52267
1.65577
1.41319
1.46794
1.53993
1.56001
1.55925
1.55208
1.54475
1.53207
1.52479
1.68936
1.41319
1.46794
1.53994
1.56003
1.55919
1.55222
1.54477
1.53142
1.52738
1.72447
1.41319
1.46794
1.53994
1.56004
1.55913
1.55236
1.54471
1.53102
1.53084
1.76035
1.41319
1.46794
1.53994
1.56006
1.55908
1.55249
1.54454
1.53106
1.53617
1.79601
1.41319
1.46793
1.53994
1.56008
1.55903
1.55261
1.54435
1.53151
1.54394
1.83011
1.41319
1.46793
1.53994
1.5601
1.559
1.55269
1.54421
1.53169
1.55494
1.86287
1.41319
1.46793
1.53993
1.56012
1.55898
1.55275
1.54414
1.53152
1.5696
1.89343
1.41319
1.46793
1.53992
1.56014
1.55897
1.55279
1.54409
1.53144
1.58732
1.92181
1.41319
1.46793
1.53991
1.56016
1.55897
1.55282
1.54408
1.53137
1.60682
1.94995
1.41319
1.46794
1.5399
1.56018
1.55896
1.55284
1.54408
1.53126
1.62731
1.97675
1.41319
1.46794
1.53988
1.5602
1.55896
1.55285
1.54408
1.53115
1.64833
2.0005
1.41319
1.46794
1.53987
1.56022
1.55896
1.55287
1.54408
1.53103
1.67009
2.02425
1.41319
1.46794
1.53985
1.56024
1.55896
1.55288
1.54409
1.53089
1.69267
2.04825
1.58173
1.58795
1.59763
1.62639
1.74647
2.06691
2.28279
2.30275
2.26138
2.21084
1.59126
1.59941
1.62013
1.68787
1.81585
2.01917
2.21442
2.2575
2.2392
2.19716
1.60901
1.62479
1.68008
1.80061
1.88204
1.95216
2.08804
2.19693
2.22224
2.1994
1.64043
1.67794
1.78327
1.88972
1.91556
1.92244
1.97089
2.08722
2.17061
2.17792
1.69077
1.76621
1.87117
1.92229
1.92949
1.9199
1.92187
1.97299
2.07355
2.12985
1.76113
1.8569
1.91313
1.92947
1.93192
1.92381
1.91406
1.91509
1.96669
2.04757
1.83716
1.91309
1.9308
1.93118
1.93078
1.92656
1.91459
1.90034
1.90228
1.95382
1.89812
1.94166
1.94305
1.9366
1.93107
1.92634
1.91482
1.8964
1.87906
1.88579
1.9436
1.9615
1.95492
1.94431
1.93429
1.92522
1.91323
1.89497
1.87202
1.85524
1.97708
1.97675
1.9654
1.95332
1.93987
1.92681
1.91228
1.89431
1.8712
1.8458
2.00183
1.98677
1.9732
1.9587
1.94381
1.92908
1.91299
1.8947
1.87232
1.84423
2.01697
1.99572
1.98017
1.96438
1.94905
1.93368
1.91667
1.89804
1.87606
1.8477
2.02419
2.00113
1.98524
1.96971
1.955
1.94019
1.92345
1.90479
1.8823
1.85329
2.02458
2.00325
1.98967
1.97581
1.96255
1.94821
1.93149
1.91229
1.88856
1.85852
2.02097
2.00359
1.99389
1.98315
1.97186
1.95785
1.94076
1.92033
1.89448
1.86178
2.0162
2.00557
1.99901
1.99108
1.9813
1.96747
1.94956
1.92735
1.89872
1.86339
2.01694
2.01138
2.00952
2.0017
1.99091
1.97602
1.95689
1.93241
1.90112
1.86322
2.03586
2.03157
2.02644
2.01479
2.00167
1.98446
1.9636
1.93602
1.90163
1.86094
2.06047
2.0521
2.04287
2.02908
2.01441
1.99446
1.97107
1.93977
1.90162
1.85639
2.08213
2.07124
2.06079
2.04625
2.02967
2.00685
1.98017
1.94449
1.90175
1.85021
)
;

boundaryField
{
    inlet
    {
        type            calculated;
        value           uniform 1.40001;
    }
    outlet
    {
        type            calculated;
        value           nonuniform List<scalar> 
100
(
1.44292
1.42988
1.41765
1.40628
1.39522
1.38281
1.36867
1.3528
1.3368
1.32223
1.30994
1.30063
1.29408
1.29017
1.2898
1.28899
1.28629
1.28135
1.27586
1.27308
1.44511
1.47007
1.48936
1.5015
1.50878
1.51296
1.51491
1.51628
1.51671
1.51495
1.51224
1.50873
1.50194
1.4953
1.48782
1.47883
1.46992
1.46235
1.45618
1.45151
1.42511
1.41221
1.40159
1.38962
1.37613
1.36394
1.35497
1.34971
1.34815
1.34774
1.34762
1.34802
1.34977
1.35504
1.36393
1.37609
1.38962
1.4016
1.41222
1.42512
1.45149
1.45616
1.46233
1.46993
1.47885
1.48784
1.49528
1.50191
1.50873
1.51225
1.51497
1.51671
1.51628
1.51492
1.51296
1.50878
1.5015
1.48937
1.47008
1.44511
1.27308
1.27586
1.28135
1.28629
1.28899
1.2898
1.29017
1.29408
1.30063
1.30994
1.32223
1.3368
1.3528
1.36867
1.38281
1.39522
1.40628
1.41765
1.42989
1.44293
)
;
    }
    triangle
    {
        type            calculated;
        value           nonuniform List<scalar> 
40
(
2.63261
2.54203
2.47664
2.41296
2.35117
2.29036
2.22423
2.14919
2.04185
1.9069
0.736981
0.739549
0.748112
0.753158
0.757276
0.759973
0.75922
0.760268
0.760287
0.761836
0.761775
0.760241
0.760323
0.759257
0.75995
0.757268
0.753188
0.748153
0.739596
0.737041
2.63261
2.54203
2.47664
2.41296
2.35117
2.29036
2.22423
2.14919
2.04185
1.9069
)
;
    }
    top
    {
        type            symmetryPlane;
    }
    bottom
    {
        type            symmetryPlane;
    }
    defaultFaces
    {
        type            empty;
    }
}


// ************************************************************************* //
