/*--------------------------------*- C++ -*----------------------------------*\
  =========                 |
  \\      /  F ield         | OpenFOAM: The Open Source CFD Toolbox
   \\    /   O peration     | Website:  https://openfoam.org
    \\  /    A nd           | Version:  7
     \\/     M anipulation  |
\*---------------------------------------------------------------------------*/
FoamFile
{
    version     2.0;
    format      ascii;
    class       volVectorField;
    location    "1.1";
    object      U;
}
// * * * * * * * * * * * * * * * * * * * * * * * * * * * * * * * * * * * * * //

dimensions      [0 1 -1 0 0 0 0];

internalField   nonuniform List<vector> 
325
(
(2.0719 0.624466 0)
(2.42404 0.208163 0)
(2.59912 0.284329 0)
(1.46263 0.0958864 0)
(1.90597 0.155363 0)
(2.30892 0.254397 0)
(0.690706 0.0889474 0)
(1.23493 0.140767 0)
(1.83768 0.208311 0)
(0.188492 -0.0240467 0)
(0.638858 0.0615425 0)
(1.26868 0.132915 0)
(-0.0080632 -0.0335806 0)
(0.248049 0.0208602 0)
(0.731847 0.0559401 0)
(-0.0887469 -0.0318337 0)
(0.0356249 -0.026461 0)
(0.305931 -0.00371044 0)
(-0.133091 -0.0254692 0)
(-0.08923 -0.0415983 0)
(-0.00077968 -0.0330962 0)
(-0.16214 -0.0204653 0)
(-0.168857 -0.0425328 0)
(-0.196563 -0.0333436 0)
(-0.177874 -0.011776 0)
(-0.219922 -0.034396 0)
(-0.29547 -0.0233412 0)
(-0.181797 -0.00543337 0)
(-0.244099 -0.0134114 0)
(-0.328969 -0.00917635 0)
(-0.181724 0.00432369 0)
(-0.244215 0.0122094 0)
(-0.329118 0.00814823 0)
(-0.259002 -0.00350053 0)
(-0.177782 0.0107649 0)
(-0.220303 0.0334746 0)
(-0.296159 0.0227567 0)
(-0.207482 -0.00723459 0)
(-0.162123 0.0196317 0)
(-0.169424 0.0416999 0)
(-0.198015 0.0324948 0)
(-0.028769 -0.0105557 0)
(-0.133084 0.0245356 0)
(-0.0899222 0.0411921 0)
(-0.00323784 0.032987 0)
(2.99982 -0.000285936 0)
(2.9998 -0.000306578 0)
(2.99975 -0.000470847 0)
(2.99968 -0.000420026 0)
(2.99979 -0.000330873 0)
(2.99975 -0.000365227 0)
(2.99967 -0.000522206 0)
(2.99969 0.000369981 0)
(2.99974 -0.0003583 0)
(2.9997 -0.000409653 0)
(2.9996 -0.000552647 0)
(3.00188 0.00251186 0)
(2.99969 -0.000398515 0)
(2.99964 -0.000471503 0)
(2.99953 -0.000621533 0)
(3.01246 0.0113692 0)
(2.99964 -0.000403588 0)
(2.99959 -0.000479819 0)
(2.99947 -0.00064943 0)
(3.10098 -0.0398078 0)
(2.99958 -0.000429432 0)
(2.99953 -0.000495269 0)
(2.9993 -0.000946354 0)
(2.68682 -0.513121 0)
(2.99954 -0.000429798 0)
(2.99948 -0.000568881 0)
(2.99926 -0.0114732 0)
(1.97666 -0.778729 0)
(2.99949 -0.000468199 0)
(2.99937 -0.000627251 0)
(3.02665 -0.101432 0)
(1.78859 -0.834338 0)
(2.99943 -0.000471903 0)
(2.99935 -0.00219586 0)
(2.45623 -0.607605 0)
(1.61977 -0.903829 0)
(2.99929 -0.00057658 0)
(3.02857 -0.0293161 0)
(1.78102 -0.813382 0)
(1.55687 -0.898517 0)
(2.99919 -0.000734886 0)
(2.68819 -0.461995 0)
(1.58483 -0.865465 0)
(1.53816 -0.892356 0)
(3.0091 -0.0100656 0)
(1.7516 -0.785145 0)
(1.47572 -0.86867 0)
(1.52152 -0.879518 0)
(2.80452 -0.357249 0)
(1.54136 -0.834161 0)
(1.45665 -0.863118 0)
(1.50389 -0.874746 0)
(1.72842 -0.751482 0)
(1.41995 -0.836898 0)
(1.44843 -0.84967 0)
(1.49024 -0.869549 0)
(1.47332 -0.80852 0)
(1.40342 -0.836916 0)
(1.43339 -0.849326 0)
(1.4767 -0.868999 0)
(1.3746 -0.829052 0)
(1.41376 -0.83917 0)
(1.43194 -0.860454 0)
(1.47234 -0.876305 0)
(1.38092 -0.861853 0)
(1.42071 -0.868305 0)
(1.44975 -0.870887 0)
(1.48206 -0.885539 0)
(1.43992 -0.870989 0)
(1.47323 -0.869035 0)
(1.48997 -0.879483 0)
(1.50493 -0.88934 0)
(1.44948 -0.951433 0)
(1.49406 -0.929502 0)
(1.51303 -0.915707 0)
(1.51831 -0.908633 0)
(1.55792 -0.912089 0)
(1.56282 -0.922824 0)
(1.55333 -0.914034 0)
(1.54582 -0.905719 0)
(2.23066 -0.641101 0)
(2.10153 -0.762135 0)
(2.24766 -0.643723 0)
(2.14814 -0.663795 0)
(2.09729 -0.753058 0)
(2.27344 -0.61551 0)
(2.06243 -0.717631 0)
(2.0962 -0.736595 0)
(2.30297 -0.579978 0)
(2.00466 -0.764834 0)
(2.09766 -0.715816 0)
(2.32316 -0.53768 0)
(1.95995 -0.794271 0)
(2.11481 -0.684181 0)
(2.35301 -0.484118 0)
(1.90349 -0.825982 0)
(2.12266 -0.660592 0)
(2.3794 -0.437209 0)
(1.85625 -0.845392 0)
(2.14447 -0.635028 0)
(2.40977 -0.398202 0)
(1.85023 -0.835995 0)
(2.19474 -0.592747 0)
(2.45404 -0.345103 0)
(1.8502 -0.823949 0)
(2.21552 -0.564734 0)
(2.47663 -0.314681 0)
(1.86407 -0.802148 0)
(2.25389 -0.515465 0)
(2.51042 -0.265916 0)
(1.87378 -0.786163 0)
(2.27407 -0.476515 0)
(2.54074 -0.21472 0)
(1.89507 -0.762178 0)
(2.3128 -0.414736 0)
(2.57024 -0.164172 0)
(1.91407 -0.741788 0)
(2.34182 -0.362805 0)
(2.613 -0.0801175 0)
(1.94358 -0.712436 0)
(2.39261 -0.275602 0)
(2.64225 -0.0393456 0)
(1.97563 -0.671746 0)
(2.42897 -0.209424 0)
(2.68615 0.0555175 0)
(2.01218 -0.622005 0)
(2.49357 -0.100366 0)
(2.7134 0.0920382 0)
(2.07389 -0.539852 0)
(2.56282 -0.0151719 0)
(2.74699 0.192165 0)
(2.1213 -0.453913 0)
(2.66942 0.117657 0)
(2.7502 0.217462 0)
(2.24297 -0.236055 0)
(2.77876 0.208083 0)
(2.75584 0.265352 0)
(2.27659 -0.031578 0)
(2.7251 0.247026 0)
(2.72613 0.269472 0)
(3 -6.41152e-08 0)
(3 -1.46819e-07 0)
(3.00001 -1.05199e-05 0)
(3 -1.45281e-07 0)
(3 1.08489e-08 0)
(3.00002 -7.78929e-06 0)
(3 -1.42821e-07 0)
(3 -7.20795e-07 0)
(3.00001 -1.21672e-05 0)
(3 -1.18896e-07 0)
(3 -2.08914e-06 0)
(3 -5.76356e-06 0)
(3 -3.30785e-07 0)
(3 -3.75302e-06 0)
(3.00001 -2.75132e-07 0)
(3 -6.67336e-07 0)
(3 -6.36698e-06 0)
(3.00002 2.04871e-06 0)
(3 -1.38143e-06 0)
(3 -8.48689e-06 0)
(3.00005 -1.38505e-05 0)
(3 -2.01525e-06 0)
(2.99999 -1.77926e-05 0)
(3.00034 -0.000305502 0)
(3 -3.4414e-06 0)
(2.99998 -5.76188e-05 0)
(3.00622 -0.00346791 0)
(3 -5.79411e-06 0)
(2.99993 -0.000205746 0)
(3.04968 -0.0210522 0)
(3 -9.73709e-06 0)
(2.99968 -0.000801768 0)
(3.12022 -0.0907172 0)
(2.99999 -1.66346e-05 0)
(2.99878 -0.00337675 0)
(3.03337 -0.264612 0)
(2.99998 -3.02695e-05 0)
(2.99968 -0.0158601 0)
(2.79644 -0.464855 0)
(2.99997 -5.04865e-05 0)
(3.02842 -0.061558 0)
(2.57569 -0.611899 0)
(2.99997 -8.20437e-05 0)
(3.03724 -0.180675 0)
(2.40084 -0.692118 0)
(3.0011 -0.000134344 0)
(2.83268 -0.412942 0)
(2.30724 -0.715693 0)
(3.03597 -0.00348109 0)
(2.56308 -0.594416 0)
(2.25265 -0.710703 0)
(3.14273 -0.0387263 0)
(2.34808 -0.708205 0)
(2.24568 -0.690749 0)
(2.92951 -0.309164 0)
(2.18865 -0.752594 0)
(2.19833 -0.702823 0)
(2.40363 -0.558277 0)
(2.11936 -0.760922 0)
(2.2083 -0.682228 0)
(3 -4.8549e-09 0)
(3 -6.05378e-09 0)
(3 -8.1238e-09 0)
(3 -1.02367e-08 0)
(3 -2.49405e-08 0)
(3 -3.15931e-08 0)
(3 -3.80317e-08 0)
(3 -4.99734e-08 0)
(3 -5.6033e-08 0)
(3 -7.07282e-08 0)
(3 -8.0973e-08 0)
(3 -1.1052e-07 0)
(3 -9.98748e-08 0)
(3 -1.35143e-07 0)
(3 -1.37732e-07 0)
(3 -2.28529e-07 0)
(3 -1.72054e-07 0)
(3 -2.38187e-07 0)
(3 -2.42877e-07 0)
(3 -3.86504e-07 0)
(3 -2.8974e-07 0)
(3 -3.98268e-07 0)
(3 -4.14087e-07 0)
(3 -6.23636e-07 0)
(3 -4.96377e-07 0)
(3 -6.49413e-07 0)
(3 -7.32471e-07 0)
(3 -9.85634e-07 0)
(3 -8.14208e-07 0)
(3 -1.08695e-06 0)
(3 -1.18867e-06 0)
(3 -1.71192e-06 0)
(3 -1.37421e-06 0)
(3 -1.82934e-06 0)
(3 -2.01538e-06 0)
(3 -2.87706e-06 0)
(3 -2.29259e-06 0)
(3 -3.02723e-06 0)
(3 -3.3783e-06 0)
(3 -4.75916e-06 0)
(3 -3.86303e-06 0)
(3 -5.05631e-06 0)
(3 -5.66154e-06 0)
(3 -7.91713e-06 0)
(3 -6.26541e-06 0)
(3 -8.23739e-06 0)
(3 -9.28378e-06 0)
(2.99999 -1.28813e-05 0)
(2.99999 -1.08125e-05 0)
(2.99999 -1.32868e-05 0)
(2.99999 -1.60088e-05 0)
(2.99999 -2.03308e-05 0)
(2.99999 -1.73622e-05 0)
(2.99999 -2.12603e-05 0)
(2.99999 -2.61893e-05 0)
(2.99998 -3.17253e-05 0)
(2.99999 -2.96445e-05 0)
(2.99998 -3.13505e-05 0)
(2.99998 -4.35961e-05 0)
(2.99997 -4.6606e-05 0)
(2.99998 -4.21344e-05 0)
(2.99997 -5.39624e-05 0)
(2.99997 -5.78343e-05 0)
(2.99994 -8.27497e-05 0)
(2.99997 -6.09773e-05 0)
(2.99996 -8.20302e-05 0)
(2.99995 -8.63222e-05 0)
(2.99994 -0.000125482 0)
(2.99995 -9.06016e-05 0)
(2.99993 -0.000126031 0)
(2.99993 -0.000131368 0)
(2.9999 -0.000195582 0)
(2.99992 -0.00013498 0)
(2.9999 -0.000183698 0)
(2.99987 -0.000211733 0)
(2.99985 -0.0002659 0)
(2.99987 -0.000225031 0)
(2.99986 -0.000233784 0)
(2.9998 -0.000360745 0)
(2.99982 -0.000322541 0)
)
;

boundaryField
{
    inlet
    {
        type            fixedValue;
        value           nonuniform 0();
    }
    outlet
    {
        type            inletOutlet;
        inletValue      nonuniform 0();
        value           nonuniform 0();
    }
    triangle
    {
        type            slip;
    }
    top
    {
        type            symmetryPlane;
    }
    bottom
    {
        type            symmetryPlane;
    }
    defaultFaces
    {
        type            empty;
    }
    procBoundary2to1
    {
        type            processor;
        value           nonuniform List<vector> 
40
(
(2.99986 -0.000215104 0)
(2.99983 -0.00025983 0)
(2.99979 -0.000289656 0)
(2.99974 -0.000332687 0)
(2.99969 -0.00034505 0)
(2.99964 -0.000362646 0)
(2.9996 -0.000371842 0)
(2.99955 -0.000391107 0)
(2.99948 -0.000419246 0)
(2.99942 -0.000460984 0)
(2.99935 -0.000468541 0)
(2.99922 -0.000571171 0)
(2.99913 -0.000545814 0)
(3.00287 -0.00375797 0)
(2.80118 -0.369186 0)
(1.62717 -0.762506 0)
(1.36321 -0.853051 0)
(1.37606 -0.871581 0)
(1.36285 -0.952326 0)
(1.5316 -0.837792 0)
(3 -3.97315e-09 0)
(3 -2.09224e-08 0)
(3 -4.91575e-08 0)
(3 -8.91746e-08 0)
(3 -1.60448e-07 0)
(3 -2.72133e-07 0)
(3 -4.54031e-07 0)
(3 -7.48803e-07 0)
(3 -1.25331e-06 0)
(3 -2.07197e-06 0)
(3 -3.4552e-06 0)
(3 -5.67251e-06 0)
(3 -9.21191e-06 0)
(2.99999 -1.48872e-05 0)
(2.99999 -2.25163e-05 0)
(2.99998 -3.70871e-05 0)
(2.99997 -5.65062e-05 0)
(2.99995 -8.48934e-05 0)
(2.99993 -0.000125611 0)
(2.9999 -0.000169823 0)
)
;
    }
    procBoundary2to3
    {
        type            processor;
        value           nonuniform List<vector> 
47
(
(2.67636 0.272224 0)
(2.58252 0.244708 0)
(2.36395 0.219563 0)
(1.97534 0.166794 0)
(1.43839 0.106234 0)
(0.847276 0.0623127 0)
(0.331791 0.0304241 0)
(2.4612 -0.372563 0)
(2.48515 -0.343458 0)
(2.51843 -0.292136 0)
(2.53553 -0.260457 0)
(2.56998 -0.198267 0)
(2.58422 -0.157287 0)
(2.61627 -0.0881928 0)
(2.63375 -0.0423484 0)
(2.66267 0.0323769 0)
(2.67851 0.0689464 0)
(2.70708 0.13993 0)
(2.72393 0.165238 0)
(2.74029 0.220389 0)
(2.73715 0.230776 0)
(2.73301 0.26173 0)
(2.7241 0.256744 0)
(2.72103 0.260869 0)
(2.72007 0.260829 0)
(2.72007 0.272114 0)
(2.71059 0.260756 0)
(2.99832 -0.00192836 0)
(2.99812 -0.00641726 0)
(2.996 -0.0115303 0)
(2.99164 -0.0197961 0)
(2.98268 -0.0346804 0)
(2.96629 -0.0613637 0)
(2.93386 -0.120896 0)
(2.87758 -0.244005 0)
(2.80269 -0.438329 0)
(2.70952 -0.642508 0)
(2.58182 -0.732387 0)
(2.43826 -0.715337 0)
(2.35682 -0.690852 0)
(2.34026 -0.674073 0)
(2.36001 -0.65984 0)
(2.31445 -0.65812 0)
(2.30678 -0.617486 0)
(2.33507 -0.541601 0)
(2.35195 -0.492025 0)
(2.40423 -0.432613 0)
)
;
    }
    procBoundary2to6
    {
        type            processor;
        value           nonuniform List<vector> 5((0.325578 -0.0288778 0) (-0.0887591 0.0308921 0) (0.0347066 0.0258315 0) (0.325578 -0.0288778 0) (0.302576 0.00377466 0));
    }
    procBoundary2to7
    {
        type            processor;
        value           nonuniform List<vector> 7((-0.0252823 0.0124458 0) (-0.206236 0.00810947 0) (-0.258859 0.00535886 0) (-0.258859 0.00535886 0) (-0.13047 -0.00471107 0) (-0.0656452 -0.0134375 0) (0.150158 -0.0175651 0));
    }
}


// ************************************************************************* //
