/*--------------------------------*- C++ -*----------------------------------*\
  =========                 |
  \\      /  F ield         | OpenFOAM: The Open Source CFD Toolbox
   \\    /   O peration     | Website:  https://openfoam.org
    \\  /    A nd           | Version:  8
     \\/     M anipulation  |
\*---------------------------------------------------------------------------*/
FoamFile
{
    version     2.0;
    format      ascii;
    class       volVectorField;
    location    "1.1";
    object      U;
}
// * * * * * * * * * * * * * * * * * * * * * * * * * * * * * * * * * * * * * //

dimensions      [0 1 -1 0 0 0 0];

internalField   nonuniform List<vector> 
325
(
(2.07179 0.624239 0)
(2.42458 0.208211 0)
(2.59952 0.285015 0)
(1.46284 0.0956216 0)
(1.9068 0.155537 0)
(2.3096 0.254876 0)
(0.690921 0.0887532 0)
(1.23583 0.1405 0)
(1.83872 0.209001 0)
(0.188596 -0.0242606 0)
(0.639509 0.061684 0)
(1.27004 0.132876 0)
(-0.0080174 -0.0336319 0)
(0.248591 0.0206265 0)
(0.733135 0.0564041 0)
(-0.0887103 -0.0318108 0)
(0.0360816 -0.0265338 0)
(0.307195 -0.00382572 0)
(-0.133051 -0.0254708 0)
(-0.0888407 -0.0416601 0)
(0.000121983 -0.032935 0)
(-0.162088 -0.0205145 0)
(-0.16858 -0.0426244 0)
(-0.196086 -0.0337087 0)
(-0.177846 -0.0119557 0)
(-0.219774 -0.0344368 0)
(-0.295247 -0.023352 0)
(-0.181781 -0.0056162 0)
(-0.244095 -0.0136114 0)
(-0.328879 -0.0093015 0)
(-0.181729 0.0040139 0)
(-0.244257 0.0120213 0)
(-0.329135 0.00789558 0)
(-0.258959 -0.00195767 0)
(-0.177791 0.0106459 0)
(-0.220401 0.033279 0)
(-0.29633 0.0224594 0)
(-0.207656 -0.00587971 0)
(-0.162109 0.0196465 0)
(-0.169619 0.0416058 0)
(-0.19843 0.0321978 0)
(-0.0296676 -0.00927745 0)
(-0.133074 0.0245698 0)
(-0.0902074 0.041129 0)
(-0.00404832 0.0330313 0)
(2.99982 -0.000285921 0)
(2.9998 -0.00030656 0)
(2.99975 -0.000470779 0)
(2.99968 -0.000420033 0)
(2.99979 -0.000330858 0)
(2.99975 -0.000365213 0)
(2.99967 -0.000522187 0)
(2.99969 0.000370104 0)
(2.99974 -0.000358278 0)
(2.9997 -0.000409628 0)
(2.9996 -0.000552616 0)
(3.00188 0.00251183 0)
(2.99969 -0.000398488 0)
(2.99964 -0.000471475 0)
(2.99953 -0.0006215 0)
(3.01246 0.0113676 0)
(2.99964 -0.000403565 0)
(2.99959 -0.000479794 0)
(2.99947 -0.000649395 0)
(3.10098 -0.0397972 0)
(2.99958 -0.000429409 0)
(2.99953 -0.000495244 0)
(2.9993 -0.000946277 0)
(2.68684 -0.513105 0)
(2.99954 -0.000429772 0)
(2.99948 -0.000568845 0)
(2.99926 -0.0114725 0)
(1.97667 -0.778723 0)
(2.99949 -0.00046817 0)
(2.99937 -0.000627209 0)
(3.02666 -0.101416 0)
(1.78859 -0.834333 0)
(2.99943 -0.000471867 0)
(2.99935 -0.00219526 0)
(2.45628 -0.607579 0)
(1.61978 -0.903826 0)
(2.99929 -0.000576539 0)
(3.02857 -0.0293091 0)
(1.78102 -0.813378 0)
(1.55687 -0.898517 0)
(2.99919 -0.000734787 0)
(2.68825 -0.461955 0)
(1.58484 -0.865459 0)
(1.53816 -0.892356 0)
(3.0091 -0.0100631 0)
(1.75162 -0.785139 0)
(1.47572 -0.86867 0)
(1.52152 -0.879519 0)
(2.80458 -0.357195 0)
(1.54138 -0.834154 0)
(1.45665 -0.863117 0)
(1.50389 -0.874747 0)
(1.72844 -0.751479 0)
(1.41995 -0.836898 0)
(1.44843 -0.849669 0)
(1.49024 -0.869549 0)
(1.47336 -0.808514 0)
(1.40342 -0.836916 0)
(1.43339 -0.849325 0)
(1.4767 -0.868998 0)
(1.37459 -0.82906 0)
(1.41376 -0.83917 0)
(1.43194 -0.860453 0)
(1.47234 -0.876305 0)
(1.38092 -0.86186 0)
(1.42071 -0.868306 0)
(1.44975 -0.870887 0)
(1.48207 -0.885542 0)
(1.43992 -0.87099 0)
(1.47323 -0.869034 0)
(1.48998 -0.879483 0)
(1.50494 -0.889342 0)
(1.44948 -0.951434 0)
(1.49407 -0.929501 0)
(1.51303 -0.915706 0)
(1.51832 -0.908635 0)
(1.55793 -0.912093 0)
(1.56282 -0.922827 0)
(1.55333 -0.914037 0)
(1.54583 -0.905724 0)
(2.23067 -0.641104 0)
(2.10153 -0.762139 0)
(2.24766 -0.643725 0)
(2.14815 -0.663797 0)
(2.09729 -0.753068 0)
(2.27344 -0.615516 0)
(2.06244 -0.717633 0)
(2.0962 -0.736602 0)
(2.30298 -0.579979 0)
(2.00466 -0.764834 0)
(2.09766 -0.71582 0)
(2.32316 -0.5377 0)
(1.95995 -0.79427 0)
(2.11481 -0.684188 0)
(2.35306 -0.484097 0)
(1.90349 -0.825981 0)
(2.12267 -0.660591 0)
(2.37941 -0.437234 0)
(1.85625 -0.845392 0)
(2.14447 -0.635024 0)
(2.40984 -0.398137 0)
(1.85023 -0.835992 0)
(2.19473 -0.592747 0)
(2.45399 -0.345171 0)
(1.8502 -0.823949 0)
(2.21553 -0.564708 0)
(2.47665 -0.314623 0)
(1.86409 -0.802128 0)
(2.25386 -0.515486 0)
(2.51042 -0.265923 0)
(1.87377 -0.786174 0)
(2.2741 -0.476454 0)
(2.54079 -0.214736 0)
(1.8951 -0.762151 0)
(2.31276 -0.414779 0)
(2.57033 -0.16409 0)
(1.91406 -0.741785 0)
(2.34185 -0.362774 0)
(2.61304 -0.0801364 0)
(1.94358 -0.712428 0)
(2.39259 -0.275613 0)
(2.64235 -0.039288 0)
(1.97564 -0.67173 0)
(2.42893 -0.209446 0)
(2.68626 0.0554129 0)
(2.01214 -0.622023 0)
(2.49351 -0.100376 0)
(2.7136 0.0921651 0)
(2.07393 -0.539831 0)
(2.56274 -0.0151904 0)
(2.74707 0.192161 0)
(2.12126 -0.453945 0)
(2.66936 0.117718 0)
(2.75032 0.217577 0)
(2.24294 -0.236054 0)
(2.77882 0.208149 0)
(2.75606 0.265599 0)
(2.2765 -0.0316178 0)
(2.7254 0.247044 0)
(2.72643 0.270079 0)
(3 -6.41152e-08 0)
(3 -1.46902e-07 0)
(3.00001 -1.05141e-05 0)
(3 -1.45258e-07 0)
(3 1.04699e-08 0)
(3.00002 -7.78668e-06 0)
(3 -1.42701e-07 0)
(3 -7.21521e-07 0)
(3.00001 -1.2163e-05 0)
(3 -1.18907e-07 0)
(3 -2.08948e-06 0)
(3 -5.76354e-06 0)
(3 -3.30837e-07 0)
(3 -3.7533e-06 0)
(3.00001 -2.78956e-07 0)
(3 -6.67371e-07 0)
(3 -6.36715e-06 0)
(3.00002 2.04159e-06 0)
(3 -1.38152e-06 0)
(3 -8.48661e-06 0)
(3.00005 -1.38626e-05 0)
(3 -2.01536e-06 0)
(2.99999 -1.77904e-05 0)
(3.00034 -0.000305518 0)
(3 -3.44148e-06 0)
(2.99998 -5.76142e-05 0)
(3.00622 -0.00346748 0)
(3 -5.79414e-06 0)
(2.99993 -0.00020573 0)
(3.04966 -0.0210487 0)
(3 -9.73698e-06 0)
(2.99968 -0.0008017 0)
(3.12021 -0.0907029 0)
(2.99999 -1.66342e-05 0)
(2.99878 -0.00337645 0)
(3.03339 -0.264589 0)
(2.99998 -3.02697e-05 0)
(2.99968 -0.0158585 0)
(2.79646 -0.464837 0)
(2.99997 -5.04916e-05 0)
(3.02842 -0.0615534 0)
(2.57571 -0.611886 0)
(2.99997 -8.2025e-05 0)
(3.03724 -0.18066 0)
(2.40085 -0.692111 0)
(3.0011 -0.000134245 0)
(2.8327 -0.412924 0)
(2.30726 -0.715689 0)
(3.03597 -0.00347994 0)
(2.56309 -0.594404 0)
(2.25266 -0.710701 0)
(3.14274 -0.0387158 0)
(2.34809 -0.708198 0)
(2.24569 -0.690746 0)
(2.92954 -0.309144 0)
(2.18866 -0.752591 0)
(2.19833 -0.702822 0)
(2.40366 -0.55827 0)
(2.11937 -0.760923 0)
(2.2083 -0.682222 0)
(3 -4.85621e-09 0)
(3 -6.05551e-09 0)
(3 -8.12573e-09 0)
(3 -1.02398e-08 0)
(3 -2.49454e-08 0)
(3 -3.16013e-08 0)
(3 -3.80393e-08 0)
(3 -4.99865e-08 0)
(3 -5.60446e-08 0)
(3 -7.07424e-08 0)
(3 -8.09859e-08 0)
(3 -1.10549e-07 0)
(3 -9.9883e-08 0)
(3 -1.35166e-07 0)
(3 -1.37748e-07 0)
(3 -2.28563e-07 0)
(3 -1.72071e-07 0)
(3 -2.38213e-07 0)
(3 -2.42899e-07 0)
(3 -3.8653e-07 0)
(3 -2.89758e-07 0)
(3 -3.98295e-07 0)
(3 -4.14113e-07 0)
(3 -6.23666e-07 0)
(3 -4.96411e-07 0)
(3 -6.49437e-07 0)
(3 -7.32521e-07 0)
(3 -9.85637e-07 0)
(3 -8.14246e-07 0)
(3 -1.08697e-06 0)
(3 -1.18871e-06 0)
(3 -1.71189e-06 0)
(3 -1.37423e-06 0)
(3 -1.82933e-06 0)
(3 -2.0154e-06 0)
(3 -2.87701e-06 0)
(3 -2.2926e-06 0)
(3 -3.02722e-06 0)
(3 -3.37832e-06 0)
(3 -4.75911e-06 0)
(3 -3.863e-06 0)
(3 -5.0563e-06 0)
(3 -5.66152e-06 0)
(3 -7.91706e-06 0)
(3 -6.26537e-06 0)
(3 -8.23736e-06 0)
(3 -9.28362e-06 0)
(2.99999 -1.28812e-05 0)
(2.99999 -1.08123e-05 0)
(2.99999 -1.32868e-05 0)
(2.99999 -1.60085e-05 0)
(2.99999 -2.03306e-05 0)
(2.99999 -1.7362e-05 0)
(2.99999 -2.12601e-05 0)
(2.99999 -2.61891e-05 0)
(2.99998 -3.17244e-05 0)
(2.99999 -2.96442e-05 0)
(2.99998 -3.135e-05 0)
(2.99998 -4.35954e-05 0)
(2.99997 -4.6607e-05 0)
(2.99998 -4.21334e-05 0)
(2.99997 -5.39629e-05 0)
(2.99997 -5.78312e-05 0)
(2.99994 -8.27521e-05 0)
(2.99997 -6.09762e-05 0)
(2.99996 -8.20287e-05 0)
(2.99995 -8.63209e-05 0)
(2.99994 -0.000125479 0)
(2.99995 -9.05998e-05 0)
(2.99993 -0.000126029 0)
(2.99993 -0.000131365 0)
(2.9999 -0.000195579 0)
(2.99992 -0.000134975 0)
(2.9999 -0.000183695 0)
(2.99987 -0.000211724 0)
(2.99985 -0.000265895 0)
(2.99987 -0.000225025 0)
(2.99986 -0.000233777 0)
(2.9998 -0.000360736 0)
(2.99982 -0.000322531 0)
)
;

boundaryField
{
    inlet
    {
        type            fixedValue;
        value           nonuniform List<vector> 0();
    }
    outlet
    {
        type            inletOutlet;
        inletValue      nonuniform List<vector> 0();
        value           nonuniform List<vector> 0();
    }
    triangle
    {
        type            slip;
    }
    top
    {
        type            symmetryPlane;
    }
    bottom
    {
        type            symmetryPlane;
    }
    defaultFaces
    {
        type            empty;
    }
    procBoundary2to1
    {
        type            processor;
        value           nonuniform List<vector> 
40
(
(2.99986 -0.000215095 0)
(2.99983 -0.00025982 0)
(2.99979 -0.000289632 0)
(2.99974 -0.000332672 0)
(2.99969 -0.000345029 0)
(2.99964 -0.000362629 0)
(2.9996 -0.000371817 0)
(2.99955 -0.000391078 0)
(2.99948 -0.000419214 0)
(2.99942 -0.000460944 0)
(2.99935 -0.000468504 0)
(2.99922 -0.000571143 0)
(2.99913 -0.000545789 0)
(3.00286 -0.00375735 0)
(2.80124 -0.369125 0)
(1.62718 -0.76251 0)
(1.36322 -0.853045 0)
(1.37606 -0.871584 0)
(1.36285 -0.952333 0)
(1.5316 -0.837792 0)
(3 -3.97463e-09 0)
(3 -2.09276e-08 0)
(3 -4.91679e-08 0)
(3 -8.91895e-08 0)
(3 -1.60466e-07 0)
(3 -2.72152e-07 0)
(3 -4.54054e-07 0)
(3 -7.48834e-07 0)
(3 -1.25332e-06 0)
(3 -2.07197e-06 0)
(3 -3.45514e-06 0)
(3 -5.67251e-06 0)
(3 -9.21189e-06 0)
(2.99999 -1.48872e-05 0)
(2.99999 -2.2516e-05 0)
(2.99998 -3.70867e-05 0)
(2.99997 -5.65052e-05 0)
(2.99995 -8.48915e-05 0)
(2.99993 -0.000125607 0)
(2.9999 -0.000169818 0)
)
;
    }
    procBoundary2to3
    {
        type            processor;
        value           nonuniform List<vector> 
47
(
(2.67655 0.272897 0)
(2.58295 0.245471 0)
(2.36504 0.220322 0)
(1.97772 0.16724 0)
(1.44165 0.107079 0)
(0.850376 0.062941 0)
(0.333866 0.0316602 0)
(2.46121 -0.372539 0)
(2.48514 -0.34348 0)
(2.51846 -0.292107 0)
(2.53555 -0.260457 0)
(2.57003 -0.198241 0)
(2.58427 -0.157256 0)
(2.61631 -0.0881712 0)
(2.6338 -0.042245 0)
(2.66268 0.0324293 0)
(2.67853 0.0690594 0)
(2.70705 0.139913 0)
(2.72392 0.165361 0)
(2.74023 0.22038 0)
(2.73711 0.230873 0)
(2.73295 0.261816 0)
(2.72403 0.256903 0)
(2.72104 0.261047 0)
(2.72014 0.26102 0)
(2.72015 0.272328 0)
(2.71067 0.261172 0)
(2.99832 -0.00192833 0)
(2.99813 -0.00641633 0)
(2.996 -0.0115284 0)
(2.99164 -0.0197919 0)
(2.98268 -0.0346734 0)
(2.9663 -0.0613515 0)
(2.93387 -0.120872 0)
(2.8776 -0.243964 0)
(2.8027 -0.438276 0)
(2.70954 -0.642465 0)
(2.58184 -0.732372 0)
(2.43828 -0.715337 0)
(2.35684 -0.690855 0)
(2.34028 -0.674075 0)
(2.36002 -0.659839 0)
(2.31446 -0.65812 0)
(2.30679 -0.617479 0)
(2.33507 -0.541605 0)
(2.35196 -0.491995 0)
(2.40421 -0.43264 0)
)
;
    }
    procBoundary2to6
    {
        type            processor;
        value           nonuniform List<vector> 5((0.323579 -0.0276511 0) (-0.0887667 0.0308863 0) (0.0343669 0.0258019 0) (0.323579 -0.0276511 0) (0.301426 0.00381997 0));
    }
    procBoundary2to7
    {
        type            processor;
        value           nonuniform List<vector> 7((-0.0243205 0.0136919 0) (-0.205988 0.00959407 0) (-0.258812 0.00684701 0) (-0.258812 0.00684701 0) (-0.130353 -0.00336594 0) (-0.0651116 -0.0118152 0) (0.15131 -0.0164417 0));
    }
}


// ************************************************************************* //
