/*--------------------------------*- C++ -*----------------------------------*\
  =========                 |
  \\      /  F ield         | OpenFOAM: The Open Source CFD Toolbox
   \\    /   O peration     | Website:  https://openfoam.org
    \\  /    A nd           | Version:  8
     \\/     M anipulation  |
\*---------------------------------------------------------------------------*/
FoamFile
{
    version     2.0;
    format      ascii;
    class       volScalarField;
    location    "0.6";
    object      p;
}
// * * * * * * * * * * * * * * * * * * * * * * * * * * * * * * * * * * * * * //

dimensions      [1 -1 -2 0 0 0 0];

internalField   nonuniform List<scalar> 
325
(
1.99308
1.1639
1.21547
1.4654
1.95331
1.13429
1.19845
1.39845
1.89654
1.11365
1.1543
1.31513
1.81234
1.14936
1.12437
1.22478
1.70577
1.17982
1.1407
1.1456
1.58104
1.04077
1.07381
1.06955
1.42948
1.82846
1.10763
0.988971
1.23988
2.5852
1.30364
1.01357
1.08277
3.15722
1.58386
1.07367
1.07496
3.57771
1.88725
1.19685
1.08185
3.92248
2.18901
1.38014
1.11176
4.20414
2.4629
1.58274
1.19585
4.45204
2.72899
1.78426
1.30555
4.69279
2.96808
1.98319
1.44766
4.93507
3.20587
2.17305
1.5832
5.17763
3.42046
2.35991
1.72151
5.40754
3.64165
2.53984
1.84312
5.62604
3.84972
2.71179
1.98005
5.83851
4.05437
2.88491
2.10828
6.03925
4.25438
3.05342
2.23089
6.21486
4.44
3.21867
2.36308
6.34633
4.62432
3.37624
2.49094
6.45986
4.77863
3.53132
2.62044
6.55922
4.92633
3.6781
2.74603
6.6424
5.05937
3.81834
2.86934
6.72318
5.18549
3.95354
2.9901
7.84287
7.58377
7.15793
6.83053
7.72359
7.46086
7.00526
6.41748
7.68339
7.43574
6.98118
6.47203
7.62183
7.38969
6.9356
6.42007
7.58829
7.37352
6.91832
6.43739
7.57633
7.37767
6.93021
6.49265
7.62331
7.42276
6.97337
6.56963
7.6759
7.49743
7.04789
6.66831
7.78792
7.62658
7.13628
6.7745
7.97959
7.83113
7.27199
6.92718
8.12501
7.93069
7.43499
7.08147
8.41289
8.04692
7.57553
7.19779
8.64155
8.29063
7.75241
7.39362
8.61894
8.25036
7.81625
7.44907
8.58798
8.27224
7.91087
7.5521
8.62319
8.31524
7.98492
7.60844
8.50739
8.27688
7.99114
7.63476
8.46757
8.25843
8.00142
7.68161
8.52607
8.26
8.03149
7.70881
8.20285
8.02715
7.75745
6.81947
5.36555
4.14512
3.16701
6.9341
5.58371
4.38397
3.39561
7.0689
5.76246
4.58719
3.61182
7.23143
5.90922
4.76016
3.82344
7.28181
6.04295
4.92562
4.03346
7.18364
6.18226
5.10916
4.23191
6.68691
6.15413
5.30845
4.4296
5.87335
6.06954
5.46128
4.61536
4.95767
6.03088
5.56193
4.7826
4.15016
5.8546
5.57554
4.93502
3.5935
5.53302
5.57354
5.08079
3.32651
5.0471
5.58471
5.20904
3.24383
4.48786
5.5276
5.30381
3.23466
3.98913
5.35016
5.32369
3.25162
3.64237
5.01896
5.32356
3.27681
3.44402
4.56347
5.27145
3.30378
3.35
4.0648
5.1147
3.32525
3.31474
3.64295
4.79616
3.33779
3.30389
3.40798
4.37057
3.34643
3.30162
3.32652
4.00111
6.49137
8.365
8.10901
7.78769
7.4677
8.05136
7.76977
4.68017
7.78177
7.84256
2.05508
5.86076
7.89486
1.51284
3.04043
6.93862
1.51941
1.78582
4.73431
1.53442
1.68622
2.75953
1.54176
1.70532
2.1946
1.54268
1.73218
2.21723
1.54642
1.74478
2.28992
1.54858
1.75129
2.36823
1.55093
1.75349
2.43785
1.55401
1.75188
2.4879
1.55724
1.75313
2.51747
1.5597
1.75737
2.53326
1.56202
1.76188
2.54478
1.5644
1.76611
2.55464
1.56634
1.76893
2.56234
1.56732
1.76997
2.56461
1.56777
1.77049
2.56524
)
;

boundaryField
{
    inlet
    {
        type            fixedValue;
        value           nonuniform List<scalar> 0();
    }
    outlet
    {
        type            zeroGradient;
    }
    triangle
    {
        type            zeroGradient;
    }
    top
    {
        type            symmetryPlane;
    }
    bottom
    {
        type            symmetryPlane;
    }
    defaultFaces
    {
        type            empty;
    }
    procBoundary6to2
    {
        type            processor;
        value           nonuniform List<scalar> 5(1.99798 1.16689 1.22359 1.49815 1.49815);
    }
    procBoundary6to5
    {
        type            processor;
        value           nonuniform List<scalar> 
43
(
8.06036
7.92375
7.86569
7.80305
7.758
7.71248
7.75566
7.80922
7.9472
8.24654
8.43982
8.91033
9.08825
9.01566
8.85096
8.9979
8.81814
8.26264
6.96377
8.1558
8.1558
8.1558
1.90381
2.91855
2.91855
1.51734
1.40606
1.42092
1.42802
1.4285
1.432
1.43905
1.44363
1.44609
1.44799
1.44909
1.45062
1.45227
1.45407
1.456
1.4574
1.45798
1.45809
)
;
    }
    procBoundary6to7
    {
        type            processor;
        value           nonuniform List<scalar> 
47
(
2.34802
2.32928
2.27923
2.25785
2.20694
2.1202
2.0197
1.88395
1.69044
1.45982
1.22749
1.1051
1.08378
1.11978
1.16388
1.26222
1.37469
1.4941
1.61064
1.71741
1.83458
1.9376
2.03805
2.13724
2.23838
2.33032
2.42554
2.57038
2.75385
2.93983
3.12857
3.31994
3.49471
3.66089
3.82162
3.98062
4.14318
4.31238
4.50008
4.7083
4.9167
5.09822
5.22582
5.30381
5.38021
5.52452
5.69723
)
;
    }
}


// ************************************************************************* //
