/*--------------------------------*- C++ -*----------------------------------*\
  =========                 |
  \\      /  F ield         | OpenFOAM: The Open Source CFD Toolbox
   \\    /   O peration     | Website:  https://openfoam.org
    \\  /    A nd           | Version:  7
     \\/     M anipulation  |
\*---------------------------------------------------------------------------*/
FoamFile
{
    version     2.0;
    format      ascii;
    class       volScalarField;
    location    "0.6";
    object      p;
}
// * * * * * * * * * * * * * * * * * * * * * * * * * * * * * * * * * * * * * //

dimensions      [1 -1 -2 0 0 0 0];

internalField   nonuniform List<scalar> 
325
(
1.993
1.16389
1.21547
1.4654
1.95326
1.13429
1.19844
1.39844
1.89667
1.11364
1.15429
1.31513
1.81241
1.14933
1.12436
1.22478
1.70577
1.1798
1.14068
1.14561
1.58099
1.04076
1.07379
1.06955
1.42944
1.82843
1.10762
0.988968
1.23989
2.58513
1.30361
1.01357
1.08278
3.15713
1.58383
1.07367
1.07497
3.57759
1.88721
1.19686
1.08185
3.92235
2.18896
1.38015
1.11177
4.204
2.46285
1.58275
1.19586
4.4519
2.72895
1.78428
1.30556
4.69264
2.96807
1.98322
1.44767
4.93494
3.20588
2.17309
1.58321
5.17752
3.42049
2.35995
1.72152
5.4075
3.64171
2.53988
1.84313
5.62605
3.84979
2.71182
1.98006
5.83858
4.05445
2.88494
2.10828
6.03939
4.25446
3.05344
2.23089
6.21498
4.44006
3.21867
2.36308
6.34645
4.62436
3.37624
2.49094
6.45994
4.77866
3.53132
2.62044
6.55928
4.92634
3.6781
2.74603
6.64242
5.05938
3.81834
2.86934
6.7232
5.18549
3.95354
2.9901
7.84263
7.58354
7.15765
6.83032
7.72323
7.46048
7.00497
6.41727
7.68305
7.43535
6.98092
6.47182
7.62152
7.38932
6.93538
6.41986
7.58796
7.37321
6.91812
6.43717
7.5761
7.37745
6.93004
6.49244
7.62308
7.42256
6.97318
6.5694
7.67564
7.49722
7.04767
6.66808
7.7877
7.62641
7.13605
6.77427
7.97939
7.83095
7.27173
6.92696
8.12485
7.93057
7.43478
7.08132
8.41275
8.04682
7.57538
7.1977
8.64156
8.29061
7.75236
7.39364
8.61897
8.25036
7.81624
7.44912
8.58801
8.27227
7.91091
7.5522
8.62324
8.31529
7.985
7.60857
8.50745
8.27695
7.99123
7.63488
8.46761
8.2585
8.00152
7.6817
8.5261
8.26002
8.03155
7.70889
8.20287
8.02718
7.75748
6.81947
5.36555
4.14512
3.16701
6.93409
5.58371
4.38397
3.39561
7.06888
5.76246
4.58719
3.61182
7.23141
5.90922
4.76017
3.82345
7.28178
6.04295
4.92563
4.03347
7.18361
6.18226
5.10918
4.23193
6.68686
6.15414
5.30848
4.42962
5.87329
6.06957
5.46131
4.61538
4.95765
6.03089
5.56196
4.78262
4.15015
5.85459
5.57556
4.93505
3.59351
5.53298
5.57357
5.08082
3.32652
5.0471
5.58472
5.20905
3.24383
4.48788
5.52759
5.30381
3.23468
3.98916
5.35012
5.3237
3.25164
3.64239
5.0189
5.32357
3.27685
3.44404
4.56342
5.27145
3.30382
3.35002
4.06475
5.11468
3.32531
3.31478
3.64293
4.79612
3.33785
3.30392
3.40797
4.37051
3.34651
3.30165
3.32652
4.00104
6.4914
8.36501
8.10902
7.78769
7.46771
8.05136
7.76976
4.68019
7.78177
7.84254
2.05509
5.86076
7.89484
1.51283
3.04044
6.9386
1.51941
1.78582
4.73429
1.53442
1.68621
2.7595
1.54176
1.70531
2.19456
1.54267
1.73216
2.21717
1.54641
1.74475
2.28984
1.54857
1.75126
2.36815
1.55092
1.75346
2.43776
1.554
1.75185
2.4878
1.55723
1.75309
2.51736
1.5597
1.75734
2.53315
1.56201
1.76185
2.54466
1.56439
1.76608
2.55452
1.56634
1.7689
2.56222
1.56733
1.76994
2.56447
1.56778
1.77046
2.56511
)
;

boundaryField
{
    inlet
    {
        type            fixedValue;
        value           nonuniform 0();
    }
    outlet
    {
        type            zeroGradient;
    }
    triangle
    {
        type            zeroGradient;
    }
    top
    {
        type            symmetryPlane;
    }
    bottom
    {
        type            symmetryPlane;
    }
    defaultFaces
    {
        type            empty;
    }
    procBoundary6to2
    {
        type            processor;
        value           nonuniform List<scalar> 5(1.99793 1.16689 1.22359 1.49816 1.49816);
    }
    procBoundary6to5
    {
        type            processor;
        value           nonuniform List<scalar> 
43
(
8.06008
7.92337
7.86527
7.8027
7.75762
7.71221
7.75541
7.80895
7.94697
8.24635
8.43968
8.91028
9.08823
9.01573
8.851
8.99795
8.8182
8.26269
6.96383
8.15582
8.15582
8.15582
1.90382
2.91857
2.91857
1.51734
1.40606
1.42092
1.42802
1.4285
1.43199
1.43904
1.44362
1.44609
1.44798
1.44908
1.45061
1.45227
1.45406
1.45599
1.4574
1.45798
1.45809
)
;
    }
    procBoundary6to7
    {
        type            processor;
        value           nonuniform List<scalar> 
47
(
2.34804
2.32961
2.2792
2.25748
2.20686
2.12039
2.01988
1.88402
1.69041
1.45979
1.22749
1.1051
1.08378
1.11978
1.16388
1.26222
1.37469
1.49409
1.61064
1.71741
1.83457
1.9376
2.03805
2.13724
2.23838
2.33032
2.42554
2.57038
2.75385
2.93984
3.12857
3.31994
3.49472
3.6609
3.82163
3.98063
4.14321
4.3124
4.50011
4.70833
4.91672
5.09826
5.22585
5.30381
5.38018
5.52447
5.69715
)
;
    }
}


// ************************************************************************* //
