/*--------------------------------*- C++ -*----------------------------------*\
  =========                 |
  \\      /  F ield         | OpenFOAM: The Open Source CFD Toolbox
   \\    /   O peration     | Website:  https://openfoam.org
    \\  /    A nd           | Version:  7
     \\/     M anipulation  |
\*---------------------------------------------------------------------------*/
FoamFile
{
    version     2.0;
    format      ascii;
    class       volVectorField;
    location    "0.6";
    object      U;
}
// * * * * * * * * * * * * * * * * * * * * * * * * * * * * * * * * * * * * * //

dimensions      [0 1 -1 0 0 0 0];

internalField   nonuniform List<vector> 
325
(
(1.52329 -0.132172 0)
(-0.0442447 0.127703 0)
(0.78959 -0.236597 0)
(1.6138 -0.265037 0)
(1.96455 -0.180974 0)
(0.130565 0.12823 0)
(1.29729 -0.373123 0)
(2.01999 -0.360553 0)
(2.19776 -0.214749 0)
(0.384135 0.0657501 0)
(1.70594 -0.570923 0)
(2.23825 -0.444498 0)
(2.28974 -0.259226 0)
(0.800022 -0.0763998 0)
(2.01088 -0.699034 0)
(2.30925 -0.530286 0)
(2.30059 -0.328161 0)
(1.28298 -0.282425 0)
(2.16635 -0.733319 0)
(2.31196 -0.585075 0)
(2.29945 -0.391633 0)
(1.57699 -0.700587 0)
(2.21392 -0.832761 0)
(2.30185 -0.636895 0)
(2.33443 -0.479975 0)
(1.83675 -0.286388 0)
(2.18661 -0.788811 0)
(2.30171 -0.685758 0)
(2.34963 -0.578019 0)
(1.80598 -0.0598695 0)
(2.1404 -0.620963 0)
(2.35983 -0.676999 0)
(2.36171 -0.679036 0)
(1.74347 0.0614576 0)
(2.11806 -0.520948 0)
(2.34378 -0.634822 0)
(2.35643 -0.707042 0)
(1.68495 0.127391 0)
(2.07382 -0.34221 0)
(2.30582 -0.554128 0)
(2.35607 -0.702266 0)
(1.64447 0.169315 0)
(2.04412 -0.266023 0)
(2.2818 -0.475403 0)
(2.34672 -0.661615 0)
(1.62718 0.193631 0)
(2.00642 -0.158804 0)
(2.25001 -0.375366 0)
(2.35196 -0.629383 0)
(1.62448 0.225063 0)
(1.99114 -0.106666 0)
(2.22805 -0.309032 0)
(2.34394 -0.521472 0)
(1.64282 0.248648 0)
(1.97477 -0.0379975 0)
(2.20335 -0.227755 0)
(2.33796 -0.461233 0)
(1.66747 0.285401 0)
(1.97232 0.00860217 0)
(2.19052 -0.182237 0)
(2.31964 -0.372177 0)
(1.70017 0.316028 0)
(1.96893 0.059808 0)
(2.17049 -0.11727 0)
(2.31115 -0.318172 0)
(1.71869 0.358375 0)
(1.9652 0.107095 0)
(2.16185 -0.082983 0)
(2.29268 -0.251538 0)
(1.72643 0.392727 0)
(1.96081 0.145375 0)
(2.14275 -0.0274113 0)
(2.27699 -0.200864 0)
(1.7178 0.426014 0)
(1.94293 0.190634 0)
(2.13061 0.00528065 0)
(2.26415 -0.158622 0)
(1.6985 0.451454 0)
(1.93058 0.219409 0)
(2.10952 0.0487312 0)
(2.2411 -0.105275 0)
(1.66722 0.471385 0)
(1.89757 0.257267 0)
(2.09052 0.0803238 0)
(2.22576 -0.0699097 0)
(1.63089 0.480935 0)
(1.87605 0.277958 0)
(2.06749 0.113909 0)
(2.20502 -0.0295751 0)
(1.59699 0.485666 0)
(1.83966 0.300813 0)
(2.04216 0.142158 0)
(2.18646 0.00312546 0)
(1.56694 0.486469 0)
(1.81471 0.314604 0)
(2.01915 0.164873 0)
(2.16536 0.0358256 0)
(1.54427 0.485178 0)
(1.78671 0.326723 0)
(1.99234 0.187667 0)
(2.14379 0.06481 0)
(1.53089 0.485329 0)
(1.76525 0.335962 0)
(1.96982 0.204811 0)
(2.12181 0.0921623 0)
(0.815949 0.45723 0)
(0.867832 0.480413 0)
(0.944062 0.51211 0)
(1.12575 0.537656 0)
(0.809226 0.463369 0)
(0.862755 0.487149 0)
(0.94647 0.510485 0)
(1.11702 0.516064 0)
(0.805431 0.451625 0)
(0.861262 0.475431 0)
(0.957723 0.491923 0)
(1.14014 0.467219 0)
(0.800644 0.440645 0)
(0.858434 0.462023 0)
(0.964282 0.467145 0)
(1.14889 0.427711 0)
(0.806796 0.437096 0)
(0.868437 0.451044 0)
(0.978885 0.436182 0)
(1.17021 0.404723 0)
(0.83054 0.442608 0)
(0.901011 0.444468 0)
(1.01453 0.413171 0)
(1.20238 0.389729 0)
(0.888561 0.449469 0)
(0.966011 0.445456 0)
(1.08008 0.402879 0)
(1.25481 0.389661 0)
(0.988453 0.475929 0)
(1.07044 0.457992 0)
(1.17928 0.411387 0)
(1.32938 0.406947 0)
(1.14595 0.511887 0)
(1.21853 0.485146 0)
(1.30495 0.436275 0)
(1.41947 0.432746 0)
(1.32636 0.583893 0)
(1.36975 0.544649 0)
(1.42389 0.488504 0)
(1.50032 0.472263 0)
(1.47853 0.625385 0)
(1.48395 0.583109 0)
(1.51326 0.532189 0)
(1.55291 0.507481 0)
(1.51815 0.683227 0)
(1.52147 0.634479 0)
(1.54832 0.581435 0)
(1.56491 0.54866 0)
(1.47998 0.717105 0)
(1.50234 0.671767 0)
(1.53279 0.627846 0)
(1.55355 0.586628 0)
(1.42677 0.719239 0)
(1.46348 0.688118 0)
(1.49397 0.646997 0)
(1.52316 0.605247 0)
(1.32794 0.729805 0)
(1.38741 0.699103 0)
(1.43259 0.654418 0)
(1.47817 0.612254 0)
(1.28182 0.674258 0)
(1.33253 0.664756 0)
(1.37507 0.635998 0)
(1.43113 0.605331 0)
(1.23902 0.68813 0)
(1.28175 0.67466 0)
(1.32217 0.642124 0)
(1.3851 0.609813 0)
(1.22102 0.677665 0)
(1.25807 0.663965 0)
(1.29411 0.631768 0)
(1.35308 0.600521 0)
(1.23237 0.673984 0)
(1.26247 0.665543 0)
(1.28894 0.634839 0)
(1.33756 0.596016 0)
(1.25903 0.678504 0)
(1.29009 0.633894 0)
(1.33686 0.591835 0)
(1.51862 0.486626 0)
(1.73913 0.346385 0)
(1.93603 0.231184 0)
(2.08981 0.130647 0)
(1.50455 0.483853 0)
(1.70886 0.355168 0)
(1.89801 0.259591 0)
(2.05252 0.174925 0)
(1.49692 0.47371 0)
(1.68265 0.360436 0)
(1.86307 0.285745 0)
(2.01733 0.211693 0)
(1.49609 0.473192 0)
(1.65843 0.37244 0)
(1.82671 0.309914 0)
(1.98075 0.239563 0)
(1.49712 0.468591 0)
(1.63662 0.389785 0)
(1.80031 0.329536 0)
(1.94821 0.257838 0)
(1.50906 0.438753 0)
(1.61723 0.411744 0)
(1.7682 0.349528 0)
(1.91126 0.277607 0)
(1.53857 0.409919 0)
(1.60229 0.412874 0)
(1.72864 0.363181 0)
(1.87605 0.296436 0)
(1.61765 0.34615 0)
(1.6102 0.401664 0)
(1.70523 0.370359 0)
(1.84998 0.312999 0)
(1.79138 0.251415 0)
(1.63317 0.393319 0)
(1.70028 0.381172 0)
(1.83822 0.326153 0)
(1.94918 0.131049 0)
(1.66152 0.376954 0)
(1.70901 0.383956 0)
(1.83311 0.338441 0)
(2.02887 0.0378355 0)
(1.67873 0.34477 0)
(1.73093 0.388566 0)
(1.82905 0.350636 0)
(2.05328 -0.0079909 0)
(1.73737 0.288595 0)
(1.75303 0.383874 0)
(1.82144 0.363715 0)
(2.05709 -0.0220661 0)
(1.85287 0.207959 0)
(1.76788 0.371159 0)
(1.81517 0.376909 0)
(2.05355 -0.0227399 0)
(1.94024 0.129527 0)
(1.79732 0.348147 0)
(1.82117 0.378306 0)
(2.04629 -0.0210758 0)
(1.98781 0.0699452 0)
(1.84413 0.30812 0)
(1.83695 0.376755 0)
(2.03588 -0.0162566 0)
(2.01471 0.0323693 0)
(1.9192 0.2425 0)
(1.84981 0.365719 0)
(2.02953 -0.00850066 0)
(2.03376 0.00944827 0)
(1.9836 0.157359 0)
(1.86544 0.344468 0)
(2.02902 -0.0046022 0)
(2.03985 0.00148705 0)
(2.01942 0.0762943 0)
(1.89936 0.294483 0)
(2.02935 -0.00249121 0)
(2.04115 -0.00103626 0)
(2.03714 0.0247907 0)
(1.95401 0.195085 0)
(2.0294 -0.00035057 0)
(2.04104 -0.00124528 0)
(2.04307 0.00321421 0)
(1.9693 0.051349 0)
(1.52272 0.721135 0)
(1.27712 0.662871 0)
(1.30382 0.63097 0)
(1.34412 0.59058 0)
(1.3988 0.7024 0)
(1.30403 0.636343 0)
(1.3406 0.593434 0)
(1.91418 0.562634 0)
(1.35939 0.662527 0)
(1.34433 0.599722 0)
(2.66053 0.111733 0)
(1.59328 0.665609 0)
(1.37117 0.583749 0)
(2.70336 -0.0282983 0)
(2.29044 0.295885 0)
(1.51712 0.580296 0)
(2.67652 -0.00439731 0)
(2.61872 -0.013822 0)
(1.87789 0.424085 0)
(2.67581 0.000510107 0)
(2.59902 -0.0194125 0)
(2.34702 0.0728639 0)
(2.67441 -0.0140909 0)
(2.58937 0.0119874 0)
(2.46169 -0.0808219 0)
(2.67426 -0.0192281 0)
(2.58667 0.0248749 0)
(2.41487 -0.0841289 0)
(2.67162 -0.0193038 0)
(2.58323 0.0268272 0)
(2.35911 -0.070562 0)
(2.66721 -0.0170903 0)
(2.57645 0.0204703 0)
(2.31636 -0.0506681 0)
(2.6627 -0.012273 0)
(2.569 0.00853658 0)
(2.29291 -0.0317308 0)
(2.65927 -0.00715987 0)
(2.56488 -0.0012489 0)
(2.27797 -0.0154058 0)
(2.65745 -0.00406044 0)
(2.56286 -0.0049369 0)
(2.27 -0.00723053 0)
(2.65683 -0.00266787 0)
(2.56107 -0.0048744 0)
(2.26617 -0.00308678 0)
(2.6568 -0.00191784 0)
(2.55993 -0.00329628 0)
(2.26559 -0.00120477 0)
(2.65675 -0.00106349 0)
(2.55917 -0.00197059 0)
(2.265 0.000458748 0)
(2.65646 -0.000278615 0)
(2.55875 -0.0010582 0)
(2.26369 0.00221981 0)
(2.65615 0.000129818 0)
(2.55863 -0.000609332 0)
(2.26297 0.0020449 0)
(2.65608 0.000188373 0)
(2.55871 -9.02273e-05 0)
(2.26272 0.000692296 0)
)
;

boundaryField
{
    inlet
    {
        type            fixedValue;
        value           nonuniform 0();
    }
    outlet
    {
        type            inletOutlet;
        inletValue      nonuniform 0();
        value           nonuniform 0();
    }
    triangle
    {
        type            slip;
    }
    top
    {
        type            symmetryPlane;
    }
    bottom
    {
        type            symmetryPlane;
    }
    defaultFaces
    {
        type            empty;
    }
    procBoundary6to2
    {
        type            processor;
        value           nonuniform List<vector> 5((0.92098 -0.0855323 0) (-0.181498 0.136275 0) (0.300922 -0.133226 0) (1.03931 -0.179128 0) (1.03931 -0.179128 0));
    }
    procBoundary6to5
    {
        type            processor;
        value           nonuniform List<vector> 
43
(
(0.777867 0.436942 0)
(0.76563 0.445517 0)
(0.76125 0.436996 0)
(0.757577 0.435136 0)
(0.770935 0.44251 0)
(0.792192 0.467746 0)
(0.847024 0.484026 0)
(0.944705 0.5222 0)
(1.10715 0.571454 0)
(1.3061 0.653099 0)
(1.47233 0.687207 0)
(1.49228 0.748306 0)
(1.45586 0.756544 0)
(1.38394 0.740609 0)
(1.26258 0.7412 0)
(1.22759 0.675628 0)
(1.19656 0.699073 0)
(1.24747 0.713656 0)
(1.5231 0.683355 0)
(1.25877 0.729472 0)
(1.25877 0.729472 0)
(1.25877 0.729472 0)
(2.74579 0.143013 0)
(2.39282 0.363792 0)
(2.39282 0.363792 0)
(2.76664 -0.00279199 0)
(2.7403 -0.0192357 0)
(2.72758 -0.00386432 0)
(2.7278 -0.0110418 0)
(2.7303 -0.0102807 0)
(2.72813 -0.000404551 0)
(2.72654 0.00571894 0)
(2.72396 0.00737678 0)
(2.72087 0.0067182 0)
(2.71762 0.00456358 0)
(2.71501 0.00262655 0)
(2.7134 0.00169423 0)
(2.71272 0.00136581 0)
(2.71261 0.00127456 0)
(2.7126 0.00132958 0)
(2.71245 0.00112656 0)
(2.71228 0.00057885 0)
(2.71226 0.00020067 0)
)
;
    }
    procBoundary6to7
    {
        type            processor;
        value           nonuniform List<vector> 
47
(
(1.61154 -0.0543775 0)
(1.98199 -0.0545557 0)
(2.12841 -0.0734857 0)
(2.1508 -0.066193 0)
(2.15376 -0.0916472 0)
(2.1737 -0.128666 0)
(2.19868 -0.177021 0)
(2.23053 -0.238438 0)
(2.27815 -0.324662 0)
(2.34822 -0.442141 0)
(2.39251 -0.558835 0)
(2.42187 -0.644169 0)
(2.43345 -0.667049 0)
(2.42434 -0.665201 0)
(2.41668 -0.640237 0)
(2.40381 -0.577137 0)
(2.39259 -0.539463 0)
(2.37285 -0.462624 0)
(2.36186 -0.430802 0)
(2.34176 -0.366634 0)
(2.32955 -0.337004 0)
(2.31301 -0.290778 0)
(2.2985 -0.253891 0)
(2.28105 -0.213586 0)
(2.26716 -0.180497 0)
(2.25117 -0.144988 0)
(2.23339 -0.110407 0)
(2.21242 -0.0677734 0)
(2.18158 -0.00799416 0)
(2.15098 0.0433867 0)
(2.1173 0.0874995 0)
(2.08198 0.125739 0)
(2.05026 0.158708 0)
(2.02017 0.192863 0)
(2.00116 0.218666 0)
(1.98582 0.243669 0)
(1.9751 0.262496 0)
(1.95616 0.285045 0)
(1.93812 0.302796 0)
(1.92014 0.320861 0)
(1.89892 0.333137 0)
(1.88021 0.339459 0)
(1.87631 0.335616 0)
(1.87782 0.314508 0)
(1.86361 0.272775 0)
(1.85732 0.200961 0)
(1.81555 0.0842776 0)
)
;
    }
}


// ************************************************************************* //
