/*--------------------------------*- C++ -*----------------------------------*\
  =========                 |
  \\      /  F ield         | OpenFOAM: The Open Source CFD Toolbox
   \\    /   O peration     | Website:  https://openfoam.org
    \\  /    A nd           | Version:  7
     \\/     M anipulation  |
\*---------------------------------------------------------------------------*/
FoamFile
{
    version     2.0;
    format      ascii;
    class       volScalarField;
    location    "1.2";
    object      rho;
}
// * * * * * * * * * * * * * * * * * * * * * * * * * * * * * * * * * * * * * //

dimensions      [1 -3 0 0 0 0 0];

internalField   nonuniform List<scalar> 
2600
(
0.80314
0.821558
0.933151
1.01749
1.02956
1.06932
1.17644
1.25225
1.82309
2.68963
0.810319
0.834768
0.8994
0.971551
0.994337
1.04786
1.14292
1.20462
1.71236
2.6129
0.776206
0.782604
0.846209
0.920537
0.949388
1.01933
1.09764
1.14971
1.61584
2.53321
0.751663
0.773449
0.813712
0.859899
0.894248
0.972599
1.04279
1.10283
1.56249
2.45458
0.758086
0.775491
0.79264
0.817489
0.850375
0.925218
0.999009
1.07421
1.55066
2.38338
0.777313
0.783722
0.785109
0.795214
0.820983
0.89243
0.976005
1.07201
1.56188
2.33018
0.797812
0.792622
0.777165
0.781867
0.805188
0.881632
0.972077
1.08091
1.58789
2.3052
0.812565
0.79486
0.771191
0.769481
0.802945
0.885441
0.975362
1.09703
1.61996
2.29924
0.81602
0.784853
0.757154
0.761768
0.803213
0.89102
0.983319
1.11276
1.64278
2.30263
0.815518
0.774181
0.747399
0.761424
0.80594
0.896247
0.987106
1.11986
1.65025
2.30276
0.815485
0.774213
0.747342
0.761538
0.80669
0.89596
0.987208
1.11963
1.64966
2.30295
0.815916
0.784812
0.756948
0.762108
0.804039
0.891593
0.984804
1.1121
1.64061
2.30282
0.812365
0.794697
0.77072
0.769447
0.802928
0.885844
0.97595
1.09651
1.61916
2.29974
0.797531
0.792258
0.776581
0.781615
0.806034
0.882342
0.97261
1.08032
1.58609
2.30576
0.776997
0.783103
0.78444
0.795027
0.821564
0.892137
0.975882
1.07158
1.56106
2.33105
0.757815
0.774766
0.791901
0.817173
0.851103
0.924878
0.998198
1.07389
1.55005
2.38456
0.751466
0.772648
0.813029
0.860051
0.895044
0.972226
1.04154
1.10256
1.5626
2.45617
0.776117
0.781898
0.845651
0.920724
0.950518
1.01929
1.09685
1.14952
1.61724
2.53504
0.810221
0.834055
0.898893
0.971236
0.995807
1.04813
1.14235
1.20433
1.71444
2.61449
0.802968
0.820753
0.932116
1.01638
1.03148
1.06982
1.1754
1.25169
1.82515
2.69098
1.45195
0.857845
0.926863
1.02016
1.04771
1.07973
1.1832
1.29448
1.93627
2.77511
2.18826
1.00844
0.937853
1.00876
1.0475
1.08164
1.18046
1.32365
2.03054
2.86021
2.63192
1.23409
0.961443
1.00582
1.03645
1.07944
1.17176
1.33656
2.09475
2.94352
2.9078
1.48273
1.0309
1.01435
1.01631
1.07084
1.17077
1.34086
2.13437
3.00436
3.10678
1.68721
1.14159
1.03266
1.00581
1.06003
1.16745
1.34448
2.1532
3.05239
3.18744
1.87295
1.24307
1.05346
1.00352
1.05093
1.16293
1.35253
2.15615
3.07387
3.26828
2.01183
1.36587
1.07931
1.00718
1.04365
1.15423
1.36402
2.14647
3.06594
3.33807
2.15078
1.48424
1.11801
1.01585
1.03715
1.14172
1.37796
2.12884
3.03535
3.40548
2.26982
1.59041
1.17074
1.02939
1.04171
1.12785
1.39207
2.12481
2.98832
3.4889
2.3823
1.69741
1.23707
1.04113
1.04741
1.11433
1.40351
2.11947
2.93226
3.57442
2.49896
1.78875
1.29881
1.07117
1.05315
1.1019
1.41145
2.11286
2.87401
3.51591
2.61868
1.88039
1.36948
1.12361
1.05465
1.0926
1.41571
2.10568
2.81575
3.52727
2.73579
1.9668
1.43724
1.17486
1.06021
1.08882
1.41581
2.09394
2.76
3.46153
2.83281
2.04998
1.50858
1.23935
1.06987
1.09221
1.41426
2.07773
2.7094
3.3004
2.88966
2.13618
1.5837
1.30034
1.08197
1.1012
1.41354
2.05382
2.66266
3.12193
2.93123
2.22516
1.66878
1.36321
1.09846
1.11768
1.41017
2.01789
2.61854
2.95148
2.88982
2.31424
1.75096
1.42627
1.11566
1.13823
1.43069
2.01847
2.58187
2.75456
2.86843
2.39195
1.83815
1.48769
1.13884
1.17241
1.44821
2.0122
2.55247
2.54613
2.85987
2.45236
1.92049
1.54397
1.17382
1.20077
1.46327
2.01542
2.53131
2.35059
2.84635
2.50804
1.99459
1.59983
1.22302
1.22306
1.47488
2.02496
2.51811
2.0383
2.64248
3.53808
4.65561
6.55799
6.30301
5.41629
4.9444
4.77989
4.83316
1.40003
1.39419
1.50517
1.81421
3.89846
5.14035
4.98943
4.85807
4.80883
4.83987
1.40003
1.40003
1.40004
1.399
1.76515
4.40411
5.15085
4.86754
4.79679
4.74871
1.40003
1.40003
1.40003
1.40004
1.40004
2.79596
4.84437
4.69443
4.65898
4.63327
1.40003
1.40003
1.40003
1.40004
1.40005
1.4915
3.97846
4.67333
4.60943
4.56954
1.40003
1.40003
1.40003
1.40004
1.40004
1.40005
2.45695
4.55778
4.61027
4.55057
1.40003
1.40003
1.40003
1.40004
1.40004
1.40005
1.46385
3.79227
4.58961
4.54079
1.40003
1.40003
1.40003
1.40003
1.40004
1.40004
1.40005
2.49985
4.51698
4.54555
1.40003
1.40003
1.40003
1.40003
1.40004
1.40004
1.40005
1.51337
3.91928
4.52463
1.40002
1.40003
1.40003
1.40003
1.40004
1.40004
1.40005
1.40062
2.89303
4.50627
1.40002
1.40003
1.40003
1.40003
1.40003
1.40004
1.40004
1.40006
1.7748
4.14812
1.40002
1.40002
1.40003
1.40003
1.40003
1.40004
1.40004
1.40005
1.4141
3.32147
1.40002
1.40002
1.40003
1.40003
1.40003
1.40003
1.40004
1.40005
1.40032
2.61963
1.40002
1.40002
1.40002
1.40003
1.40003
1.40003
1.40004
1.40004
1.40006
1.82115
1.40002
1.40002
1.40002
1.40002
1.40003
1.40003
1.40004
1.40004
1.40005
1.37001
1.40002
1.40002
1.40002
1.40002
1.40003
1.40003
1.40003
1.40004
1.40005
1.3903
1.40002
1.40002
1.40002
1.40002
1.40002
1.40003
1.40003
1.40004
1.40005
1.3987
1.40002
1.40002
1.40002
1.40002
1.40002
1.40003
1.40003
1.40003
1.40005
1.39977
1.40001
1.40002
1.40002
1.40002
1.40002
1.40002
1.40003
1.40003
1.40004
1.39994
1.40001
1.40001
1.40002
1.40002
1.40002
1.40002
1.40003
1.40003
1.40004
1.40001
1.40001
1.40001
1.40001
1.40001
1.40001
1.40001
1.40001
1.40001
1.40001
1.40002
1.40001
1.40001
1.40001
1.40001
1.40001
1.40001
1.40001
1.40001
1.40001
1.40002
1.40001
1.40001
1.40001
1.40001
1.40001
1.40001
1.40001
1.40001
1.40001
1.40002
1.40001
1.40001
1.40001
1.40001
1.40001
1.40001
1.40001
1.40001
1.40001
1.40002
1.40001
1.40001
1.40001
1.40001
1.40001
1.40001
1.40001
1.40001
1.40001
1.40002
1.40001
1.40001
1.40001
1.40001
1.40001
1.40001
1.40001
1.40001
1.40001
1.40002
1.40001
1.40001
1.40001
1.40001
1.40001
1.40001
1.40001
1.40001
1.40001
1.40002
1.40001
1.40001
1.40001
1.40001
1.40001
1.40001
1.40001
1.40001
1.40001
1.40002
1.40001
1.40001
1.40001
1.40001
1.40001
1.40001
1.40001
1.40001
1.40001
1.40002
1.40001
1.40001
1.40001
1.40001
1.40001
1.40001
1.40001
1.40001
1.40001
1.40002
1.40001
1.40001
1.40001
1.40001
1.40001
1.40001
1.40001
1.40001
1.40001
1.40002
1.40001
1.40001
1.40001
1.40001
1.40001
1.40001
1.40001
1.40001
1.40001
1.40002
1.40001
1.40001
1.40001
1.40001
1.40001
1.40001
1.40001
1.40001
1.40001
1.40001
1.40001
1.40001
1.40001
1.40001
1.40001
1.40001
1.40001
1.40001
1.40001
1.40001
1.40001
1.40001
1.40001
1.40001
1.40001
1.40001
1.40001
1.40001
1.40001
1.40001
1.40001
1.40001
1.40001
1.40001
1.40001
1.40001
1.40001
1.40001
1.40001
1.40001
1.40001
1.40001
1.40001
1.40001
1.40001
1.40001
1.40001
1.40001
1.40001
1.40001
1.40001
1.40001
1.40001
1.40001
1.40001
1.40001
1.40001
1.40001
1.40001
1.40001
1.40001
1.40001
1.40001
1.40001
1.40001
1.40001
1.40001
1.40001
1.40001
1.40001
1.40001
1.40001
1.40001
1.40001
1.40001
1.40001
1.40001
1.40001
1.40001
1.40001
1.40001
1.40001
1.40001
1.40001
1.40001
1.40001
1.40001
1.40001
1.40001
1.40001
1.40001
1.40001
1.40001
1.40001
1.40001
1.40001
1.40001
1.40001
1.40001
1.40001
1.40001
1.40001
1.40001
1.40001
1.40001
1.40001
1.40001
1.40001
1.40001
1.40001
1.40001
1.40001
1.40001
1.40001
1.40001
1.40001
1.40001
1.40001
1.40001
1.40001
1.40001
1.40001
1.40001
1.40001
1.40001
1.40001
1.40001
1.40001
1.40001
1.40001
1.40001
1.40001
1.40001
1.40001
1.40001
1.40001
1.40001
1.40001
1.40001
1.40001
1.40001
1.40001
1.40001
1.40001
1.40001
1.40001
1.40001
1.40001
1.40001
1.40001
1.40001
1.40001
1.40001
1.40001
1.40001
1.40001
1.40001
1.40001
1.40001
1.40001
1.40001
1.40001
1.40001
1.40001
1.40001
1.40001
1.40001
1.40001
1.40001
1.40002
1.40001
1.40001
1.40001
1.40001
1.40001
1.40001
1.40001
1.40001
1.40001
1.40002
1.40001
1.40001
1.40001
1.40001
1.40001
1.40001
1.40001
1.40001
1.40001
1.40002
1.40001
1.40001
1.40001
1.40001
1.40001
1.40001
1.40001
1.40001
1.40001
1.40002
1.40001
1.40001
1.40001
1.40001
1.40001
1.40001
1.40001
1.40001
1.40001
1.40002
1.40001
1.40001
1.40001
1.40001
1.40001
1.40001
1.40001
1.40001
1.40001
1.40002
1.40001
1.40001
1.40001
1.40001
1.40001
1.40001
1.40001
1.40001
1.40001
1.40002
1.40001
1.40001
1.40001
1.40001
1.40001
1.40001
1.40001
1.40001
1.40001
1.40002
1.40001
1.40001
1.40001
1.40001
1.40001
1.40001
1.40001
1.40001
1.40001
1.40002
1.40001
1.40001
1.40001
1.40001
1.40001
1.40001
1.40001
1.40001
1.40001
1.40002
1.40001
1.40001
1.40001
1.40001
1.40001
1.40001
1.40001
1.40001
1.40001
1.40002
1.40001
1.40001
1.40001
1.40001
1.40001
1.40001
1.40001
1.40001
1.40001
1.40002
1.40001
1.40001
1.40002
1.40002
1.40002
1.40002
1.40003
1.40003
1.40004
1.40001
1.40001
1.40002
1.40002
1.40002
1.40002
1.40002
1.40003
1.40003
1.40004
1.39994
1.40002
1.40002
1.40002
1.40002
1.40002
1.40003
1.40003
1.40003
1.40005
1.39977
1.40002
1.40002
1.40002
1.40002
1.40002
1.40003
1.40003
1.40004
1.40005
1.3987
1.40002
1.40002
1.40002
1.40002
1.40003
1.40003
1.40003
1.40004
1.40005
1.39031
1.40002
1.40002
1.40002
1.40002
1.40003
1.40003
1.40004
1.40004
1.40005
1.37002
1.40002
1.40002
1.40002
1.40003
1.40003
1.40003
1.40004
1.40004
1.40006
1.8212
1.40002
1.40002
1.40003
1.40003
1.40003
1.40003
1.40004
1.40005
1.40032
2.61969
1.40002
1.40002
1.40003
1.40003
1.40003
1.40004
1.40004
1.40005
1.4141
3.32153
1.40002
1.40003
1.40003
1.40003
1.40003
1.40004
1.40004
1.40006
1.77487
4.14814
1.40002
1.40003
1.40003
1.40003
1.40004
1.40004
1.40005
1.40062
2.89314
4.50626
1.40003
1.40003
1.40003
1.40003
1.40004
1.40004
1.40005
1.51341
3.91937
4.52463
1.40003
1.40003
1.40003
1.40003
1.40004
1.40004
1.40005
2.49999
4.51704
4.54557
1.40003
1.40003
1.40003
1.40004
1.40004
1.40005
1.46389
3.79241
4.58965
4.5408
1.40003
1.40003
1.40003
1.40004
1.40004
1.40005
2.45713
4.55782
4.61025
4.55057
1.40003
1.40003
1.40003
1.40004
1.40005
1.49155
3.97856
4.67337
4.60945
4.56953
1.40003
1.40003
1.40003
1.40004
1.40004
2.79616
4.84438
4.69445
4.659
4.63324
1.40003
1.40003
1.40004
1.399
1.76518
4.40419
5.15086
4.86754
4.79678
4.74869
1.40003
1.39419
1.50517
1.8142
3.8985
5.14039
4.98946
4.85811
4.80882
4.83983
2.0383
2.64248
3.53808
4.65561
6.55802
6.30302
5.41631
4.94444
4.77989
4.83312
2.35061
2.84635
2.50806
1.99448
1.5999
1.22296
1.22294
1.47571
2.0257
2.5183
2.54614
2.85988
2.45241
1.92034
1.54401
1.17386
1.20063
1.46316
2.01584
2.53164
2.75458
2.86843
2.392
1.83803
1.48776
1.1388
1.17224
1.44797
2.01146
2.55276
2.95151
2.88984
2.3143
1.75095
1.4263
1.11551
1.13812
1.4306
2.01824
2.58215
3.12197
2.93127
2.22524
1.66886
1.36319
1.09827
1.11746
1.41047
2.02005
2.6188
3.30043
2.88972
2.13631
1.58387
1.30023
1.08167
1.10084
1.41404
2.05503
2.66268
3.46155
2.83293
2.05005
1.50882
1.23906
1.06948
1.09184
1.41504
2.07894
2.70928
3.52728
2.73582
1.96691
1.4375
1.1745
1.05967
1.08842
1.41655
2.09507
2.75974
3.51594
2.61874
1.88037
1.36959
1.12317
1.05398
1.09201
1.41631
2.10654
2.81531
3.5745
2.49884
1.78861
1.29895
1.07057
1.05243
1.10131
1.41198
2.11324
2.87344
3.48891
2.38218
1.69743
1.23737
1.0405
1.04668
1.11387
1.40412
2.11929
2.93174
3.40547
2.26987
1.59043
1.1709
1.02863
1.04093
1.12763
1.39271
2.12483
2.98799
3.33809
2.15083
1.48407
1.11851
1.01513
1.03636
1.1417
1.37861
2.13077
3.03519
3.2683
2.01192
1.36613
1.07957
1.00643
1.04273
1.15423
1.36456
2.1467
3.06564
3.18741
1.8732
1.24334
1.05323
1.0029
1.04986
1.16285
1.35292
2.15577
3.07338
3.10665
1.68758
1.14159
1.03283
1.00516
1.05878
1.16728
1.34477
2.15266
3.05165
2.90774
1.48296
1.03118
1.01478
1.0155
1.06963
1.17062
1.3409
2.1337
3.00358
2.63189
1.23433
0.962092
1.00698
1.03554
1.07872
1.17103
1.33621
2.09394
2.94277
2.18819
1.00898
0.938727
1.00983
1.04618
1.08145
1.1812
1.32317
2.02904
2.85913
1.45191
0.858775
0.927922
1.0213
1.04608
1.0796
1.18434
1.29445
1.93418
2.7739
1.40001
1.40001
1.40001
1.40022
1.43081
3.14601
4.34416
3.97111
3.3558
2.46817
1.40001
1.40001
1.40001
1.40014
1.45428
3.24017
4.34146
3.96378
3.33911
2.46062
1.40001
1.40001
1.40001
1.40022
1.49049
3.39193
4.44378
4.01806
3.35456
2.45581
1.40001
1.40001
1.40001
1.40037
1.55591
3.52827
4.52373
4.06029
3.35972
2.45618
1.40001
1.40001
1.40001
1.40112
1.66032
3.49051
4.52349
4.10993
3.40791
2.48881
1.40001
1.40001
1.40004
1.4058
1.79325
3.39914
4.40906
4.00108
3.33102
2.44755
1.40001
1.40001
1.40019
1.43529
1.92512
3.29663
4.23102
3.89644
3.28574
2.43719
1.40001
1.40001
1.40089
1.56378
2.06728
3.12098
4.01904
3.76319
3.21196
2.41527
1.40001
1.40002
1.40426
1.84055
2.27574
2.91678
3.77779
3.60143
3.11531
2.38751
1.40001
1.40005
1.4209
2.18658
2.48701
2.71009
3.45828
3.398
3.00427
2.35652
1.40001
1.40029
1.49118
2.48868
2.61809
2.56237
3.09773
3.17433
2.88642
2.32839
1.40001
1.40171
1.70583
2.65646
2.68512
2.43929
2.74304
2.95538
2.76105
2.30513
1.40002
1.41006
2.06948
2.71746
2.64104
2.28547
2.42308
2.75442
2.64324
2.28801
1.40002
1.45595
2.42668
2.72513
2.53503
2.10783
2.13859
2.55051
2.51955
2.2807
1.40002
1.64195
2.64755
2.72741
2.43199
1.94353
1.912
2.32289
2.40769
2.28852
1.40003
2.00687
2.74868
2.69626
2.3036
1.79191
1.73295
2.08078
2.31421
2.29756
1.40209
2.37927
2.76242
2.56196
2.12948
1.64897
1.57838
1.87664
2.23377
2.3231
1.48277
2.64938
2.77963
2.442
1.9723
1.52179
1.44506
1.7197
2.15601
2.37548
1.81244
2.81508
2.7491
2.29085
1.82462
1.40812
1.34025
1.60787
2.08755
2.44602
2.15201
2.83719
2.59991
2.11374
1.68927
1.30058
1.2601
1.52734
2.04887
2.49655
2.152
2.83719
2.5999
2.11379
1.68925
1.30063
1.26022
1.52702
2.04813
2.4964
1.81245
2.81507
2.74905
2.29088
1.82466
1.4082
1.34034
1.60784
2.08679
2.44575
1.48279
2.64937
2.77964
2.442
1.97226
1.52188
1.44541
1.71989
2.15544
2.37502
1.40209
2.37929
2.76245
2.562
2.12952
1.64908
1.57866
1.87681
2.23341
2.32257
1.40003
2.0069
2.74872
2.6963
2.30364
1.79212
1.73334
2.08119
2.31401
2.29704
1.40002
1.64197
2.64759
2.72747
2.43203
1.94376
1.91237
2.32329
2.40773
2.28868
1.40002
1.45595
2.42673
2.72521
2.53506
2.10803
2.13909
2.55078
2.51962
2.28049
1.40002
1.41006
2.06954
2.71753
2.64105
2.28558
2.42371
2.7546
2.64325
2.2879
1.40001
1.40171
1.70588
2.65652
2.68515
2.43942
2.74377
2.95551
2.76098
2.30507
1.40001
1.40029
1.49119
2.48875
2.61815
2.56269
3.09844
3.17445
2.88627
2.32832
1.40001
1.40005
1.4209
2.18667
2.48712
2.71075
3.45877
3.39806
3.00402
2.35637
1.40001
1.40002
1.40426
1.84065
2.27584
2.91773
3.77799
3.60134
3.11502
2.38733
1.40001
1.40001
1.40089
1.56389
2.0673
3.12208
4.01906
3.76301
3.21165
2.41505
1.40001
1.40001
1.40019
1.43533
1.92514
3.29784
4.23093
3.8962
3.28542
2.43694
1.40001
1.40001
1.40004
1.4058
1.79339
3.40043
4.40904
4.00085
3.3307
2.44732
1.40001
1.40001
1.40001
1.40112
1.66055
3.49182
4.52343
4.10972
3.4076
2.48859
1.40001
1.40001
1.40001
1.40037
1.55613
3.52961
4.52374
4.06008
3.35942
2.45596
1.40001
1.40001
1.40001
1.40022
1.49066
3.39323
4.44381
4.01784
3.35424
2.45559
1.40001
1.40001
1.40001
1.40014
1.4544
3.2414
4.34152
3.96361
3.33881
2.46038
1.40001
1.40001
1.40001
1.40022
1.43086
3.14726
4.34433
3.97087
3.35547
2.46793
1.40001
1.40001
1.40001
1.40002
1.40002
1.40002
1.40002
1.40003
1.40004
1.40004
1.40001
1.40001
1.40001
1.40001
1.40002
1.40002
1.40002
1.40002
1.40003
1.40003
1.40001
1.40001
1.40001
1.40001
1.40001
1.40002
1.40002
1.40002
1.40002
1.40003
1.40001
1.40001
1.40001
1.40001
1.40001
1.40001
1.40002
1.40002
1.40002
1.40002
1.40001
1.40001
1.40001
1.40001
1.40001
1.40001
1.40001
1.40002
1.40002
1.40002
1.40001
1.40001
1.40001
1.40001
1.40001
1.40001
1.40001
1.40001
1.40002
1.40002
1.40001
1.40001
1.40001
1.40001
1.40001
1.40001
1.40001
1.40001
1.40001
1.40001
1.40001
1.40001
1.40001
1.40001
1.40001
1.40001
1.40001
1.40001
1.40001
1.40001
1.40001
1.40001
1.40001
1.40001
1.40001
1.40001
1.40001
1.40001
1.40001
1.40001
1.40001
1.40001
1.40001
1.40001
1.40001
1.40001
1.40001
1.40001
1.40001
1.40001
1.40001
1.40001
1.40001
1.40001
1.40001
1.40001
1.40001
1.40001
1.40001
1.40001
1.40001
1.40001
1.40001
1.40001
1.40001
1.40001
1.40001
1.40001
1.40001
1.40001
1.40001
1.40001
1.40001
1.40001
1.40001
1.40001
1.40001
1.40001
1.40001
1.40001
1.40001
1.40001
1.40001
1.40001
1.40001
1.40001
1.40001
1.40001
1.40001
1.40001
1.40001
1.40001
1.40001
1.40001
1.40001
1.40001
1.40001
1.40001
1.40001
1.40001
1.40001
1.40001
1.40001
1.40001
1.40001
1.40001
1.40001
1.40001
1.40001
1.40001
1.40001
1.40001
1.40001
1.40001
1.40001
1.40001
1.40001
1.40001
1.40001
1.40001
1.40001
1.40001
1.40001
1.40001
1.40001
1.40001
1.40001
1.40001
1.40001
1.40001
1.40001
1.40001
1.40001
1.40001
1.40001
1.40001
1.40001
1.40001
1.40001
1.40001
1.40001
1.40001
1.40001
1.40001
1.40001
1.40001
1.40001
1.40001
1.40001
1.40001
1.40001
1.40001
1.40001
1.40001
1.40001
1.40001
1.40001
1.40001
1.40001
1.40001
1.40001
1.40001
1.40001
1.40001
1.40001
1.40001
1.40001
1.40001
1.40001
1.40001
1.40001
1.40001
1.40001
1.40001
1.40001
1.40001
1.40001
1.40001
1.40001
1.40001
1.40001
1.40001
1.40001
1.40001
1.40001
1.40001
1.40001
1.40001
1.40001
1.40001
1.40001
1.40001
1.40001
1.40001
1.40001
1.40001
1.40001
1.40001
1.40001
1.40001
1.40001
1.40001
1.40001
1.40001
1.40001
1.40001
1.40001
1.40001
1.40001
1.40001
1.40001
1.40001
1.40001
1.40001
1.40001
1.40001
1.40001
1.40001
1.40001
1.40001
1.40001
1.40001
1.40001
1.40001
1.40001
1.40001
1.40001
1.40001
1.40001
1.40001
1.40001
1.40001
1.40001
1.40001
1.40001
1.40001
1.40001
1.40001
1.40001
1.40001
1.40001
1.40001
1.40001
1.40001
1.40001
1.40001
1.40001
1.40001
1.40001
1.40001
1.40001
1.40001
1.40001
1.40001
1.40001
1.40001
1.40001
1.40001
1.40001
1.40001
1.40001
1.40001
1.40001
1.40001
1.40001
1.40001
1.40001
1.40001
1.40001
1.40001
1.40001
1.40001
1.40001
1.40001
1.40001
1.40001
1.40001
1.40001
1.40001
1.40001
1.40001
1.40001
1.40001
1.40001
1.40001
1.40001
1.40001
1.40001
1.40001
1.40001
1.40001
1.40001
1.40001
1.40001
1.40001
1.40001
1.40001
1.40001
1.40001
1.40001
1.40001
1.40001
1.40001
1.40001
1.40001
1.40001
1.40001
1.40001
1.40001
1.40001
1.40001
1.40001
1.40001
1.40001
1.40001
1.40001
1.40001
1.40001
1.40001
1.40001
1.40001
1.40001
1.40001
1.40001
1.40001
1.40001
1.40001
1.40001
1.40001
1.40001
1.40001
1.40001
1.40001
1.40001
1.40001
1.40001
1.40001
1.40001
1.40001
1.40001
1.40001
1.40001
1.40001
1.40001
1.40001
1.40001
1.40001
1.40001
1.40001
1.40001
1.40001
1.40001
1.40001
1.40001
1.40001
1.40001
1.40001
1.40001
1.40001
1.40001
1.40001
1.40001
1.40001
1.40001
1.40001
1.40001
1.40001
1.40001
1.40001
1.40001
1.40001
1.40001
1.40001
1.40001
1.40001
1.40001
1.40001
1.40001
1.40001
1.40001
1.40001
1.40001
1.40001
1.40001
1.40001
1.40001
1.40001
1.40001
1.40001
1.40001
1.40001
1.40001
1.40001
1.40001
1.40001
1.40001
1.40001
1.40001
1.40001
1.40001
1.40001
1.40001
1.40001
1.40001
1.40001
1.40001
1.40001
1.40001
1.40001
1.40001
1.40001
1.40001
1.40001
1.40001
1.40001
1.40001
1.40001
1.40001
1.40001
1.40001
1.40001
1.40001
1.40001
1.40001
1.40001
1.40001
1.40001
1.40001
1.40001
1.40001
1.40001
1.40001
1.40001
1.40001
1.40001
1.40001
1.40001
1.40001
1.40001
1.40001
1.40001
1.40001
1.40001
1.40001
1.40001
1.40001
1.40001
1.40001
1.40001
1.40001
1.40001
1.40001
1.40001
1.40001
1.40001
1.40001
1.40001
1.40001
1.40001
1.40001
1.40001
1.40001
1.40001
1.40001
1.40001
1.40001
1.40001
1.40001
1.40001
1.40001
1.40001
1.40001
1.40001
1.40001
1.40001
1.40001
1.40001
1.40001
1.40001
1.40001
1.40001
1.40001
1.40001
1.40001
1.40001
1.40001
1.40001
1.40001
1.40001
1.40001
1.40001
1.40001
1.40001
1.40001
1.40001
1.40001
1.40001
1.40001
1.40001
1.40001
1.40001
1.40001
1.40001
1.40001
1.40001
1.40001
1.40001
1.40001
1.40001
1.40001
1.40001
1.40001
1.40001
1.40001
1.40001
1.40001
1.40001
1.40001
1.40001
1.40001
1.40001
1.40001
1.40001
1.40001
1.40001
1.40001
1.40001
1.40001
1.40001
1.40001
1.40001
1.40001
1.40001
1.40001
1.40001
1.40001
1.40001
1.40001
1.40001
1.40001
1.40001
1.40001
1.40001
1.40001
1.40001
1.40001
1.40001
1.40001
1.40001
1.40001
1.40001
1.40001
1.40001
1.40001
1.40001
1.40001
1.40001
1.40001
1.40001
1.40001
1.40001
1.40001
1.40001
1.40001
1.40001
1.40001
1.40001
1.40001
1.40001
1.40001
1.40001
1.40001
1.40001
1.40001
1.40001
1.40001
1.40001
1.40001
1.40001
1.40001
1.40001
1.40001
1.40001
1.40001
1.40001
1.40001
1.40001
1.40001
1.40001
1.40001
1.40001
1.40001
1.40001
1.40001
1.40001
1.40001
1.40001
1.40001
1.40001
1.40001
1.40001
1.40001
1.40001
1.40001
1.40001
1.40001
1.40001
1.40001
1.40001
1.40001
1.40001
1.40001
1.40001
1.40001
1.40001
1.40001
1.40001
1.40001
1.40001
1.40001
1.40001
1.40001
1.40001
1.40001
1.40001
1.40001
1.40001
1.40001
1.40001
1.40001
1.40001
1.40001
1.40001
1.40001
1.40001
1.40001
1.40001
1.40001
1.40001
1.40001
1.40001
1.40001
1.40001
1.40001
1.40001
1.40001
1.40001
1.40001
1.40001
1.40001
1.40001
1.40001
1.40001
1.40001
1.40001
1.40001
1.40001
1.40001
1.40001
1.40001
1.40001
1.40001
1.40001
1.40001
1.40001
1.40001
1.40001
1.40001
1.40001
1.40001
1.40001
1.40001
1.40001
1.40001
1.40001
1.40001
1.40001
1.40001
1.40001
1.40001
1.40001
1.40001
1.40001
1.40001
1.40001
1.40001
1.40001
1.40001
1.40001
1.40001
1.40001
1.40001
1.40001
1.40001
1.40001
1.40001
1.40001
1.40001
1.40002
1.40002
1.40001
1.40001
1.40001
1.40001
1.40001
1.40001
1.40001
1.40002
1.40002
1.40002
1.40001
1.40001
1.40001
1.40001
1.40001
1.40001
1.40002
1.40002
1.40002
1.40002
1.40001
1.40001
1.40001
1.40001
1.40001
1.40002
1.40002
1.40002
1.40002
1.40003
1.40001
1.40001
1.40001
1.40001
1.40002
1.40002
1.40002
1.40002
1.40003
1.40003
1.40001
1.40001
1.40001
1.40002
1.40002
1.40002
1.40002
1.40003
1.40004
1.40004
)
;

boundaryField
{
    inlet
    {
        type            calculated;
        value           uniform 1.40001;
    }
    outlet
    {
        type            calculated;
        value           nonuniform List<scalar> 
100
(
2.49613
2.4456
2.37496
2.32226
2.29675
2.28848
2.28029
2.2877
2.30487
2.32814
2.3562
2.38719
2.41495
2.43693
2.44739
2.48873
2.45616
2.45589
2.46077
2.46834
2.77507
2.86007
2.94334
3.00423
3.05226
3.07401
3.06631
3.03591
2.98901
2.93298
2.87466
2.81629
2.76043
2.70975
2.66296
2.61876
2.58196
2.55242
2.53112
2.51782
2.68971
2.61311
2.53347
2.45484
2.38362
2.33034
2.30527
2.29922
2.30259
2.30271
2.3029
2.30278
2.29972
2.30582
2.3312
2.38478
2.45642
2.53529
2.6147
2.69106
2.51801
2.53145
2.5527
2.58225
2.61902
2.66297
2.70963
2.76017
2.81585
2.87409
2.93247
2.98868
3.03575
3.06602
3.07352
3.05152
3.00346
2.94259
2.85899
2.77386
2.46858
2.461
2.45612
2.45637
2.48895
2.44762
2.43717
2.41517
2.38737
2.35635
2.32822
2.30493
2.28781
2.2805
2.28831
2.29726
2.3228
2.37542
2.44587
2.49628
)
;
    }
    triangle
    {
        type            calculated;
        value           nonuniform List<scalar> 
40
(
2.0383
2.64248
3.53808
4.65561
6.55799
6.30301
5.41629
4.9444
4.77989
4.83316
0.80314
0.810319
0.776206
0.751663
0.758086
0.777313
0.797812
0.812565
0.81602
0.815518
0.815485
0.815916
0.812365
0.797531
0.776997
0.757815
0.751466
0.776117
0.810221
0.802968
2.0383
2.64248
3.53808
4.65561
6.55802
6.30302
5.41631
4.94444
4.77989
4.83312
)
;
    }
    top
    {
        type            symmetryPlane;
    }
    bottom
    {
        type            symmetryPlane;
    }
    defaultFaces
    {
        type            empty;
    }
}


// ************************************************************************* //
