/*--------------------------------*- C++ -*----------------------------------*\
  =========                 |
  \\      /  F ield         | OpenFOAM: The Open Source CFD Toolbox
   \\    /   O peration     | Website:  https://openfoam.org
    \\  /    A nd           | Version:  8
     \\/     M anipulation  |
\*---------------------------------------------------------------------------*/
FoamFile
{
    version     2.0;
    format      ascii;
    class       volScalarField;
    location    "1.2";
    object      T;
}
// * * * * * * * * * * * * * * * * * * * * * * * * * * * * * * * * * * * * * //

dimensions      [0 0 0 1 0 0 0];

internalField   nonuniform List<scalar> 
2600
(
1.42731
1.41132
1.42079
1.4126
1.40394
1.42871
1.51176
1.63612
1.97596
2.06737
1.49067
1.5022
1.49474
1.47276
1.46554
1.49391
1.57938
1.73113
2.08651
2.12225
1.55748
1.58156
1.57786
1.56427
1.55286
1.58601
1.67721
1.84627
2.19461
2.18097
1.5888
1.65017
1.65917
1.65544
1.6503
1.69328
1.79531
1.95365
2.25945
2.24348
1.59511
1.66195
1.69705
1.72363
1.74201
1.80516
1.90796
2.01607
2.27509
2.30585
1.59447
1.65634
1.70579
1.75737
1.80681
1.89112
1.97512
2.0362
2.2635
2.355
1.59223
1.64627
1.70118
1.76752
1.83676
1.93025
1.99351
2.02734
2.23307
2.37883
1.59259
1.63483
1.69525
1.76417
1.84488
1.93716
1.98571
2.00262
2.19273
2.38222
1.5915
1.62136
1.68332
1.75891
1.84228
1.93125
1.97382
1.97998
2.16115
2.3791
1.59035
1.61293
1.67537
1.75858
1.84213
1.928
1.96592
1.97153
2.14902
2.37495
1.59034
1.61296
1.67526
1.75876
1.84308
1.92745
1.9651
1.97132
2.1489
2.37484
1.59144
1.62137
1.68294
1.7592
1.84372
1.93131
1.97282
1.97953
2.16063
2.37878
1.59247
1.63488
1.69461
1.76411
1.84502
1.93665
1.98524
2.00221
2.19332
2.38187
1.59207
1.64614
1.70049
1.76733
1.83826
1.93148
1.99262
2.02636
2.23261
2.3784
1.59425
1.65586
1.70501
1.758
1.80943
1.89462
1.97505
2.0349
2.26248
2.35448
1.59492
1.66133
1.69568
1.72336
1.74684
1.81144
1.90967
2.01451
2.2734
2.30532
1.58868
1.6492
1.65709
1.65447
1.65564
1.69906
1.79756
1.95169
2.25701
2.2429
1.55738
1.58002
1.5758
1.56297
1.55753
1.5906
1.67947
1.84382
2.19085
2.18026
1.49053
1.50063
1.49319
1.47144
1.46929
1.49689
1.58063
1.72825
2.08246
2.12151
1.42715
1.4102
1.41935
1.41142
1.40683
1.43065
1.51207
1.63353
1.97277
2.06669
1.66123
1.38264
1.33481
1.34864
1.35711
1.37937
1.45346
1.56175
1.87843
2.01001
1.71191
1.37463
1.27509
1.29484
1.31219
1.3373
1.40208
1.50257
1.79841
1.95029
1.73976
1.38556
1.2529
1.26179
1.27652
1.30626
1.3622
1.45618
1.73559
1.8983
1.77999
1.42183
1.25243
1.24264
1.24838
1.28172
1.33643
1.41937
1.68714
1.85329
1.83119
1.47071
1.27959
1.23686
1.23212
1.26165
1.31605
1.39122
1.65029
1.82136
1.86624
1.52608
1.31613
1.23768
1.22299
1.24718
1.29992
1.37084
1.62079
1.79864
1.89842
1.57381
1.36557
1.24697
1.22047
1.23743
1.28581
1.35593
1.59781
1.78193
1.92168
1.62097
1.4115
1.26491
1.22167
1.2307
1.27228
1.34522
1.58089
1.77138
1.93787
1.6587
1.45114
1.287
1.22975
1.22958
1.25825
1.3378
1.57404
1.76424
1.94595
1.68932
1.48762
1.31031
1.24256
1.22517
1.24528
1.33354
1.57081
1.75757
1.94847
1.717
1.51583
1.33001
1.25922
1.22209
1.23474
1.33204
1.56972
1.75083
1.9429
1.74682
1.54251
1.35356
1.27527
1.21997
1.22729
1.33266
1.56972
1.7436
1.93897
1.77425
1.56754
1.37786
1.28696
1.21944
1.2232
1.33311
1.56888
1.73592
1.90321
1.78771
1.58932
1.40349
1.30503
1.21998
1.22224
1.33292
1.5651
1.72794
1.87735
1.78866
1.60522
1.4279
1.3229
1.22117
1.2227
1.33413
1.55779
1.71916
1.8469
1.79221
1.61944
1.4519
1.34113
1.22475
1.22658
1.3356
1.54666
1.70907
1.80893
1.78226
1.63578
1.47275
1.35879
1.2291
1.2332
1.34531
1.54499
1.69895
1.75737
1.77273
1.65364
1.49651
1.37664
1.23612
1.24574
1.3546
1.54245
1.68949
1.68151
1.77224
1.67167
1.52159
1.3949
1.24913
1.25536
1.36387
1.54265
1.6816
1.56299
1.76947
1.68935
1.54676
1.41564
1.27111
1.26182
1.3728
1.54408
1.67554
1.2028
1.34675
1.54799
1.77243
2.16511
2.15514
2.07175
2.00484
2.00537
2.03041
1.00001
0.998429
1.05783
1.19358
1.79754
2.05236
2.04218
2.0245
2.0287
2.05888
1.00001
1.00001
1.00001
0.999632
1.19636
2.15901
2.1588
2.10713
2.08181
2.10307
1.00001
1.00001
1.00001
1.00001
1.00001
1.68065
2.21177
2.1753
2.13434
2.15102
1.00001
1.00001
1.00001
1.00001
1.00001
1.04784
2.13074
2.22014
2.1825
2.18412
1.00001
1.00001
1.00001
1.00001
1.00001
1.00001
1.5187
2.17969
2.19823
2.19007
1.00001
1.00001
1.00001
1.00001
1.00001
1.00001
1.03121
2.04107
2.20027
2.18987
1.00001
1.00001
1.00001
1.00001
1.00001
1.00001
1.00001
1.50117
2.13416
2.18558
1.00001
1.00001
1.00001
1.00001
1.00001
1.00001
1.00001
1.05122
2.03048
2.1729
1.00001
1.00001
1.00001
1.00001
1.00001
1.00001
1.00001
1.00021
1.65909
2.13745
1.00001
1.00001
1.00001
1.00001
1.00001
1.00001
1.00001
1.00002
1.15385
2.04753
1
1.00001
1.00001
1.00001
1.00001
1.00001
1.00001
1.00001
1.00525
1.93252
1
1.00001
1.00001
1.00001
1.00001
1.00001
1.00001
1.00001
1.00009
1.6177
1
1
1.00001
1.00001
1.00001
1.00001
1.00001
1.00001
1.00002
1.14981
1
1
1
1.00001
1.00001
1.00001
1.00001
1.00001
1.00001
0.990565
1
1
1
1.00001
1.00001
1.00001
1.00001
1.00001
1.00001
0.997241
1
1
1
1
1.00001
1.00001
1.00001
1.00001
1.00001
0.999633
1
1
1
1
1.00001
1.00001
1.00001
1.00001
1.00001
0.999932
1
1
1
1
1
1.00001
1.00001
1.00001
1.00001
0.999982
1
1
1
1
1
1.00001
1.00001
1.00001
1.00001
1
1
1
1
1
1
1
1
1
1
1.00001
1
1
1
1
1
1
1
1
1
1.00001
1
1
1
1
1
1
1
1
1
1
1
1
1
1
1
1
1
1
1
1
1
1
1
1
1
1
1
1
1
1
1
1
1
1
1
1
1
1
1
1
1
1
1
1
1
1
1
1
1
1
1
1
1
1
1
1
1
1
1
1
1
1
1
1
1
1
1
1
1
1
1
1
1
1
1
1
1
1
1
1
1
1
1
1
1
1
1
1
1
1
1
1
1
1
1
1
1
1
1
1
1
1
1
1
1
1
1
1
1
1
1
1
1
1
1
1
1
1
1
1
1
1
1
1
1
1
1
1
1
1
1
1
1
1
1
1
1
1
1
1
1
1
1
1
1
1
1
1
1
1
1
1
1
1
1
1
1
1
1
1
1
1
1
1
1
1
1
1
1
1
1
1
1
1
1
1
1
1
1
1
1
1
1
1
1
1
1
1
1
1
1
1
1
1
1
1
1
1
1
1
1
1
1
1
1
1
1
1
1
1
1
1
1
1
1
1
1
1
1
1
1
1
1
1
1
1
1
1
1
1
1
1
1
1
1
1
1
1
1
1
1
1
1
1
1
1
1
1
1
1
1
1
1
1
1
1
1
1
1
1
1
1
1
1
1
1
1
1
1
1
1
1
1
1
1
1
1
1
1
1
1
1
1
1
1
1
1
1
1
1
1
1
1
1
1
1
1
1
1
1
1
1
1
1
1
1
1
1
1
1
1
1
1
1
1
1
1
1
1
1
1
1
1
1
1
1
1
1
1
1
1
1
1
1
1
1
1
1
1
1
1
1
1
1
1
1
1
1
1
1
1
1
1
1
1
1
1
1
1
1
1
1
1
1
1
1
1
1
1
1.00001
1
1
1
1
1
1
1
1
1
1.00001
1
1
1
1
1
1.00001
1.00001
1.00001
1.00001
1
1
1
1
1
1
1.00001
1.00001
1.00001
1.00001
0.999982
1
1
1
1
1.00001
1.00001
1.00001
1.00001
1.00001
0.999932
1
1
1
1
1.00001
1.00001
1.00001
1.00001
1.00001
0.999634
1
1
1
1.00001
1.00001
1.00001
1.00001
1.00001
1.00001
0.997242
1
1
1
1.00001
1.00001
1.00001
1.00001
1.00001
1.00001
0.990566
1
1
1.00001
1.00001
1.00001
1.00001
1.00001
1.00001
1.00002
1.14983
1
1.00001
1.00001
1.00001
1.00001
1.00001
1.00001
1.00001
1.00009
1.61772
1
1.00001
1.00001
1.00001
1.00001
1.00001
1.00001
1.00001
1.00525
1.93253
1.00001
1.00001
1.00001
1.00001
1.00001
1.00001
1.00001
1.00002
1.15387
2.04752
1.00001
1.00001
1.00001
1.00001
1.00001
1.00001
1.00001
1.00021
1.65912
2.13744
1.00001
1.00001
1.00001
1.00001
1.00001
1.00001
1.00001
1.05123
2.03049
2.1729
1.00001
1.00001
1.00001
1.00001
1.00001
1.00001
1.00001
1.5012
2.13416
2.18558
1.00001
1.00001
1.00001
1.00001
1.00001
1.00001
1.03123
2.04109
2.20028
2.18986
1.00001
1.00001
1.00001
1.00001
1.00001
1.00001
1.51876
2.1797
2.19823
2.19006
1.00001
1.00001
1.00001
1.00001
1.00001
1.04787
2.13075
2.22014
2.1825
2.18412
1.00001
1.00001
1.00001
1.00001
1.00001
1.68072
2.21178
2.17531
2.13434
2.15102
1.00001
1.00001
1.00001
0.999632
1.19637
2.15902
2.15881
2.10714
2.08181
2.10307
1.00001
0.998429
1.05783
1.19358
1.79755
2.05237
2.04219
2.02451
2.0287
2.05887
1.2028
1.34675
1.548
1.77243
2.16512
2.15514
2.07176
2.00485
2.00537
2.03041
1.56299
1.76946
1.68935
1.54672
1.41566
1.27112
1.26176
1.37204
1.54416
1.67557
1.68152
1.77223
1.67168
1.52154
1.39487
1.24916
1.25531
1.36455
1.54305
1.68162
1.75738
1.77273
1.65366
1.49645
1.37663
1.2361
1.24571
1.35544
1.54321
1.68955
1.80894
1.78227
1.63581
1.47274
1.35875
1.22903
1.23322
1.34586
1.54582
1.69899
1.84691
1.79222
1.61947
1.45193
1.34107
1.22473
1.22651
1.33529
1.54651
1.70903
1.87736
1.78869
1.60529
1.42794
1.32285
1.22107
1.2225
1.33439
1.55805
1.71903
1.90322
1.78777
1.58934
1.40359
1.30489
1.21974
1.22208
1.33328
1.56514
1.72772
1.93898
1.77427
1.56758
1.37796
1.28681
1.21915
1.22304
1.33322
1.5687
1.73564
1.94291
1.74686
1.54249
1.35358
1.275
1.21962
1.22708
1.3329
1.56952
1.74329
1.94849
1.71699
1.51573
1.33009
1.25875
1.22165
1.23454
1.33247
1.56955
1.75049
1.94595
1.68932
1.48757
1.31053
1.24195
1.22458
1.24514
1.33411
1.57062
1.75723
1.93786
1.65878
1.45109
1.28714
1.22905
1.22886
1.25822
1.33848
1.57403
1.76393
1.92168
1.62105
1.41127
1.26529
1.22097
1.22994
1.27238
1.34597
1.58168
1.77111
1.89844
1.57387
1.36569
1.24713
1.21973
1.23656
1.28601
1.35669
1.5978
1.78175
1.86622
1.52626
1.31621
1.23742
1.22226
1.24619
1.30017
1.3716
1.62061
1.79854
1.83113
1.4709
1.27952
1.23698
1.23114
1.26045
1.31633
1.39211
1.65018
1.82137
1.77997
1.42188
1.25283
1.24269
1.24708
1.28046
1.33669
1.42036
1.68726
1.85336
1.73977
1.3857
1.25351
1.26249
1.27517
1.30509
1.36218
1.45726
1.73596
1.89847
1.7119
1.37496
1.27586
1.29565
1.31047
1.33626
1.40224
1.50388
1.79921
1.95061
1.66117
1.38326
1.33587
1.34961
1.35499
1.37805
1.4535
1.5636
1.88024
2.01054
1
1
1
1.00006
1.00937
1.77041
2.0572
1.97941
1.84314
1.62803
1
1
1
1.00004
1.01557
1.74481
2.02814
1.95658
1.82551
1.62064
1
1
1
1.00006
1.02522
1.67721
1.97759
1.91384
1.79317
1.60377
1
1
1
1.00011
1.04467
1.61757
1.91703
1.85827
1.74947
1.58279
1
1
1
1.00032
1.08048
1.5741
1.86468
1.81582
1.71735
1.56987
1
1
1.00001
1.0016
1.1305
1.55254
1.81987
1.76727
1.67137
1.53907
1
1
1.00005
1.00934
1.17727
1.53057
1.7832
1.73924
1.64791
1.52231
1
1
1.00025
1.04361
1.21724
1.48794
1.746
1.71504
1.62908
1.51068
1
1
1.00121
1.12577
1.28367
1.45984
1.71437
1.69432
1.61405
1.50394
1
1.00001
1.00589
1.23448
1.36438
1.45133
1.68449
1.67608
1.60271
1.50079
1
1.00008
1.02539
1.31727
1.4274
1.45457
1.65017
1.65976
1.59544
1.50104
1
1.00049
1.08591
1.37385
1.47151
1.45967
1.58978
1.64209
1.58961
1.50411
1
1.00282
1.19482
1.44386
1.48269
1.45442
1.52626
1.62335
1.58575
1.51077
1
1.01534
1.30895
1.50561
1.49043
1.43728
1.46755
1.59972
1.57855
1.52118
1.00001
1.06754
1.39801
1.54666
1.50451
1.41954
1.42599
1.56786
1.56681
1.53807
1.00001
1.18585
1.49897
1.57227
1.51249
1.40452
1.39837
1.52466
1.55731
1.55644
1.00044
1.33585
1.5937
1.57999
1.50519
1.38725
1.36778
1.48312
1.5524
1.58031
1.0202
1.45954
1.65374
1.59687
1.49402
1.36614
1.33507
1.44751
1.54879
1.61028
1.1104
1.58807
1.68459
1.60097
1.47799
1.34061
1.30408
1.41799
1.54482
1.64207
1.33735
1.72641
1.69041
1.57663
1.44556
1.30381
1.27596
1.39239
1.54515
1.66467
1.33736
1.72642
1.69042
1.57666
1.44557
1.3038
1.27594
1.39238
1.54507
1.66469
1.11041
1.58808
1.68459
1.60101
1.47803
1.34061
1.30415
1.41789
1.54469
1.64208
1.0202
1.45955
1.65373
1.59689
1.49403
1.36616
1.33523
1.44755
1.54868
1.61024
1.00044
1.33586
1.59371
1.58001
1.50522
1.38728
1.36788
1.48325
1.55235
1.58023
1.00001
1.18587
1.499
1.57229
1.51252
1.40461
1.39853
1.52478
1.55733
1.55636
1.00001
1.06754
1.39803
1.54669
1.50454
1.41967
1.42616
1.56795
1.56685
1.53824
1
1.01535
1.30897
1.50565
1.49046
1.4374
1.4678
1.59981
1.57862
1.52125
1
1.00282
1.19485
1.4439
1.48271
1.45451
1.52656
1.62345
1.5858
1.51085
1
1.00049
1.08593
1.37389
1.47153
1.45975
1.59008
1.64218
1.58965
1.50419
1
1.00008
1.0254
1.31733
1.42742
1.45467
1.65039
1.65986
1.59547
1.50109
1
1.00001
1.00589
1.23455
1.36442
1.45151
1.68462
1.67614
1.60273
1.50081
1
1
1.00121
1.12583
1.2837
1.46011
1.71447
1.69437
1.61404
1.50396
1
1
1.00025
1.04364
1.21724
1.48833
1.74609
1.71506
1.62907
1.51067
1
1
1.00005
1.00936
1.17727
1.53106
1.78327
1.73924
1.64789
1.52229
1
1
1.00001
1.0016
1.13056
1.55302
1.81995
1.76727
1.67134
1.53904
1
1
1
1.00032
1.08056
1.57453
1.86474
1.81582
1.71732
1.56984
1
1
1
1.00011
1.04474
1.61796
1.91708
1.85826
1.74943
1.58275
1
1
1
1.00006
1.02527
1.67761
1.97763
1.91383
1.79313
1.60372
1
1
1
1.00004
1.01561
1.74523
2.02819
1.95658
1.82547
1.62059
1
1
1
1.00006
1.00939
1.77088
2.05727
1.9794
1.84309
1.62797
1
1
1
1
1
1
1.00001
1.00001
1.00001
1.00001
1
1
1
1
1
1
1
1.00001
1.00001
1.00001
1
1
1
1
1
1
1
1
1.00001
1.00001
1
1
1
1
1
1
1
1
1
1.00001
1
1
1
1
1
1
1
1
1
1
1
1
1
1
1
1
1
1
1
1
1
1
1
1
1
1
1
1
1
1
1
1
1
1
1
1
1
1
1
1
1
1
1
1
1
1
1
1
1
1
1
1
1
1
1
1
1
1
1
1
1
1
1
1
1
1
1
1
1
1
1
1
1
1
1
1
1
1
1
1
1
1
1
1
1
1
1
1
1
1
1
1
1
1
1
1
1
1
1
1
1
1
1
1
1
1
1
1
1
1
1
1
1
1
1
1
1
1
1
1
1
1
1
1
1
1
1
1
1
1
1
1
1
1
1
1
1
1
1
1
1
1
1
1
1
1
1
1
1
1
1
1
1
1
1
1
1
1
1
1
1
1
1
1
1
1
1
1
1
1
1
1
1
1
1
1
1
1
1
1
1
1
1
1
1
1
1
1
1
1
1
1
1
1
1
1
1
1
1
1
1
1
1
1
1
1
1
1
1
1
1
1
1
1
1
1
1
1
1
1
1
1
1
1
1
1
1
1
1
1
1
1
1
1
1
1
1
1
1
1
1
1
1
1
1
1
1
1
1
1
1
1
1
1
1
1
1
1
1
1
1
1
1
1
1
1
1
1
1
1
1
1
1
1
1
1
1
1
1
1
1
1
1
1
1
1
1
1
1
1
1
1
1
1
1
1
1
1
1
1
1
1
1
1
1
1
1
1
1
1
1
1
1
1
1
1
1
1
1
1
1
1
1
1
1
1
1
1
1
1
1
1
1
1
1
1
1
1
1
1
1
1
1
1
1
1
1
1
1
1
1
1
1
1
1
1
1
1
1
1
1
1
1
1
1
1
1
1
1
1
1
1
1
1
1
1
1
1
1
1
1
1
1
1
1
1
1
1
1
1
1
1
1
1
1
1
1
1
1
1
1
1
1
1
1
1
1
1
1
1
1
1
1
1
1
1
1
1
1
1
1
1
1
1
1
1
1
1
1
1
1
1
1
1
1
1
1
1
1
1
1
1
1
1
1
1
1
1
1
1
1
1
1
1
1
1
1
1
1
1
1
1
1
1
1
1
1
1
1
1
1
1
1
1
1
1
1
1
1
1
1
1
1
1
1
1
1
1
1
1
1
1
1
1
1
1
1
1
1
1
1
1
1
1
1
1
1
1
1
1
1
1
1
1
1
1
1
1
1
1
1
1
1
1
1
1
1
1
1
1
1
1
1
1
1
1
1
1
1
1
1
1
1
1
1
1
1
1
1
1
1
1
1
1
1
1
1
1
1
1
1
1
1
1
1
1
1
1
1
1
1
1
1
1
1
1
1
1
1
1
1
1
1
1
1
1
1
1
1
1
1
1
1
1
1
1
1
1
1
1
1
1
1
1
1
1
1
1
1
1
1
1
1
1
1
1
1
1
1
1
1
1
1
1
1
1
1
1
1
1
1
1
1
1
1
1
1
1
1
1
1
1
1
1
1
1
1
1
1
1
1
1
1
1
1
1
1
1
1
1
1
1
1
1
1
1
1
1
1
1
1
1
1
1
1
1
1
1
1
1
1
1
1
1
1
1
1
1
1
1
1
1
1
1
1
1
1
1
1
1
1
1
1
1
1
1
1
1
1
1
1
1
1
1
1
1
1
1
1
1
1
1
1
1
1
1
1
1
1
1.00001
1
1
1
1
1
1
1
1
1.00001
1.00001
1
1
1
1
1
1
1
1.00001
1.00001
1.00001
1
1
1
1
1
1
1.00001
1.00001
1.00001
1.00001
)
;

boundaryField
{
    inlet
    {
        type            fixedValue;
        value           uniform 1;
    }
    outlet
    {
        type            inletOutlet;
        inletValue      uniform 1;
        value           nonuniform List<scalar> 
100
(
1.66486
1.64218
1.61028
1.58044
1.55656
1.53838
1.52139
1.51099
1.50432
1.5012
1.50092
1.50404
1.51073
1.5223
1.53899
1.56975
1.58263
1.60353
1.62034
1.6277
2.01004
1.95039
1.89841
1.85337
1.82144
1.79856
1.78172
1.77105
1.76384
1.75713
1.75043
1.74327
1.73565
1.72772
1.71897
1.70892
1.69889
1.68953
1.68173
1.67572
2.0673
2.12208
2.18075
2.24324
2.30562
2.35485
2.37877
2.38223
2.37913
2.375
2.3749
2.37881
2.38188
2.37833
2.35433
2.3051
2.24267
2.18004
2.12135
2.06663
1.67576
1.68174
1.68958
1.69892
1.70888
1.71884
1.7275
1.73537
1.74297
1.7501
1.7568
1.76352
1.77078
1.78153
1.79845
1.82145
1.85344
1.89859
1.95071
2.01057
1.62776
1.62039
1.60357
1.58267
1.56978
1.53902
1.52232
1.51074
1.50403
1.50089
1.50115
1.50424
1.5109
1.52131
1.53821
1.55664
1.58052
1.61032
1.64217
1.66485
)
;
    }
    triangle
    {
        type            zeroGradient;
    }
    top
    {
        type            symmetryPlane;
    }
    bottom
    {
        type            symmetryPlane;
    }
    defaultFaces
    {
        type            empty;
    }
}


// ************************************************************************* //
