/*--------------------------------*- C++ -*----------------------------------*\
  =========                 |
  \\      /  F ield         | OpenFOAM: The Open Source CFD Toolbox
   \\    /   O peration     | Website:  https://openfoam.org
    \\  /    A nd           | Version:  7
     \\/     M anipulation  |
\*---------------------------------------------------------------------------*/
FoamFile
{
    version     2.0;
    format      ascii;
    class       volScalarField;
    location    "1.2";
    object      T;
}
// * * * * * * * * * * * * * * * * * * * * * * * * * * * * * * * * * * * * * //

dimensions      [0 0 0 1 0 0 0];

internalField   nonuniform List<scalar> 
2600
(
1.4273
1.41113
1.42052
1.41239
1.40472
1.42915
1.51157
1.63516
1.97578
2.06729
1.49064
1.50197
1.49445
1.47251
1.46668
1.49466
1.57918
1.72991
2.0862
2.12212
1.55744
1.58133
1.57748
1.56413
1.55421
1.58709
1.67708
1.84512
2.19417
2.18084
1.58877
1.65002
1.65876
1.65543
1.65182
1.69455
1.79502
1.95275
2.25918
2.2434
1.59508
1.66185
1.6968
1.72373
1.74341
1.80668
1.90768
2.01551
2.27491
2.30582
1.59446
1.6563
1.70568
1.7577
1.8077
1.89212
1.97472
2.0359
2.2634
2.35498
1.59226
1.64631
1.70108
1.76751
1.83723
1.93075
1.9931
2.02717
2.23311
2.37878
1.59264
1.63491
1.69517
1.76422
1.84502
1.93726
1.98557
2.00258
2.19282
2.38211
1.59156
1.62141
1.68329
1.75896
1.84253
1.93131
1.97309
1.97988
2.16116
2.37904
1.59042
1.613
1.67541
1.75868
1.84212
1.92799
1.96567
1.97149
2.14901
2.37492
1.59041
1.61304
1.67536
1.75873
1.84283
1.92761
1.96559
1.97139
2.14886
2.37486
1.5915
1.62145
1.68311
1.75914
1.84347
1.93129
1.97362
1.97949
2.16054
2.37877
1.59255
1.63494
1.69483
1.76408
1.84506
1.93679
1.98536
2.00218
2.19314
2.38184
1.59217
1.64621
1.7007
1.76735
1.83785
1.93127
1.99334
2.02654
2.23251
2.37837
1.59439
1.65602
1.70522
1.75773
1.80873
1.89389
1.97559
2.03528
2.2625
2.35444
1.59506
1.66152
1.69601
1.72327
1.74539
1.81
1.90989
2.01509
2.27347
2.30526
1.58881
1.64944
1.65755
1.65458
1.65406
1.69764
1.79771
1.95258
2.25713
2.24288
1.55749
1.58031
1.57622
1.5632
1.55616
1.58945
1.67949
1.84496
2.19111
2.18034
1.49062
1.50088
1.49349
1.47172
1.46821
1.49625
1.5808
1.72943
2.08258
2.12163
1.4272
1.41037
1.41961
1.41162
1.40607
1.43027
1.51221
1.63439
1.97277
2.0668
1.66121
1.38273
1.33499
1.34879
1.35651
1.37903
1.45353
1.56243
1.87836
2.0101
1.71191
1.37466
1.27524
1.29498
1.31169
1.337
1.40218
1.50315
1.79823
1.95034
1.73977
1.38556
1.25306
1.26195
1.27611
1.30597
1.36248
1.45664
1.73538
1.89831
1.77999
1.42181
1.25258
1.2426
1.248
1.28144
1.33665
1.41971
1.68698
1.85331
1.83118
1.47074
1.2796
1.23684
1.23183
1.26139
1.31624
1.3915
1.65013
1.8214
1.86624
1.52611
1.31616
1.23761
1.22279
1.24695
1.30007
1.37106
1.62066
1.79863
1.89843
1.57381
1.36563
1.247
1.22028
1.23722
1.28592
1.35616
1.59777
1.78189
1.92168
1.62098
1.41145
1.26501
1.22148
1.23052
1.27235
1.34544
1.58112
1.77132
1.93787
1.65872
1.45113
1.28705
1.22958
1.22942
1.2583
1.33801
1.57407
1.76419
1.94595
1.68933
1.4876
1.31036
1.24241
1.22506
1.24532
1.33372
1.57076
1.75752
1.94847
1.71701
1.51581
1.33003
1.25912
1.22203
1.23478
1.33217
1.56963
1.75079
1.9429
1.74683
1.5425
1.35356
1.27522
1.21994
1.22732
1.33269
1.56956
1.74355
1.93897
1.77426
1.56754
1.37787
1.28694
1.21942
1.22321
1.33306
1.56868
1.73585
1.90321
1.78773
1.58932
1.40351
1.305
1.21995
1.22225
1.33303
1.56499
1.72788
1.87736
1.78867
1.60524
1.4279
1.32289
1.22119
1.22269
1.33419
1.55779
1.71912
1.8469
1.79222
1.61945
1.4519
1.3411
1.22477
1.22659
1.33534
1.54624
1.70904
1.80893
1.78226
1.63579
1.47275
1.35877
1.2291
1.23323
1.34565
1.5455
1.69895
1.75737
1.77273
1.65364
1.4965
1.37662
1.23612
1.24576
1.35512
1.54297
1.68951
1.68152
1.77224
1.67167
1.52159
1.39488
1.24912
1.25537
1.36427
1.54283
1.6816
1.56299
1.76947
1.68935
1.54676
1.41564
1.2711
1.26181
1.37232
1.54405
1.67557
1.2028
1.34675
1.54799
1.77243
2.16511
2.15514
2.07175
2.00484
2.00537
2.03041
1.00001
0.998429
1.05783
1.19358
1.79754
2.05236
2.04218
2.0245
2.0287
2.05888
1.00001
1.00001
1.00001
0.999632
1.19636
2.15901
2.1588
2.10713
2.08181
2.10307
1.00001
1.00001
1.00001
1.00001
1.00001
1.68066
2.21177
2.1753
2.13434
2.15102
1.00001
1.00001
1.00001
1.00001
1.00001
1.04785
2.13074
2.22014
2.18251
2.18412
1.00001
1.00001
1.00001
1.00001
1.00001
1.00001
1.51871
2.17969
2.19823
2.19007
1.00001
1.00001
1.00001
1.00001
1.00001
1.00001
1.03122
2.04107
2.20027
2.18987
1.00001
1.00001
1.00001
1.00001
1.00001
1.00001
1.00001
1.50117
2.13416
2.18558
1.00001
1.00001
1.00001
1.00001
1.00001
1.00001
1.00001
1.05122
2.03049
2.1729
1.00001
1.00001
1.00001
1.00001
1.00001
1.00001
1.00001
1.00021
1.6591
2.13745
1.00001
1.00001
1.00001
1.00001
1.00001
1.00001
1.00001
1.00002
1.15385
2.04753
1
1.00001
1.00001
1.00001
1.00001
1.00001
1.00001
1.00001
1.00525
1.93252
1
1.00001
1.00001
1.00001
1.00001
1.00001
1.00001
1.00001
1.00009
1.61771
1
1
1.00001
1.00001
1.00001
1.00001
1.00001
1.00001
1.00002
1.14982
1
1
1
1.00001
1.00001
1.00001
1.00001
1.00001
1.00001
0.990565
1
1
1
1.00001
1.00001
1.00001
1.00001
1.00001
1.00001
0.997242
1
1
1
1
1.00001
1.00001
1.00001
1.00001
1.00001
0.999634
1
1
1
1
1.00001
1.00001
1.00001
1.00001
1.00001
0.999932
1
1
1
1
1
1.00001
1.00001
1.00001
1.00001
0.999982
1
1
1
1
1
1.00001
1.00001
1.00001
1.00001
1
1
1
1
1
1
1
1
1
1
1.00001
1
1
1
1
1
1
1
1
1
1.00001
1
1
1
1
1
1
1
1
1
1
1
1
1
1
1
1
1
1
1
1
1
1
1
1
1
1
1
1
1
1
1
1
1
1
1
1
1
1
1
1
1
1
1
1
1
1
1
1
1
1
1
1
1
1
1
1
1
1
1
1
1
1
1
1
1
1
1
1
1
1
1
1
1
1
1
1
1
1
1
1
1
1
1
1
1
1
1
1
1
1
1
1
1
1
1
1
1
1
1
1
1
1
1
1
1
1
1
1
1
1
1
1
1
1
1
1
1
1
1
1
1
1
1
1
1
1
1
1
1
1
1
1
1
1
1
1
1
1
1
1
1
1
1
1
1
1
1
1
1
1
1
1
1
1
1
1
1
1
1
1
1
1
1
1
1
1
1
1
1
1
1
1
1
1
1
1
1
1
1
1
1
1
1
1
1
1
1
1
1
1
1
1
1
1
1
1
1
1
1
1
1
1
1
1
1
1
1
1
1
1
1
1
1
1
1
1
1
1
1
1
1
1
1
1
1
1
1
1
1
1
1
1
1
1
1
1
1
1
1
1
1
1
1
1
1
1
1
1
1
1
1
1
1
1
1
1
1
1
1
1
1
1
1
1
1
1
1
1
1
1
1
1
1
1
1
1
1
1
1
1
1
1
1
1
1
1
1
1
1
1
1
1
1
1
1
1
1
1
1
1
1
1
1
1
1
1
1
1
1
1
1
1
1
1
1
1
1
1
1
1
1
1
1
1
1
1
1
1
1
1
1
1
1
1
1
1
1
1
1
1
1
1
1
1
1
1
1
1
1
1
1
1
1
1
1
1
1
1
1
1
1
1
1
1
1
1
1
1
1
1.00001
1
1
1
1
1
1
1
1
1
1.00001
1
1
1
1
1
1.00001
1.00001
1.00001
1.00001
1
1
1
1
1
1
1.00001
1.00001
1.00001
1.00001
0.999982
1
1
1
1
1.00001
1.00001
1.00001
1.00001
1.00001
0.999932
1
1
1
1
1.00001
1.00001
1.00001
1.00001
1.00001
0.999634
1
1
1
1.00001
1.00001
1.00001
1.00001
1.00001
1.00001
0.997244
1
1
1
1.00001
1.00001
1.00001
1.00001
1.00001
1.00001
0.990566
1
1
1.00001
1.00001
1.00001
1.00001
1.00001
1.00001
1.00002
1.14984
1
1.00001
1.00001
1.00001
1.00001
1.00001
1.00001
1.00001
1.00009
1.61775
1
1.00001
1.00001
1.00001
1.00001
1.00001
1.00001
1.00001
1.00525
1.93254
1.00001
1.00001
1.00001
1.00001
1.00001
1.00001
1.00001
1.00002
1.15388
2.04752
1.00001
1.00001
1.00001
1.00001
1.00001
1.00001
1.00001
1.00021
1.65914
2.13744
1.00001
1.00001
1.00001
1.00001
1.00001
1.00001
1.00001
1.05124
2.03049
2.1729
1.00001
1.00001
1.00001
1.00001
1.00001
1.00001
1.00001
1.50122
2.13417
2.18558
1.00001
1.00001
1.00001
1.00001
1.00001
1.00001
1.03124
2.04109
2.20028
2.18987
1.00001
1.00001
1.00001
1.00001
1.00001
1.00001
1.51878
2.1797
2.19823
2.19007
1.00001
1.00001
1.00001
1.00001
1.00001
1.04788
2.13076
2.22014
2.1825
2.18412
1.00001
1.00001
1.00001
1.00001
1.00001
1.68075
2.21179
2.17532
2.13434
2.15102
1.00001
1.00001
1.00001
0.999632
1.19638
2.15902
2.15882
2.10714
2.08182
2.10307
1.00001
0.998429
1.05783
1.19358
1.79755
2.05238
2.0422
2.02451
2.02871
2.05888
1.2028
1.34675
1.548
1.77243
2.16512
2.15514
2.07176
2.00485
2.00538
2.03042
1.563
1.76946
1.68935
1.54672
1.41565
1.27111
1.26177
1.37261
1.54425
1.67553
1.68153
1.77223
1.67167
1.52154
1.39489
1.24915
1.25532
1.3642
1.54295
1.68161
1.75738
1.77273
1.65365
1.49646
1.37664
1.2361
1.24569
1.35498
1.54281
1.68951
1.80894
1.78226
1.6358
1.47273
1.35877
1.22904
1.23319
1.34556
1.5454
1.69896
1.84691
1.79222
1.61947
1.45192
1.34109
1.22471
1.22649
1.33542
1.54682
1.70902
1.87736
1.78868
1.60528
1.42794
1.32286
1.22107
1.22252
1.33436
1.55805
1.71904
1.90322
1.78776
1.58934
1.40357
1.30491
1.21977
1.22209
1.33327
1.56524
1.72775
1.93898
1.77426
1.56757
1.37794
1.28682
1.21917
1.22304
1.33329
1.56888
1.73567
1.94291
1.74685
1.54249
1.35359
1.27504
1.21966
1.22706
1.33289
1.56966
1.74332
1.94849
1.71699
1.51575
1.33008
1.25884
1.22172
1.23452
1.33235
1.56962
1.75051
1.94595
1.68932
1.48759
1.31048
1.24211
1.2247
1.24511
1.33394
1.57061
1.75725
1.93786
1.65876
1.4511
1.2871
1.22924
1.22903
1.2582
1.33827
1.57395
1.76395
1.92168
1.62103
1.41133
1.2652
1.22115
1.23014
1.27233
1.34575
1.58155
1.77114
1.89843
1.57387
1.36564
1.2471
1.21992
1.23677
1.28591
1.35647
1.59783
1.78176
1.86621
1.52623
1.31618
1.23752
1.22246
1.2464
1.30003
1.37137
1.6207
1.79854
1.83113
1.47087
1.27953
1.23696
1.23141
1.2607
1.31614
1.39183
1.65028
1.82133
1.77996
1.42189
1.2527
1.2427
1.24745
1.28073
1.33647
1.42
1.68737
1.85334
1.73976
1.3857
1.25336
1.26236
1.27558
1.30536
1.36191
1.45681
1.73611
1.89848
1.71191
1.37492
1.27571
1.29552
1.31097
1.33653
1.40214
1.50333
1.79932
1.9506
1.6612
1.38316
1.33568
1.34945
1.35558
1.37837
1.4534
1.56287
1.88019
2.0105
1
1
1
1.00006
1.00937
1.77045
2.0572
1.97941
1.84313
1.62802
1
1
1
1.00004
1.01557
1.74484
2.02814
1.95658
1.82551
1.62064
1
1
1
1.00006
1.02522
1.67724
1.97759
1.91384
1.79317
1.60377
1
1
1
1.00011
1.04468
1.61761
1.91704
1.85827
1.74946
1.58279
1
1
1
1.00032
1.08049
1.57414
1.86469
1.81582
1.71735
1.56987
1
1
1.00001
1.0016
1.13051
1.55258
1.81988
1.76727
1.67137
1.53906
1
1
1.00005
1.00935
1.17727
1.53061
1.78321
1.73924
1.64791
1.52231
1
1
1.00025
1.04361
1.21724
1.48797
1.74601
1.71504
1.62908
1.51067
1
1
1.00121
1.12578
1.28368
1.45986
1.71438
1.69433
1.61405
1.50394
1
1.00001
1.00589
1.23449
1.36439
1.45135
1.6845
1.67608
1.60272
1.50078
1
1.00008
1.02539
1.31728
1.42741
1.45458
1.65019
1.65977
1.59544
1.50104
1
1.00049
1.08592
1.37386
1.47151
1.45968
1.58981
1.6421
1.58961
1.50412
1
1.00282
1.19483
1.44386
1.48269
1.45444
1.52629
1.62336
1.58575
1.51079
1
1.01535
1.30895
1.50562
1.49043
1.4373
1.46759
1.59971
1.57855
1.52121
1.00001
1.06754
1.39802
1.54666
1.50451
1.41956
1.42601
1.56784
1.5668
1.5381
1.00001
1.18586
1.49898
1.57227
1.51249
1.40453
1.39838
1.52464
1.55734
1.55644
1.00044
1.33585
1.5937
1.57999
1.50519
1.38725
1.36778
1.48314
1.55243
1.58031
1.0202
1.45955
1.65374
1.59687
1.49402
1.36614
1.33509
1.44749
1.54883
1.61029
1.11041
1.58807
1.68459
1.60098
1.47799
1.3406
1.3041
1.41794
1.54488
1.64207
1.33736
1.72641
1.69041
1.57663
1.44556
1.3038
1.27594
1.39244
1.54524
1.66466
1.33736
1.72642
1.69042
1.57666
1.44557
1.30379
1.27597
1.39232
1.54503
1.6647
1.11041
1.58808
1.68459
1.601
1.47803
1.34062
1.30413
1.41795
1.54468
1.64208
1.0202
1.45955
1.65374
1.59689
1.49403
1.36616
1.33521
1.44756
1.54869
1.61023
1.00044
1.33586
1.59371
1.58001
1.50522
1.38728
1.36788
1.48322
1.55237
1.58023
1.00001
1.18587
1.499
1.57229
1.51251
1.4046
1.39852
1.52478
1.55734
1.55636
1.00001
1.06755
1.39803
1.54669
1.50454
1.41965
1.42614
1.56796
1.56687
1.53821
1
1.01535
1.30897
1.50565
1.49046
1.43738
1.46778
1.59981
1.57862
1.52123
1
1.00282
1.19485
1.4439
1.48271
1.45449
1.52653
1.62345
1.5858
1.51084
1
1.00049
1.08593
1.37389
1.47153
1.45974
1.59005
1.64217
1.58965
1.50418
1
1.00008
1.0254
1.31733
1.42742
1.45466
1.65037
1.65985
1.59547
1.50109
1
1.00001
1.00589
1.23455
1.36442
1.4515
1.68461
1.67614
1.60272
1.50082
1
1
1.00121
1.12583
1.2837
1.46009
1.71447
1.69437
1.61404
1.50396
1
1
1.00025
1.04364
1.21724
1.4883
1.74608
1.71506
1.62907
1.51068
1
1
1.00005
1.00936
1.17727
1.53102
1.78326
1.73924
1.64789
1.52229
1
1
1.00001
1.0016
1.13056
1.55299
1.81994
1.76727
1.67135
1.53904
1
1
1
1.00032
1.08056
1.5745
1.86474
1.81582
1.71732
1.56984
1
1
1
1.00011
1.04474
1.61794
1.91708
1.85826
1.74943
1.58276
1
1
1
1.00006
1.02527
1.67758
1.97763
1.91382
1.79313
1.60373
1
1
1
1.00004
1.0156
1.7452
2.02818
1.95658
1.82547
1.62059
1
1
1
1.00006
1.00939
1.77085
2.05727
1.9794
1.84309
1.62797
1
1
1
1
1
1
1.00001
1.00001
1.00001
1.00001
1
1
1
1
1
1
1
1.00001
1.00001
1.00001
1
1
1
1
1
1
1
1
1.00001
1.00001
1
1
1
1
1
1
1
1
1
1.00001
1
1
1
1
1
1
1
1
1
1
1
1
1
1
1
1
1
1
1
1
1
1
1
1
1
1
1
1
1
1
1
1
1
1
1
1
1
1
1
1
1
1
1
1
1
1
1
1
1
1
1
1
1
1
1
1
1
1
1
1
1
1
1
1
1
1
1
1
1
1
1
1
1
1
1
1
1
1
1
1
1
1
1
1
1
1
1
1
1
1
1
1
1
1
1
1
1
1
1
1
1
1
1
1
1
1
1
1
1
1
1
1
1
1
1
1
1
1
1
1
1
1
1
1
1
1
1
1
1
1
1
1
1
1
1
1
1
1
1
1
1
1
1
1
1
1
1
1
1
1
1
1
1
1
1
1
1
1
1
1
1
1
1
1
1
1
1
1
1
1
1
1
1
1
1
1
1
1
1
1
1
1
1
1
1
1
1
1
1
1
1
1
1
1
1
1
1
1
1
1
1
1
1
1
1
1
1
1
1
1
1
1
1
1
1
1
1
1
1
1
1
1
1
1
1
1
1
1
1
1
1
1
1
1
1
1
1
1
1
1
1
1
1
1
1
1
1
1
1
1
1
1
1
1
1
1
1
1
1
1
1
1
1
1
1
1
1
1
1
1
1
1
1
1
1
1
1
1
1
1
1
1
1
1
1
1
1
1
1
1
1
1
1
1
1
1
1
1
1
1
1
1
1
1
1
1
1
1
1
1
1
1
1
1
1
1
1
1
1
1
1
1
1
1
1
1
1
1
1
1
1
1
1
1
1
1
1
1
1
1
1
1
1
1
1
1
1
1
1
1
1
1
1
1
1
1
1
1
1
1
1
1
1
1
1
1
1
1
1
1
1
1
1
1
1
1
1
1
1
1
1
1
1
1
1
1
1
1
1
1
1
1
1
1
1
1
1
1
1
1
1
1
1
1
1
1
1
1
1
1
1
1
1
1
1
1
1
1
1
1
1
1
1
1
1
1
1
1
1
1
1
1
1
1
1
1
1
1
1
1
1
1
1
1
1
1
1
1
1
1
1
1
1
1
1
1
1
1
1
1
1
1
1
1
1
1
1
1
1
1
1
1
1
1
1
1
1
1
1
1
1
1
1
1
1
1
1
1
1
1
1
1
1
1
1
1
1
1
1
1
1
1
1
1
1
1
1
1
1
1
1
1
1
1
1
1
1
1
1
1
1
1
1
1
1
1
1
1
1
1
1
1
1
1
1
1
1
1
1
1
1
1
1
1
1
1
1
1
1
1
1
1
1
1
1
1
1
1
1
1
1
1
1
1
1
1
1
1
1
1
1
1
1
1
1
1
1
1
1
1
1
1
1
1
1
1
1
1
1
1
1
1
1
1
1
1
1
1
1
1
1
1
1
1
1
1
1
1
1
1
1
1
1
1
1
1
1
1
1
1
1
1
1
1
1
1
1
1
1
1
1
1
1
1
1
1
1
1
1
1
1
1
1
1
1
1
1
1
1
1
1
1
1
1
1
1
1
1
1
1
1
1
1
1
1
1
1
1
1
1
1
1
1
1
1
1
1
1
1
1
1
1
1
1
1
1
1
1
1
1
1
1
1
1
1
1
1
1
1
1
1
1
1
1
1
1
1
1
1
1
1
1
1
1
1
1
1
1
1
1
1
1
1
1
1
1
1
1
1
1.00001
1
1
1
1
1
1
1
1
1.00001
1.00001
1
1
1
1
1
1
1
1.00001
1.00001
1.00001
1
1
1
1
1
1
1.00001
1.00001
1.00001
1.00001
)
;

boundaryField
{
    inlet
    {
        type            fixedValue;
        value           uniform 1;
    }
    outlet
    {
        type            inletOutlet;
        inletValue      uniform 1;
        value           nonuniform List<scalar> 
100
(
1.66488
1.64218
1.61028
1.58044
1.55656
1.53835
1.52137
1.51097
1.50431
1.5012
1.50092
1.50405
1.51074
1.5223
1.53899
1.56975
1.58263
1.60353
1.62034
1.6277
2.01013
1.95044
1.89843
1.85339
1.82148
1.79854
1.78168
1.771
1.76379
1.75709
1.75039
1.74322
1.73558
1.72766
1.71893
1.70889
1.69889
1.68954
1.68173
1.67576
2.06723
2.12196
2.18062
2.24316
2.30559
2.35482
2.37871
2.38212
2.37907
2.37497
2.37491
2.3788
2.38186
2.37831
2.35429
2.30504
2.24265
2.18012
2.12146
2.06673
1.67572
1.68173
1.68955
1.69889
1.70888
1.71885
1.72753
1.7354
1.74299
1.75011
1.75681
1.76355
1.77081
1.78154
1.79845
1.8214
1.85342
1.8986
1.9507
2.01053
1.62775
1.62039
1.60357
1.58266
1.56978
1.53902
1.52232
1.51073
1.50403
1.50089
1.50115
1.50425
1.51092
1.52134
1.53824
1.55664
1.58051
1.61033
1.64217
1.66483
)
;
    }
    triangle
    {
        type            zeroGradient;
    }
    top
    {
        type            symmetryPlane;
    }
    bottom
    {
        type            symmetryPlane;
    }
    defaultFaces
    {
        type            empty;
    }
}


// ************************************************************************* //
