/*--------------------------------*- C++ -*----------------------------------*\
  =========                 |
  \\      /  F ield         | OpenFOAM: The Open Source CFD Toolbox
   \\    /   O peration     | Website:  https://openfoam.org
    \\  /    A nd           | Version:  8
     \\/     M anipulation  |
\*---------------------------------------------------------------------------*/
FoamFile
{
    version     2.0;
    format      ascii;
    class       volVectorField;
    location    "1.2";
    object      U;
}
// * * * * * * * * * * * * * * * * * * * * * * * * * * * * * * * * * * * * * //

dimensions      [0 1 -1 0 0 0 0];

internalField   nonuniform List<vector> 
2600
(
(1.86504 0.61072 0)
(2.57684 0.518857 0)
(2.72355 0.203389 0)
(2.71935 0.166797 0)
(2.70674 0.158791 0)
(2.70909 0.101826 0)
(2.64107 -0.0185645 0)
(2.49249 -0.15208 0)
(2.00185 0.048737 0)
(1.55633 0.102668 0)
(0.850249 0.0778912 0)
(2.16889 0.307323 0)
(2.54736 0.183405 0)
(2.62951 0.184938 0)
(2.66447 0.159109 0)
(2.69478 0.0904639 0)
(2.60456 -0.0213653 0)
(2.3616 -0.141575 0)
(1.89898 0.0439092 0)
(1.47817 0.105484 0)
(0.291248 0.0764294 0)
(1.56581 0.279615 0)
(2.15278 0.212501 0)
(2.41083 0.147462 0)
(2.53627 0.127977 0)
(2.61852 0.0711397 0)
(2.47377 -0.0384785 0)
(2.10316 -0.15364 0)
(1.6989 0.025441 0)
(1.39142 0.106153 0)
(0.0852531 -0.0611634 0)
(0.909002 0.142625 0)
(1.57162 0.128387 0)
(1.99814 0.131463 0)
(2.23846 0.116619 0)
(2.39461 0.0500599 0)
(2.19486 -0.0356161 0)
(1.69294 -0.110558 0)
(1.37057 0.0322599 0)
(1.28396 0.100429 0)
(-0.0469858 -0.0671652 0)
(0.385432 0.0873082 0)
(0.946363 0.115272 0)
(1.41381 0.0861934 0)
(1.74232 0.0733271 0)
(1.95728 0.0468905 0)
(1.72959 -0.0319595 0)
(1.16852 -0.123018 0)
(0.966444 0.016632 0)
(1.14281 0.0868801 0)
(-0.132118 -0.0895375 0)
(0.0499924 0.0323659 0)
(0.419408 0.0525506 0)
(0.799054 0.0567456 0)
(1.13085 0.0528212 0)
(1.34817 0.0163887 0)
(1.14275 -0.0171423 0)
(0.665269 -0.053432 0)
(0.569826 0.0188158 0)
(0.956398 0.0680985 0)
(-0.183176 -0.0683382 0)
(-0.141217 0.0275381 0)
(0.0496891 0.0372652 0)
(0.293743 0.0208354 0)
(0.550149 0.0094777 0)
(0.728544 0.0245467 0)
(0.603193 0.00245081 0)
(0.271511 -0.0651277 0)
(0.239852 0.00128749 0)
(0.737803 0.0520092 0)
(-0.211824 -0.0499047 0)
(-0.236625 0.0201152 0)
(-0.164505 0.021116 0)
(-0.0388236 -0.00452019 0)
(0.127375 0.00782495 0)
(0.270941 0.0104494 0)
(0.235376 0.00881203 0)
(0.023545 -0.0317496 0)
(0.0128715 0.00364902 0)
(0.537713 0.0337114 0)
(-0.22267 -0.0284279 0)
(-0.279132 0.0134629 0)
(-0.264155 0.00572765 0)
(-0.201604 -0.0172762 0)
(-0.0916905 -0.00834138 0)
(0.0325173 0.00871368 0)
(0.0586837 0.013603 0)
(-0.100522 -0.0288452 0)
(-0.103965 -0.000430962 0)
(0.409103 0.022707 0)
(-0.223549 -0.00918115 0)
(-0.293351 0.000166364 0)
(-0.295034 -0.00326896 0)
(-0.2489 -0.0109773 0)
(-0.156544 -0.00352049 0)
(-0.0378008 0.00542426 0)
(0.00981664 0.0100028 0)
(-0.14204 -0.00961183 0)
(-0.138018 -0.00154182 0)
(0.361724 0.00891162 0)
(-0.223465 0.0102755 0)
(-0.293369 0.000299939 0)
(-0.294988 0.00112433 0)
(-0.248958 0.00155367 0)
(-0.157508 -0.000642883 0)
(-0.0383325 -0.00492775 0)
(0.0096369 0.00268509 0)
(-0.142037 0.0132451 0)
(-0.137599 -0.00164822 0)
(0.361734 -0.0102583 0)
(-0.222627 0.0295073 0)
(-0.279093 -0.0127199 0)
(-0.263614 -0.00749981 0)
(-0.201375 0.00881047 0)
(-0.0967178 0.00188013 0)
(0.0279068 -0.0106983 0)
(0.0569897 -0.00266881 0)
(-0.0999782 0.0321897 0)
(-0.1021 -0.000376871 0)
(0.409263 -0.0240788 0)
(-0.211787 0.0511073 0)
(-0.236254 -0.0196653 0)
(-0.162717 -0.0221567 0)
(-0.0370817 -0.00398657 0)
(0.116666 -0.00786267 0)
(0.257336 -0.0060126 0)
(0.229993 1.60184e-05 0)
(0.0259164 0.0343778 0)
(0.0171118 -0.00860038 0)
(0.538388 -0.0349299 0)
(-0.183088 0.0694343 0)
(-0.140049 -0.0275123 0)
(0.0539762 -0.0386892 0)
(0.299105 -0.0245761 0)
(0.532724 -0.0193786 0)
(0.70398 -0.0259723 0)
(0.593083 0.00347721 0)
(0.27699 0.0675592 0)
(0.247501 -0.0027382 0)
(0.739164 -0.0534824 0)
(-0.131892 0.0904998 0)
(0.0525795 -0.032508 0)
(0.426503 -0.0545906 0)
(0.808126 -0.0639315 0)
(1.11082 -0.0496591 0)
(1.31838 -0.00840211 0)
(1.12966 0.021972 0)
(0.674993 0.0556018 0)
(0.580786 -0.0220308 0)
(0.958452 -0.0689652 0)
(-0.0465776 0.0677772 0)
(0.389723 -0.0877768 0)
(0.955158 -0.117531 0)
(1.4246 -0.0879192 0)
(1.72557 -0.0752004 0)
(1.93142 -0.0453015 0)
(1.71841 0.0333181 0)
(1.18279 0.123481 0)
(0.979519 -0.0183509 0)
(1.14516 -0.0878224 0)
(0.085907 0.0614956 0)
(0.914415 -0.143515 0)
(1.58005 -0.13054 0)
(2.00592 -0.134618 0)
(2.22811 -0.111119 0)
(2.37562 -0.0441325 0)
(2.18964 0.036983 0)
(1.70955 0.110459 0)
(1.38288 -0.0351313 0)
(1.28612 -0.100535 0)
(0.292108 -0.0769207 0)
(1.57061 -0.280334 0)
(2.15836 -0.214872 0)
(2.41404 -0.148738 0)
(2.53015 -0.125148 0)
(2.60656 -0.0665792 0)
(2.47519 0.0391616 0)
(2.11852 0.152107 0)
(1.70694 -0.0273648 0)
(1.39291 -0.106374 0)
(0.852509 -0.0784566 0)
(2.17105 -0.308868 0)
(2.54957 -0.185371 0)
(2.63024 -0.187597 0)
(2.66017 -0.153829 0)
(2.68965 -0.0867392 0)
(2.60854 0.0205316 0)
(2.37254 0.14027 0)
(1.90239 -0.0456282 0)
(1.4789 -0.105423 0)
(1.86873 -0.611821 0)
(2.57641 -0.520097 0)
(2.72451 -0.206693 0)
(2.71932 -0.170092 0)
(2.70313 -0.154975 0)
(2.70761 -0.0985876 0)
(2.64446 0.0176111 0)
(2.49976 0.150053 0)
(2.00278 -0.0503143 0)
(1.55639 -0.102726 0)
(2.32851 0.0589574 0)
(2.83642 -0.376731 0)
(2.77589 -0.270246 0)
(2.75048 -0.225391 0)
(2.71867 -0.166986 0)
(2.70691 -0.117123 0)
(2.64705 -0.00699299 0)
(2.55428 0.145141 0)
(2.06719 -0.0711176 0)
(1.64275 -0.0968621 0)
(2.30869 0.300423 0)
(2.81785 -0.364417 0)
(2.80467 -0.28491 0)
(2.76557 -0.274856 0)
(2.72326 -0.201178 0)
(2.70724 -0.133153 0)
(2.65182 -0.0332302 0)
(2.57612 0.132298 0)
(2.11915 -0.0930985 0)
(1.73839 -0.0986061 0)
(2.22175 0.463284 0)
(2.66938 -0.0533717 0)
(2.79529 -0.283375 0)
(2.76493 -0.305272 0)
(2.72025 -0.224411 0)
(2.70885 -0.148309 0)
(2.65123 -0.0537251 0)
(2.58538 0.100854 0)
(2.15459 -0.131971 0)
(1.82631 -0.0915454 0)
(2.0994 0.576283 0)
(2.60096 0.0177292 0)
(2.78308 -0.231096 0)
(2.73413 -0.319738 0)
(2.73681 -0.237695 0)
(2.72363 -0.160741 0)
(2.66248 -0.0699361 0)
(2.60217 0.069778 0)
(2.18327 -0.168016 0)
(1.89476 -0.102608 0)
(2.04096 0.627333 0)
(2.48941 0.224354 0)
(2.75249 -0.19547 0)
(2.7115 -0.304598 0)
(2.76156 -0.241784 0)
(2.73829 -0.173756 0)
(2.67461 -0.082818 0)
(2.62325 0.0416836 0)
(2.2033 -0.211928 0)
(1.93715 -0.098795 0)
(1.95839 0.673784 0)
(2.44387 0.282777 0)
(2.70551 -0.100057 0)
(2.72051 -0.292807 0)
(2.76746 -0.232735 0)
(2.74841 -0.184813 0)
(2.68668 -0.0965132 0)
(2.64589 0.0214281 0)
(2.20553 -0.26056 0)
(1.95772 -0.10786 0)
(1.92271 0.704067 0)
(2.36531 0.381053 0)
(2.63942 -0.00248701 0)
(2.7205 -0.231326 0)
(2.769 -0.22756 0)
(2.76053 -0.198263 0)
(2.70165 -0.111894 0)
(2.66333 0.000560065 0)
(2.20672 -0.303166 0)
(1.9678 -0.126462 0)
(1.89168 0.73521 0)
(2.31968 0.434321 0)
(2.60112 0.0505667 0)
(2.72597 -0.192793 0)
(2.76753 -0.216858 0)
(2.76323 -0.206113 0)
(2.71305 -0.128281 0)
(2.67466 -0.0170711 0)
(2.19948 -0.343077 0)
(1.97853 -0.144462 0)
(1.85893 0.76264 0)
(2.28287 0.476515 0)
(2.54954 0.140194 0)
(2.69222 -0.0973402 0)
(2.7681 -0.208662 0)
(2.76546 -0.210926 0)
(2.72546 -0.149356 0)
(2.67231 -0.0419397 0)
(2.21121 -0.378178 0)
(2.00224 -0.169629 0)
(1.83213 0.779614 0)
(2.23314 0.522845 0)
(2.51897 0.191753 0)
(2.68928 -0.0552543 0)
(2.77225 -0.196025 0)
(2.7682 -0.20807 0)
(2.7351 -0.166972 0)
(2.659 -0.0711296 0)
(2.20939 -0.406314 0)
(2.02114 -0.19532 0)
(1.81613 0.797706 0)
(2.20087 0.547598 0)
(2.48372 0.250566 0)
(2.6519 0.0435537 0)
(2.76048 -0.161008 0)
(2.7681 -0.206512 0)
(2.74474 -0.183184 0)
(2.63843 -0.101607 0)
(2.21317 -0.4306 0)
(2.03862 -0.222689 0)
(1.81272 0.810117 0)
(2.14461 0.589775 0)
(2.44312 0.309006 0)
(2.63744 0.0917372 0)
(2.75289 -0.16478 0)
(2.7692 -0.196471 0)
(2.74905 -0.190552 0)
(2.61953 -0.131582 0)
(2.22418 -0.452174 0)
(2.05126 -0.248378 0)
(1.83789 0.801577 0)
(2.11181 0.617569 0)
(2.41301 0.354887 0)
(2.59876 0.162811 0)
(2.73286 -0.111087 0)
(2.76753 -0.178092 0)
(2.75041 -0.193578 0)
(2.60177 -0.165455 0)
(2.23305 -0.474007 0)
(2.05503 -0.27024 0)
(1.90858 0.777157 0)
(2.09949 0.647044 0)
(2.37276 0.415865 0)
(2.56815 0.211265 0)
(2.71487 -0.092353 0)
(2.77353 -0.165833 0)
(2.75177 -0.195277 0)
(2.57751 -0.195887 0)
(2.24279 -0.494837 0)
(2.05262 -0.290424 0)
(1.95906 0.752794 0)
(2.08564 0.677292 0)
(2.34659 0.46541 0)
(2.53571 0.26214 0)
(2.69021 -0.0459665 0)
(2.76865 -0.134904 0)
(2.74614 -0.189345 0)
(2.57277 -0.23409 0)
(2.26728 -0.522145 0)
(2.04695 -0.308867 0)
(2.0024 0.716867 0)
(2.06996 0.703189 0)
(2.31651 0.520201 0)
(2.51334 0.30089 0)
(2.67179 -0.00965174 0)
(2.76927 -0.111697 0)
(2.73525 -0.195016 0)
(2.55369 -0.260812 0)
(2.27105 -0.549599 0)
(2.04001 -0.326111 0)
(2.05708 0.682326 0)
(2.06733 0.720357 0)
(2.29104 0.562806 0)
(2.49674 0.334435 0)
(2.65256 0.0346412 0)
(2.75331 -0.0700668 0)
(2.71602 -0.181918 0)
(2.5458 -0.290896 0)
(2.28247 -0.572929 0)
(2.03631 -0.342504 0)
(2.15398 0.637744 0)
(2.07232 0.738341 0)
(2.26547 0.592934 0)
(2.46717 0.37812 0)
(2.63611 0.0726323 0)
(2.7535 -0.0373082 0)
(2.696 -0.182393 0)
(2.5224 -0.319015 0)
(2.28119 -0.59171 0)
(2.03519 -0.353979 0)
(2.25119 0.619762 0)
(2.08121 0.740732 0)
(2.24075 0.619385 0)
(2.44774 0.398036 0)
(2.6137 0.116609 0)
(2.7578 0.0101103 0)
(2.66848 -0.18306 0)
(2.49452 -0.343564 0)
(2.28686 -0.607939 0)
(2.03836 -0.36219 0)
(2.37468 0.563393 0)
(2.09186 0.74095 0)
(2.21787 0.644289 0)
(2.4106 0.438669 0)
(2.58657 0.157835 0)
(2.76733 0.0402648 0)
(2.63762 -0.181018 0)
(2.46319 -0.364576 0)
(2.28961 -0.617396 0)
(2.04502 -0.365663 0)
(2.82696 0.0864675 0)
(2.72198 0.112635 0)
(2.4542 0.32659 0)
(2.38477 0.4811 0)
(1.79072 0.740476 0)
(1.62609 0.920385 0)
(1.67155 0.980159 0)
(1.70094 1.00981 0)
(1.68867 1.00133 0)
(1.658 0.963127 0)
(2.99998 3.68249e-07 0)
(3.0039 -0.0042277 0)
(2.91925 0.071233 0)
(2.82717 0.219577 0)
(1.72314 1.05162 0)
(1.41735 1.14688 0)
(1.5141 1.05941 0)
(1.61129 1.01718 0)
(1.63884 0.977505 0)
(1.65074 0.935806 0)
(2.99998 6.83677e-07 0)
(2.99998 1.2979e-06 0)
(2.99998 1.23247e-06 0)
(3.00079 -0.000498233 0)
(2.93756 0.165907 0)
(1.67074 0.973322 0)
(1.51743 0.954573 0)
(1.59431 0.95047 0)
(1.6123 0.920059 0)
(1.61114 0.921797 0)
(2.99998 1.07104e-06 0)
(2.99998 1.54969e-06 0)
(2.99998 1.81102e-06 0)
(2.99997 3.84406e-06 0)
(2.99997 4.3248e-06 0)
(2.32392 0.618374 0)
(1.42107 0.958386 0)
(1.49677 0.955094 0)
(1.53744 0.932141 0)
(1.55638 0.901076 0)
(2.99998 2.10902e-06 0)
(2.99998 2.31236e-06 0)
(2.99998 3.20652e-06 0)
(2.99997 4.01545e-06 0)
(2.99997 5.97926e-06 0)
(3.00622 0.0240541 0)
(1.49768 0.824449 0)
(1.44491 0.894295 0)
(1.49425 0.88263 0)
(1.50777 0.875431 0)
(2.99998 2.81187e-06 0)
(2.99998 3.13298e-06 0)
(2.99998 3.82396e-06 0)
(2.99997 5.12219e-06 0)
(2.99997 5.54522e-06 0)
(2.99996 9.80147e-06 0)
(2.56748 0.542857 0)
(1.46921 0.875641 0)
(1.45705 0.872395 0)
(1.47549 0.866536 0)
(2.99998 3.38408e-06 0)
(2.99998 3.59238e-06 0)
(2.99998 4.72131e-06 0)
(2.99998 5.15779e-06 0)
(2.99997 7.40945e-06 0)
(2.99997 9.94339e-06 0)
(3.02465 0.0230233 0)
(1.60909 0.819624 0)
(1.44891 0.864367 0)
(1.47083 0.864165 0)
(2.99998 4.01958e-06 0)
(2.99998 4.54507e-06 0)
(2.99998 5.53401e-06 0)
(2.99998 6.06504e-06 0)
(2.99997 8.46279e-06 0)
(2.99997 8.52141e-06 0)
(2.99996 1.40593e-05 0)
(2.5731 0.567385 0)
(1.50853 0.871807 0)
(1.47264 0.872005 0)
(2.99998 4.11638e-06 0)
(2.99998 5.11271e-06 0)
(2.99998 5.41082e-06 0)
(2.99998 6.59599e-06 0)
(2.99998 8.14903e-06 0)
(2.99997 9.88572e-06 0)
(2.99997 1.34461e-05 0)
(3.03167 0.0429256 0)
(1.68089 0.812056 0)
(1.46802 0.880253 0)
(2.99999 4.91496e-06 0)
(2.99998 5.54603e-06 0)
(2.99998 6.52623e-06 0)
(2.99998 6.78439e-06 0)
(2.99998 8.9389e-06 0)
(2.99997 9.62139e-06 0)
(2.99997 1.43531e-05 0)
(3.00001 0.000680901 0)
(2.25918 0.687986 0)
(1.49859 0.884005 0)
(2.99999 4.64522e-06 0)
(2.99998 5.65284e-06 0)
(2.99998 6.19943e-06 0)
(2.99998 7.65773e-06 0)
(2.99998 8.30488e-06 0)
(2.99998 1.08539e-05 0)
(2.99997 1.25287e-05 0)
(2.99996 1.83372e-05 0)
(3.01279 0.153418 0)
(1.65234 0.826301 0)
(2.99999 5.37563e-06 0)
(2.99999 5.84653e-06 0)
(2.99998 6.89025e-06 0)
(2.99998 7.76612e-06 0)
(2.99998 8.87554e-06 0)
(2.99998 1.11455e-05 0)
(2.99997 1.25673e-05 0)
(2.99997 1.81393e-05 0)
(3.00013 0.0113564 0)
(1.80447 0.785146 0)
(2.99999 5.07717e-06 0)
(2.99999 5.78282e-06 0)
(2.99999 6.49041e-06 0)
(2.99998 7.73485e-06 0)
(2.99998 8.87338e-06 0)
(2.99998 1.05638e-05 0)
(2.99998 1.26958e-05 0)
(2.99997 1.56192e-05 0)
(2.99989 0.00019249 0)
(2.35 0.648847 0)
(2.99999 5.49682e-06 0)
(2.99999 6.14978e-06 0)
(2.99999 7.04415e-06 0)
(2.99999 8.06573e-06 0)
(2.99998 9.37575e-06 0)
(2.99998 1.09958e-05 0)
(2.99998 1.31067e-05 0)
(2.99997 1.52799e-05 0)
(2.99996 2.42117e-05 0)
(3.05602 0.188373 0)
(2.99999 5.32183e-06 0)
(2.99999 6.10385e-06 0)
(2.99999 6.87557e-06 0)
(2.99999 7.91604e-06 0)
(2.99998 9.16845e-06 0)
(2.99998 1.07461e-05 0)
(2.99998 1.28083e-05 0)
(2.99998 1.51216e-05 0)
(2.99997 2.05267e-05 0)
(3.06177 -0.0446956 0)
(2.99999 5.40159e-06 0)
(2.99999 5.97325e-06 0)
(2.99999 6.93148e-06 0)
(2.99999 7.8696e-06 0)
(2.99999 9.0642e-06 0)
(2.99998 1.0848e-05 0)
(2.99998 1.27688e-05 0)
(2.99998 1.52527e-05 0)
(2.99997 2.04441e-05 0)
(3.00547 -0.00613861 0)
(2.99999 5.38904e-06 0)
(2.99999 5.78651e-06 0)
(2.99999 6.95443e-06 0)
(2.99999 7.69669e-06 0)
(2.99999 8.8906e-06 0)
(2.99999 1.02186e-05 0)
(2.99998 1.2191e-05 0)
(2.99998 1.42327e-05 0)
(2.99997 1.94118e-05 0)
(2.9999 -0.00087962 0)
(2.99999 5.1635e-06 0)
(2.99999 5.50781e-06 0)
(2.99999 6.51197e-06 0)
(2.99999 7.34037e-06 0)
(2.99999 8.66825e-06 0)
(2.99999 9.96875e-06 0)
(2.99998 1.19548e-05 0)
(2.99998 1.3882e-05 0)
(2.99998 1.91809e-05 0)
(3.00005 -0.000165205 0)
(2.99999 5.01283e-06 0)
(2.99999 5.34745e-06 0)
(2.99999 6.39714e-06 0)
(2.99999 6.86192e-06 0)
(2.99999 8.34816e-06 0)
(2.99999 9.1443e-06 0)
(2.99999 1.11626e-05 0)
(2.99998 1.25993e-05 0)
(2.99998 1.78137e-05 0)
(3.00001 -4.5574e-05 0)
(2.99999 4.35964e-06 0)
(2.99999 4.59906e-06 0)
(2.99999 5.53012e-06 0)
(2.99999 5.99488e-06 0)
(2.99999 7.38488e-06 0)
(2.99999 8.21326e-06 0)
(2.99999 1.06234e-05 0)
(2.99999 1.20444e-05 0)
(2.99998 1.77667e-05 0)
(2.99999 -1.37145e-06 0)
(3 5.74226e-14 0)
(3 -9.10605e-14 0)
(3 -2.90002e-13 0)
(3 -2.24255e-13 0)
(3 -1.81561e-13 0)
(3 -4.17247e-14 0)
(3 -1.8583e-13 0)
(3 -1.99203e-14 0)
(3 -6.69211e-11 0)
(2.99999 -1.26992e-06 0)
(3 7.10092e-14 0)
(3 -1.48032e-13 0)
(3 -3.29191e-13 0)
(3 -1.6153e-13 0)
(3 -1.53063e-13 0)
(3 -1.41867e-14 0)
(3 -1.63638e-13 0)
(3 1.88269e-13 0)
(3 -1.98255e-10 0)
(2.99999 -8.75404e-07 0)
(3 1.04687e-14 0)
(3 -1.15431e-13 0)
(3 -2.01403e-13 0)
(3 -1.18874e-13 0)
(3 -1.24371e-14 0)
(3 -6.80056e-14 0)
(3 -1.46586e-13 0)
(3 2.94369e-13 0)
(3 -2.97688e-10 0)
(2.99999 5.83825e-07 0)
(3 -4.64268e-14 0)
(3 -6.28566e-14 0)
(3 -7.15771e-14 0)
(3 -1.5703e-14 0)
(3 -1.8389e-13 0)
(3 -2.02846e-13 0)
(3 -1.0375e-13 0)
(3 5.99333e-13 0)
(3 -3.73132e-10 0)
(2.99999 -4.52389e-07 0)
(3 -9.87513e-14 0)
(3 -2.2849e-14 0)
(3 -8.43809e-14 0)
(3 -1.1147e-13 0)
(3 -1.94683e-13 0)
(3 -1.45325e-13 0)
(3 -9.09045e-14 0)
(3 9.05666e-13 0)
(3 -4.43556e-10 0)
(2.99999 2.96702e-09 0)
(3 -7.01796e-15 0)
(3 -1.80279e-14 0)
(3 -1.02827e-13 0)
(3 -1.24731e-13 0)
(3 -1.28688e-13 0)
(3 -2.0952e-13 0)
(3 -1.03824e-13 0)
(3 9.94636e-13 0)
(3 -5.25082e-10 0)
(2.99999 5.62147e-07 0)
(3 8.51577e-14 0)
(3 -4.37615e-14 0)
(3 6.38715e-14 0)
(3 -8.2014e-14 0)
(3 -2.57502e-13 0)
(3 1.71019e-14 0)
(3 5.5943e-14 0)
(3 1.19997e-12 0)
(3 -6.01545e-10 0)
(2.99999 1.00396e-06 0)
(3 7.98727e-14 0)
(3 1.05285e-13 0)
(3 2.22878e-13 0)
(3 6.97827e-15 0)
(3 5.50678e-14 0)
(3 1.89877e-13 0)
(3 1.41327e-13 0)
(3 1.42778e-12 0)
(3 -6.57162e-10 0)
(2.99999 1.68571e-06 0)
(3 5.82174e-14 0)
(3 1.87333e-13 0)
(3 2.13192e-13 0)
(3 1.00813e-13 0)
(3 7.58244e-14 0)
(3 6.48156e-14 0)
(3 -2.04458e-15 0)
(3 1.70029e-12 0)
(3 -7.17165e-10 0)
(2.99999 2.11991e-06 0)
(3 -1.13742e-14 0)
(3 6.78076e-14 0)
(3 -5.05053e-14 0)
(3 -1.22634e-14 0)
(3 -1.01217e-13 0)
(3 1.62265e-14 0)
(3 -5.60461e-14 0)
(3 1.7309e-12 0)
(3 -7.62014e-10 0)
(2.99999 2.39223e-06 0)
(3 -4.57109e-14 0)
(3 -1.39159e-13 0)
(3 -3.26727e-13 0)
(3 -2.40557e-13 0)
(3 -1.18326e-13 0)
(3 -9.87569e-14 0)
(3 1.84868e-14 0)
(3 1.91278e-12 0)
(3 -7.95795e-10 0)
(2.99999 2.56152e-06 0)
(3 5.40166e-14 0)
(3 -1.06387e-13 0)
(3 -1.6486e-13 0)
(3 -1.65575e-13 0)
(3 -1.03128e-13 0)
(3 -1.16018e-13 0)
(3 1.15561e-13 0)
(3 2.24048e-12 0)
(3 -8.32225e-10 0)
(2.99999 2.60059e-06 0)
(3 9.50094e-14 0)
(3 2.0017e-13 0)
(3 -1.30174e-13 0)
(3 -9.43451e-14 0)
(3 -4.65728e-14 0)
(3 2.78595e-14 0)
(3 1.22906e-13 0)
(3 2.51307e-12 0)
(3 -8.64992e-10 0)
(2.99999 2.7811e-06 0)
(3 -6.33288e-14 0)
(3 1.86372e-13 0)
(3 6.27694e-14 0)
(3 1.04656e-13 0)
(3 8.8075e-14 0)
(3 7.51446e-14 0)
(3 5.19233e-15 0)
(3 2.24555e-12 0)
(3 -8.93514e-10 0)
(2.99999 2.64693e-06 0)
(3 -5.08088e-14 0)
(3 1.41513e-14 0)
(3 1.84658e-13 0)
(3 3.0329e-13 0)
(3 1.58462e-13 0)
(3 -1.11922e-13 0)
(3 -1.85262e-13 0)
(3 2.28471e-12 0)
(3 -9.13208e-10 0)
(2.99999 2.92999e-06 0)
(3 2.85954e-14 0)
(3 1.10833e-13 0)
(3 1.59132e-13 0)
(3 1.07114e-13 0)
(3 5.20511e-14 0)
(3 -2.27172e-13 0)
(3 -3.02895e-13 0)
(3 2.8231e-12 0)
(3 -9.25359e-10 0)
(3 2.59731e-06 0)
(3 -3.07376e-14 0)
(3 1.04885e-13 0)
(3 1.69037e-13 0)
(3 6.63706e-14 0)
(3 3.52618e-14 0)
(3 3.49352e-14 0)
(3 1.13273e-14 0)
(3 2.87707e-12 0)
(3 -9.2755e-10 0)
(3 2.75557e-06 0)
(3 -8.21678e-16 0)
(3 1.67882e-13 0)
(3 1.60482e-13 0)
(3 9.95094e-14 0)
(3 -3.9321e-14 0)
(3 1.52164e-13 0)
(3 1.74308e-13 0)
(3 3.1517e-12 0)
(3 -9.21361e-10 0)
(3 2.57762e-06 0)
(3 4.46562e-14 0)
(3 1.38089e-13 0)
(3 2.13466e-14 0)
(3 -1.33533e-14 0)
(3 1.06929e-14 0)
(3 1.93198e-13 0)
(3 2.75808e-13 0)
(3 3.30512e-12 0)
(3 -9.09765e-10 0)
(3 2.75957e-06 0)
(3 3.03326e-14 0)
(3 -6.0593e-14 0)
(3 1.01747e-13 0)
(3 -5.18223e-14 0)
(3 4.04504e-14 0)
(3 2.47931e-13 0)
(3 2.77986e-13 0)
(3 3.17703e-12 0)
(3 -8.94262e-10 0)
(3 2.49009e-06 0)
(3 -7.27796e-14 0)
(3 2.4865e-14 0)
(3 1.92629e-14 0)
(3 1.7344e-13 0)
(3 2.80301e-13 0)
(3 1.21453e-13 0)
(3 2.68933e-13 0)
(3 -3.11093e-12 0)
(3 8.95073e-10 0)
(3 -2.49025e-06 0)
(3 -7.54551e-14 0)
(3 1.83881e-14 0)
(3 -4.04085e-14 0)
(3 1.12569e-14 0)
(3 2.40376e-13 0)
(3 2.08589e-13 0)
(3 1.79926e-13 0)
(3 -2.88737e-12 0)
(3 9.1062e-10 0)
(3 -2.75982e-06 0)
(3 4.88408e-14 0)
(3 7.8453e-14 0)
(3 4.74291e-14 0)
(3 -9.38615e-14 0)
(3 1.97682e-13 0)
(3 1.15272e-13 0)
(3 7.42171e-14 0)
(3 -2.88041e-12 0)
(3 9.22665e-10 0)
(3 -2.57774e-06 0)
(3 1.36757e-14 0)
(3 2.46638e-13 0)
(3 2.24691e-13 0)
(3 3.04522e-14 0)
(3 1.64782e-13 0)
(3 1.49297e-13 0)
(3 2.19406e-13 0)
(3 -2.85377e-12 0)
(3 9.28104e-10 0)
(3 -2.75559e-06 0)
(3 -2.21719e-14 0)
(3 1.71113e-13 0)
(3 2.97223e-13 0)
(3 3.21042e-13 0)
(3 8.33091e-14 0)
(3 1.00507e-13 0)
(3 6.2314e-14 0)
(3 -2.80321e-12 0)
(3 9.26102e-10 0)
(3 -2.59714e-06 0)
(3 6.08332e-14 0)
(3 -4.78033e-14 0)
(3 1.82754e-13 0)
(3 2.49521e-13 0)
(3 1.84324e-14 0)
(3 1.20071e-13 0)
(3 -1.0548e-13 0)
(3 -2.74783e-12 0)
(3 9.13461e-10 0)
(2.99999 -2.92981e-06 0)
(3 1.00829e-13 0)
(3 -3.78722e-14 0)
(3 1.30586e-13 0)
(3 5.78331e-14 0)
(3 -1.05754e-14 0)
(3 2.89101e-13 0)
(3 4.38174e-14 0)
(3 -2.41026e-12 0)
(3 8.93996e-10 0)
(2.99999 -2.64634e-06 0)
(3 3.84974e-14 0)
(3 1.32425e-13 0)
(3 2.20727e-13 0)
(3 -3.84729e-14 0)
(3 -7.0998e-14 0)
(3 1.28923e-13 0)
(3 1.02834e-13 0)
(3 -2.23105e-12 0)
(3 8.6537e-10 0)
(2.99999 -2.78065e-06 0)
(3 6.25202e-14 0)
(3 1.33491e-13 0)
(3 1.01121e-13 0)
(3 -3.0855e-14 0)
(3 -1.03896e-13 0)
(3 -9.71562e-14 0)
(3 -9.07703e-15 0)
(3 -1.88134e-12 0)
(3 8.3285e-10 0)
(2.99999 -2.59982e-06 0)
(3 5.58392e-15 0)
(3 1.81981e-14 0)
(3 1.85739e-14 0)
(3 9.21851e-14 0)
(3 9.23906e-14 0)
(3 1.05316e-14 0)
(3 -2.25352e-14 0)
(3 -1.86502e-12 0)
(3 7.96626e-10 0)
(2.99999 -2.5611e-06 0)
(3 -7.457e-14 0)
(3 -7.17411e-14 0)
(3 -2.96089e-14 0)
(3 1.57171e-13 0)
(3 3.34104e-13 0)
(3 2.0118e-13 0)
(3 1.06682e-13 0)
(3 -1.92179e-12 0)
(3 7.61649e-10 0)
(2.99999 -2.39176e-06 0)
(3 -4.93643e-14 0)
(3 -5.63812e-14 0)
(3 -1.6284e-13 0)
(3 1.29603e-13 0)
(3 1.65106e-13 0)
(3 1.71089e-13 0)
(3 2.54151e-13 0)
(3 -1.77024e-12 0)
(3 7.21144e-10 0)
(2.99999 -2.11926e-06 0)
(3 -4.35942e-14 0)
(3 1.22026e-13 0)
(3 5.55002e-14 0)
(3 1.29579e-13 0)
(3 1.10663e-13 0)
(3 1.72139e-14 0)
(3 1.91263e-13 0)
(3 -1.43796e-12 0)
(3 6.5483e-10 0)
(2.99999 -1.68471e-06 0)
(3 -1.16398e-14 0)
(3 -1.92828e-14 0)
(3 1.98542e-13 0)
(3 -1.49319e-15 0)
(3 1.61142e-14 0)
(3 -1.79999e-13 0)
(3 2.28453e-14 0)
(3 -1.24237e-12 0)
(3 6.01687e-10 0)
(2.99999 -1.00295e-06 0)
(3 2.89363e-14 0)
(3 -2.1233e-13 0)
(3 -1.18683e-13 0)
(3 -5.15979e-14 0)
(3 -1.53231e-13 0)
(3 -3.17569e-13 0)
(3 -1.19774e-13 0)
(3 -1.11103e-12 0)
(3 5.24064e-10 0)
(2.99999 -5.6069e-07 0)
(3 1.00867e-15 0)
(3 -7.49617e-14 0)
(3 -1.39777e-13 0)
(3 -7.9798e-14 0)
(3 -6.6185e-14 0)
(3 -1.36764e-13 0)
(3 -1.22767e-13 0)
(3 -6.38912e-13 0)
(3 4.43061e-10 0)
(2.99999 -1.36627e-09 0)
(3 -1.00331e-14 0)
(3 1.40511e-13 0)
(3 1.0568e-13 0)
(3 3.75284e-14 0)
(3 1.1443e-13 0)
(3 7.88878e-14 0)
(3 -1.06764e-13 0)
(3 -4.43071e-13 0)
(3 3.71854e-10 0)
(2.99999 4.53804e-07 0)
(3 -5.28654e-14 0)
(3 4.60152e-14 0)
(3 4.71185e-14 0)
(3 1.03146e-13 0)
(3 2.45678e-13 0)
(3 1.71224e-13 0)
(3 3.54997e-14 0)
(3 -3.60224e-13 0)
(3 2.95901e-10 0)
(2.99999 -5.82727e-07 0)
(3 -1.11866e-13 0)
(3 -1.70556e-13 0)
(3 -1.41742e-13 0)
(3 -1.43847e-13 0)
(3 5.87341e-14 0)
(3 8.08635e-14 0)
(3 -1.86082e-14 0)
(3 -3.21181e-13 0)
(3 1.987e-10 0)
(2.99999 8.75709e-07 0)
(3 -3.12181e-14 0)
(3 -1.00267e-13 0)
(3 -1.25826e-13 0)
(3 -3.31105e-13 0)
(3 -1.22621e-13 0)
(3 1.11054e-14 0)
(3 -8.28379e-14 0)
(3 -2.82694e-13 0)
(3 6.78317e-11 0)
(2.99999 1.26964e-06 0)
(2.99999 -4.35981e-06 0)
(2.99999 -4.59916e-06 0)
(2.99999 -5.53044e-06 0)
(2.99999 -5.99519e-06 0)
(2.99999 -7.38538e-06 0)
(2.99999 -8.21394e-06 0)
(2.99999 -1.06244e-05 0)
(2.99999 -1.20456e-05 0)
(2.99998 -1.77687e-05 0)
(2.99999 1.36687e-06 0)
(2.99999 -5.01327e-06 0)
(2.99999 -5.34794e-06 0)
(2.99999 -6.39772e-06 0)
(2.99999 -6.86254e-06 0)
(2.99999 -8.34879e-06 0)
(2.99999 -9.14498e-06 0)
(2.99999 -1.11639e-05 0)
(2.99998 -1.26009e-05 0)
(2.99998 -1.78158e-05 0)
(3.00001 4.55732e-05 0)
(2.99999 -5.16372e-06 0)
(2.99999 -5.508e-06 0)
(2.99999 -6.51229e-06 0)
(2.99999 -7.3408e-06 0)
(2.99999 -8.6687e-06 0)
(2.99999 -9.96946e-06 0)
(2.99998 -1.19551e-05 0)
(2.99998 -1.38821e-05 0)
(2.99998 -1.91815e-05 0)
(3.00005 0.000165205 0)
(2.99999 -5.38919e-06 0)
(2.99999 -5.78644e-06 0)
(2.99999 -6.95504e-06 0)
(2.99999 -7.6973e-06 0)
(2.99999 -8.89096e-06 0)
(2.99999 -1.02193e-05 0)
(2.99998 -1.21922e-05 0)
(2.99998 -1.4234e-05 0)
(2.99997 -1.94131e-05 0)
(2.9999 0.000879265 0)
(2.99999 -5.4012e-06 0)
(2.99999 -5.97332e-06 0)
(2.99999 -6.93169e-06 0)
(2.99999 -7.8691e-06 0)
(2.99999 -9.0643e-06 0)
(2.99998 -1.08488e-05 0)
(2.99998 -1.27686e-05 0)
(2.99998 -1.52522e-05 0)
(2.99997 -2.04438e-05 0)
(3.00547 0.0061359 0)
(2.99999 -5.3219e-06 0)
(2.99999 -6.10443e-06 0)
(2.99999 -6.87564e-06 0)
(2.99999 -7.91605e-06 0)
(2.99998 -9.16942e-06 0)
(2.99998 -1.07467e-05 0)
(2.99998 -1.28093e-05 0)
(2.99998 -1.51227e-05 0)
(2.99997 -2.05274e-05 0)
(3.06177 0.0446978 0)
(2.99999 -5.49652e-06 0)
(2.99999 -6.14957e-06 0)
(2.99999 -7.04353e-06 0)
(2.99999 -8.06503e-06 0)
(2.99998 -9.37534e-06 0)
(2.99998 -1.09955e-05 0)
(2.99998 -1.31062e-05 0)
(2.99997 -1.52789e-05 0)
(2.99996 -2.4212e-05 0)
(3.056 -0.188395 0)
(2.99999 -5.07685e-06 0)
(2.99999 -5.78221e-06 0)
(2.99999 -6.48956e-06 0)
(2.99998 -7.73471e-06 0)
(2.99998 -8.87279e-06 0)
(2.99998 -1.05633e-05 0)
(2.99998 -1.26958e-05 0)
(2.99997 -1.56194e-05 0)
(2.99989 -0.000192546 0)
(2.34994 -0.648847 0)
(2.99999 -5.37377e-06 0)
(2.99999 -5.84423e-06 0)
(2.99998 -6.88831e-06 0)
(2.99998 -7.76426e-06 0)
(2.99998 -8.87321e-06 0)
(2.99998 -1.11435e-05 0)
(2.99997 -1.25658e-05 0)
(2.99997 -1.81379e-05 0)
(3.00013 -0.0113573 0)
(1.80447 -0.78514 0)
(2.99999 -4.64435e-06 0)
(2.99998 -5.65196e-06 0)
(2.99998 -6.19911e-06 0)
(2.99998 -7.65644e-06 0)
(2.99998 -8.3034e-06 0)
(2.99998 -1.0853e-05 0)
(2.99997 -1.25272e-05 0)
(2.99996 -1.83366e-05 0)
(3.01277 -0.153441 0)
(1.65235 -0.826302 0)
(2.99999 -4.91372e-06 0)
(2.99998 -5.5449e-06 0)
(2.99998 -6.52463e-06 0)
(2.99998 -6.78198e-06 0)
(2.99998 -8.93739e-06 0)
(2.99997 -9.61987e-06 0)
(2.99997 -1.43514e-05 0)
(3.00001 -0.000681228 0)
(2.2591 -0.688001 0)
(1.49858 -0.884008 0)
(2.99998 -4.11652e-06 0)
(2.99998 -5.11282e-06 0)
(2.99998 -5.41038e-06 0)
(2.99998 -6.59507e-06 0)
(2.99998 -8.14899e-06 0)
(2.99997 -9.885e-06 0)
(2.99997 -1.34441e-05 0)
(3.03166 -0.0429337 0)
(1.68089 -0.812053 0)
(1.46802 -0.880254 0)
(2.99998 -4.01836e-06 0)
(2.99998 -4.54405e-06 0)
(2.99998 -5.53216e-06 0)
(2.99998 -6.06421e-06 0)
(2.99997 -8.46187e-06 0)
(2.99997 -8.51951e-06 0)
(2.99996 -1.40582e-05 0)
(2.57304 -0.567416 0)
(1.50851 -0.871808 0)
(1.47265 -0.872006 0)
(2.99998 -3.38184e-06 0)
(2.99998 -3.59019e-06 0)
(2.99998 -4.71815e-06 0)
(2.99998 -5.15573e-06 0)
(2.99997 -7.40801e-06 0)
(2.99997 -9.94086e-06 0)
(3.02466 -0.0230327 0)
(1.60909 -0.819636 0)
(1.44892 -0.864362 0)
(1.47084 -0.864164 0)
(2.99998 -2.80936e-06 0)
(2.99998 -3.13075e-06 0)
(2.99998 -3.82036e-06 0)
(2.99997 -5.1201e-06 0)
(2.99997 -5.54437e-06 0)
(2.99996 -9.799e-06 0)
(2.56739 -0.542909 0)
(1.46918 -0.875662 0)
(1.45706 -0.872401 0)
(1.47549 -0.866532 0)
(2.99998 -2.10643e-06 0)
(2.99998 -2.30895e-06 0)
(2.99998 -3.20346e-06 0)
(2.99997 -4.01402e-06 0)
(2.99997 -5.97785e-06 0)
(3.00622 -0.0240658 0)
(1.49768 -0.824459 0)
(1.44494 -0.89428 0)
(1.49425 -0.882629 0)
(1.50776 -0.875433 0)
(2.99998 -1.06856e-06 0)
(2.99998 -1.54637e-06 0)
(2.99998 -1.80912e-06 0)
(2.99997 -3.84195e-06 0)
(2.99997 -4.32185e-06 0)
(2.3238 -0.61842 0)
(1.42105 -0.958401 0)
(1.49677 -0.955101 0)
(1.53743 -0.932125 0)
(1.55638 -0.901054 0)
(2.99998 -6.8101e-07 0)
(2.99998 -1.29507e-06 0)
(2.99998 -1.22998e-06 0)
(3.00079 0.000498194 0)
(2.93754 -0.165925 0)
(1.67073 -0.973311 0)
(1.51741 -0.954571 0)
(1.5943 -0.950471 0)
(1.61228 -0.920046 0)
(1.61113 -0.921794 0)
(2.99998 -3.67291e-07 0)
(3.0039 0.00422771 0)
(2.91925 -0.0712339 0)
(2.82718 -0.219577 0)
(1.72311 -1.05163 0)
(1.41735 -1.14687 0)
(1.51409 -1.0594 0)
(1.61127 -1.01717 0)
(1.63883 -0.977499 0)
(1.65074 -0.935802 0)
(2.82696 -0.0864676 0)
(2.72198 -0.112634 0)
(2.45419 -0.32659 0)
(2.38478 -0.481103 0)
(1.79071 -0.740476 0)
(1.62608 -0.920381 0)
(1.67154 -0.980156 0)
(1.70092 -1.0098 0)
(1.68866 -1.00132 0)
(1.658 -0.963123 0)
(2.37467 -0.563405 0)
(2.09187 -0.740955 0)
(2.21788 -0.644296 0)
(2.41052 -0.438822 0)
(2.58671 -0.157707 0)
(2.76725 -0.0400353 0)
(2.63789 0.180717 0)
(2.46293 0.362895 0)
(2.28961 0.617424 0)
(2.0452 0.365716 0)
(2.25119 -0.619773 0)
(2.08122 -0.740747 0)
(2.24068 -0.619455 0)
(2.44787 -0.398013 0)
(2.6138 -0.116607 0)
(2.75768 -0.0100088 0)
(2.6689 0.182848 0)
(2.49574 0.343814 0)
(2.28751 0.607598 0)
(2.03858 0.362372 0)
(2.15398 -0.637761 0)
(2.07232 -0.738359 0)
(2.26552 -0.592925 0)
(2.46723 -0.378329 0)
(2.63637 -0.0724457 0)
(2.75352 0.0378343 0)
(2.69634 0.182218 0)
(2.52156 0.319168 0)
(2.28074 0.591309 0)
(2.03537 0.354071 0)
(2.05707 -0.682347 0)
(2.06734 -0.720384 0)
(2.29091 -0.562986 0)
(2.49708 -0.334203 0)
(2.65274 -0.0348264 0)
(2.75313 0.0707079 0)
(2.71616 0.181581 0)
(2.54629 0.29029 0)
(2.2812 0.571876 0)
(2.03647 0.342432 0)
(2.00239 -0.71689 0)
(2.06996 -0.703223 0)
(2.31645 -0.520294 0)
(2.51347 -0.300935 0)
(2.67214 0.00960031 0)
(2.76934 0.112653 0)
(2.7353 0.194937 0)
(2.55448 0.259536 0)
(2.27094 0.549347 0)
(2.04017 0.32587 0)
(1.95905 -0.752816 0)
(2.08562 -0.677359 0)
(2.34648 -0.46551 0)
(2.53582 -0.26206 0)
(2.69059 0.0456962 0)
(2.76852 0.135577 0)
(2.74593 0.189495 0)
(2.57196 0.231997 0)
(2.26728 0.520319 0)
(2.04717 0.308487 0)
(1.90857 -0.777179 0)
(2.09952 -0.647068 0)
(2.37254 -0.416162 0)
(2.56816 -0.211201 0)
(2.71531 0.0919554 0)
(2.77339 0.166759 0)
(2.75153 0.195896 0)
(2.57731 0.193785 0)
(2.24248 0.492883 0)
(2.05288 0.29015 0)
(1.83788 -0.801597 0)
(2.11176 -0.617736 0)
(2.41326 -0.354794 0)
(2.59892 -0.162636 0)
(2.73332 0.111081 0)
(2.76736 0.179036 0)
(2.7501 0.194246 0)
(2.60107 0.163628 0)
(2.23294 0.472392 0)
(2.05533 0.27007 0)
(1.81272 -0.810136 0)
(2.14484 -0.589569 0)
(2.44297 -0.309382 0)
(2.6376 -0.0917514 0)
(2.75314 0.164814 0)
(2.76921 0.197707 0)
(2.74879 0.191307 0)
(2.61943 0.130186 0)
(2.22428 0.451095 0)
(2.05168 0.24857 0)
(1.81614 -0.797695 0)
(2.20051 -0.547827 0)
(2.48377 -0.250735 0)
(2.6523 -0.0430078 0)
(2.76067 0.161267 0)
(2.76829 0.207821 0)
(2.74459 0.183883 0)
(2.63852 0.10024 0)
(2.21347 0.430213 0)
(2.039 0.222974 0)
(1.83212 -0.779651 0)
(2.23325 -0.522548 0)
(2.51885 -0.19216 0)
(2.68915 0.0558156 0)
(2.77268 0.196662 0)
(2.76866 0.209322 0)
(2.73478 0.167373 0)
(2.65881 0.0695778 0)
(2.21089 0.406621 0)
(2.02179 0.196006 0)
(1.85897 -0.762658 0)
(2.28273 -0.476418 0)
(2.54957 -0.140448 0)
(2.69173 0.0971412 0)
(2.76857 0.209211 0)
(2.76601 0.212171 0)
(2.7249 0.149518 0)
(2.67222 0.0401333 0)
(2.21093 0.378683 0)
(2.00233 0.170008 0)
(1.8916 -0.735255 0)
(2.31973 -0.433931 0)
(2.60089 -0.0519288 0)
(2.72679 0.193915 0)
(2.76819 0.217964 0)
(2.76382 0.207555 0)
(2.71218 0.128231 0)
(2.67405 0.0151746 0)
(2.20048 0.342789 0)
(1.97929 0.144989 0)
(1.92274 -0.704077 0)
(2.3649 -0.381472 0)
(2.63955 0.0033479 0)
(2.72161 0.231023 0)
(2.76979 0.228879 0)
(2.76122 0.200043 0)
(2.70042 0.111756 0)
(2.66244 -0.0026502 0)
(2.20633 0.302886 0)
(1.96814 0.126796 0)
(1.9583 -0.673915 0)
(2.44432 -0.282287 0)
(2.70367 0.0980558 0)
(2.72196 0.292915 0)
(2.7686 0.234177 0)
(2.74914 0.186949 0)
(2.68508 0.096326 0)
(2.64448 -0.0233185 0)
(2.20609 0.260003 0)
(1.95805 0.108044 0)
(2.04091 -0.627391 0)
(2.48951 -0.224357 0)
(2.75162 0.195452 0)
(2.71227 0.305837 0)
(2.7633 0.242269 0)
(2.73887 0.176152 0)
(2.67273 0.0826649 0)
(2.62148 -0.0436836 0)
(2.20374 0.211034 0)
(1.93749 0.0987113 0)