/*--------------------------------*- C++ -*----------------------------------*\
  =========                 |
  \\      /  F ield         | OpenFOAM: The Open Source CFD Toolbox
   \\    /   O peration     | Website:  https://openfoam.org
    \\  /    A nd           | Version:  7
     \\/     M anipulation  |
\*---------------------------------------------------------------------------*/
FoamFile
{
    version     2.0;
    format      ascii;
    class       volScalarField;
    location    "0.5";
    object      p;
}
// * * * * * * * * * * * * * * * * * * * * * * * * * * * * * * * * * * * * * //

dimensions      [1 -1 -2 0 0 0 0];

internalField   nonuniform List<scalar> 
325
(
10.8768
10.4813
10.1473
9.8553
10.8622
10.4953
10.2332
10.0005
9.79455
9.57063
10.4587
10.3053
10.1355
9.9523
9.77342
9.56796
10.0431
10.022
9.90195
9.76562
9.61837
9.43535
9.77174
9.82132
9.72727
9.63889
9.51532
9.3547
9.32884
9.51402
9.48294
9.47323
9.40286
9.2705
8.71152
9.19443
9.29221
9.36201
9.33992
9.20936
8.09862
8.98943
9.218
9.32104
9.32298
9.18538
7.06367
8.85507
9.27334
9.35086
9.32823
9.17309
5.73469
8.49479
9.38006
9.36899
9.315
9.1495
4.63373
7.42701
9.2915
9.38866
9.31451
9.14746
3.87875
5.47834
8.97363
9.39283
9.27151
9.09188
3.45638
3.98957
7.47949
9.36185
9.2416
9.07069
3.22286
3.44978
5.126
8.87451
9.15979
9.03329
3.0634
3.25923
3.70708
7.04979
8.93294
8.9714
2.93939
3.14166
3.34799
4.69681
8.29146
8.92656
2.86553
3.05131
3.24708
3.61396
6.44292
8.63913
2.82404
2.99031
3.20038
3.41524
4.46342
7.66362
2.79532
2.94728
3.15832
3.39517
3.70041
5.747
2.77518
2.91986
3.12148
3.39476
3.57267
4.19619
6.96099
4.75464
1.1929
4.59886
1.20845
4.38321
1.19275
4.17723
1.16346
3.98378
1.15086
3.80368
1.14547
3.52669
1.145
3.23965
1.14571
2.95863
1.14732
2.71097
1.15044
2.52074
1.15524
2.37513
1.16128
2.27334
1.16859
2.20329
1.17629
2.15646
1.18475
2.12504
1.193
2.10567
1.20037
2.09377
1.20762
2.0906
2.76116
2.90652
3.11042
3.39129
3.59588
3.71896
2.75701
2.90472
3.12766
3.41433
3.60839
3.63569
3.72525
2.76401
2.92977
3.16594
3.473
3.61749
3.62292
3.58865
2.78781
2.96582
3.2302
3.54484
3.62434
3.60951
3.57903
2.82679
3.01834
3.33374
3.60657
3.64062
3.65025
3.64068
2.87372
3.09281
3.44796
3.65882
3.7313
3.74331
3.67538
2.92486
3.18193
3.55482
3.76439
3.8185
3.76996
3.65705
2.97171
3.26167
3.65966
3.83815
3.8397
3.76436
3.60446
3.00578
3.31225
3.7169
3.85062
3.83731
3.73196
3.51155
3.01617
3.31974
3.72007
3.83812
3.82001
3.70511
3.48951
3.01239
3.3007
3.69458
3.81805
3.80372
3.70539
3.50671
3.00459
3.27643
3.66402
3.80876
3.80082
3.71223
3.52394
2.99978
3.26045
3.64221
3.80025
3.79593
3.71622
3.53997
2.99717
3.25488
3.63543
3.80404
3.80303
3.72955
3.56086
2.99488
3.25551
3.64077
3.8154
3.81483
3.7422
3.57121
2.9963
3.26234
3.65213
3.8242
3.82198
3.74671
3.5729
2.99868
3.26801
3.66017
3.82707
3.82364
3.74651
3.56973
3.00088
3.27184
3.66433
3.82742
3.82272
3.74305
3.56392
3.00286
3.27389
3.66579
3.82671
3.82153
3.74018
3.55951
3.00382
3.27455
3.66584
3.82604
3.82063
3.73935
3.55812
1.21552
2.09123
1.21944
2.09254
1.21991
2.09436
1.21886
2.1001
1.21676
2.11126
1.21486
2.12526
1.21368
2.13994
1.21319
2.15394
1.21381
2.16777
1.21511
2.17753
2.18401
2.18869
2.19191
2.19241
2.18911
2.18678
2.18642
2.18665
2.18764
2.18837
)
;

boundaryField
{
    inlet
    {
        type            fixedValue;
        value           nonuniform 0();
    }
    outlet
    {
        type            zeroGradient;
    }
    triangle
    {
        type            zeroGradient;
    }
    top
    {
        type            symmetryPlane;
    }
    bottom
    {
        type            symmetryPlane;
    }
    defaultFaces
    {
        type            empty;
    }
    procBoundary5to1
    {
        type            processor;
        value           nonuniform List<scalar> 6(11.804 11.3077 11.3077 4.84233 1.17988 1.17988);
    }
    procBoundary5to4
    {
        type            processor;
        value           nonuniform List<scalar> 
39
(
1.00572
1.00554
1.00539
1.00537
1.00552
1.00585
1.00634
1.00694
1.00768
1.00858
1.0095
1.01045
1.01121
1.01175
1.01204
1.01212
1.01203
1.01181
1.01147
1.01126
1.01124
1.01123
1.01114
1.01094
1.01067
1.01041
1.01018
1.00997
1.21669
1.21669
1.21841
1.21996
1.22084
1.22101
1.22088
1.22055
1.21991
1.21928
1.21907
)
;
    }
    procBoundary5to6
    {
        type            processor;
        value           nonuniform List<scalar> 
43
(
9.55052
9.29245
9.29636
9.17603
9.11313
9.03836
8.98598
8.97262
8.95565
8.92245
8.89641
8.86502
8.86284
8.86512
8.83137
8.76983
8.68371
8.67219
8.23328
8.23328
8.41131
4.76822
4.76822
4.76822
4.96937
3.71723
3.54253
3.56872
3.57396
3.527
3.39338
3.28826
3.27668
3.28388
3.29986
3.31848
3.337
3.33961
3.34204
3.33982
3.33518
3.33194
3.32998
)
;
    }
}


// ************************************************************************* //
