/*--------------------------------*- C++ -*----------------------------------*\
  =========                 |
  \\      /  F ield         | OpenFOAM: The Open Source CFD Toolbox
   \\    /   O peration     | Website:  https://openfoam.org
    \\  /    A nd           | Version:  8
     \\/     M anipulation  |
\*---------------------------------------------------------------------------*/
FoamFile
{
    version     2.0;
    format      ascii;
    class       volScalarField;
    location    "0.5";
    object      p;
}
// * * * * * * * * * * * * * * * * * * * * * * * * * * * * * * * * * * * * * //

dimensions      [1 -1 -2 0 0 0 0];

internalField   nonuniform List<scalar> 
325
(
10.8767
10.4813
10.1473
9.8553
10.8622
10.4952
10.2332
10.0005
9.79454
9.57062
10.4587
10.3053
10.1355
9.95229
9.77342
9.56795
10.0431
10.022
9.90194
9.76562
9.61836
9.43534
9.77173
9.82132
9.72726
9.63888
9.51532
9.35469
9.32884
9.51402
9.48293
9.47323
9.40286
9.27051
8.71152
9.19443
9.29221
9.362
9.33992
9.20936
8.09862
8.98942
9.21799
9.32103
9.32298
9.18538
7.06367
8.85506
9.27334
9.35085
9.32823
9.1731
5.73469
8.49479
9.38004
9.36899
9.31499
9.1495
4.63374
7.42701
9.29149
9.38866
9.31451
9.14746
3.87875
5.47834
8.97362
9.39282
9.2715
9.09188
3.45639
3.98958
7.4795
9.36182
9.24158
9.07069
3.22286
3.44979
5.12601
8.8745
9.15978
9.03329
3.0634
3.25923
3.70709
7.04979
8.93293
8.97139
2.93939
3.14166
3.34799
4.69681
8.29145
8.92656
2.86553
3.05131
3.24708
3.61396
6.44291
8.63913
2.82404
2.99031
3.20038
3.41524
4.46342
7.66362
2.79531
2.94728
3.15832
3.39518
3.70041
5.74699
2.77518
2.91986
3.12148
3.39476
3.57268
4.19619
6.96098
4.75464
1.19289
4.59886
1.20845
4.38321
1.19275
4.17723
1.16346
3.98378
1.15086
3.80368
1.14547
3.52669
1.145
3.23965
1.14571
2.95863
1.14732
2.71098
1.15044
2.52074
1.15524
2.37513
1.16128
2.27334
1.16859
2.20329
1.17629
2.15646
1.18475
2.12504
1.193
2.10567
1.20037
2.09377
1.20762
2.0906
2.76116
2.90652
3.11043
3.39129
3.59589
3.71896
2.75701
2.90472
3.12766
3.41434
3.60839
3.63569
3.72525
2.76401
2.92977
3.16595
3.47301
3.6175
3.62292
3.58865
2.78781
2.96582
3.2302
3.54484
3.62434
3.60951
3.57903
2.82679
3.01835
3.33375
3.60658
3.64062
3.65026
3.64069
2.87372
3.09281
3.44796
3.65883
3.73131
3.74332
3.67539
2.92486
3.18193
3.55483
3.7644
3.81851
3.76996
3.65705
2.9717
3.26167
3.65966
3.83816
3.83971
3.76437
3.60447
3.00578
3.31224
3.71688
3.85062
3.83731
3.73197
3.51156
3.01616
3.31973
3.72005
3.83811
3.82
3.70511
3.48952
3.01241
3.30072
3.69459
3.81803
3.8037
3.70537
3.50668
3.00462
3.27647
3.66404
3.80876
3.80081
3.71219
3.52387
2.99984
3.26053
3.64229
3.80024
3.79591
3.71616
3.53984
2.99725
3.255
3.63555
3.80403
3.80298
3.72944
3.5607
2.995
3.2557
3.64102
3.81541
3.81478
3.74205
3.57087
2.99643
3.26256
3.65243
3.82424
3.82195
3.74653
3.57254
2.99889
3.26837
3.66055
3.82712
3.82363
3.74632
3.5693
3.00114
3.27229
3.6648
3.82746
3.82267
3.7428
3.56341
3.00312
3.27431
3.66623
3.82673
3.82145
3.73989
3.55895
3.00408
3.27496
3.66628
3.82605
3.82055
3.73906
3.55754
1.21552
2.09123
1.21944
2.09254
1.21991
2.09436
1.21886
2.1001
1.21676
2.11126
1.21486
2.12526
1.21368
2.13993
1.21319
2.15394
1.21381
2.16777
1.21511
2.17753
2.18403
2.1887
2.19194
2.19245
2.18916
2.18684
2.18647
2.1867
2.18772
2.18846
)
;

boundaryField
{
    inlet
    {
        type            fixedValue;
        value           nonuniform List<scalar> 0();
    }
    outlet
    {
        type            zeroGradient;
    }
    triangle
    {
        type            zeroGradient;
    }
    top
    {
        type            symmetryPlane;
    }
    bottom
    {
        type            symmetryPlane;
    }
    defaultFaces
    {
        type            empty;
    }
    procBoundary5to1
    {
        type            processor;
        value           nonuniform List<scalar> 6(11.8039 11.3076 11.3076 4.84234 1.17989 1.17989);
    }
    procBoundary5to4
    {
        type            processor;
        value           nonuniform List<scalar> 
39
(
1.00572
1.00554
1.00539
1.00537
1.00552
1.00585
1.00634
1.00694
1.00768
1.00858
1.0095
1.01045
1.01121
1.01175
1.01204
1.01212
1.01203
1.01181
1.01147
1.01126
1.01124
1.01123
1.01114
1.01094
1.01067
1.01041
1.01018
1.00997
1.21669
1.21669
1.21841
1.21996
1.22083
1.22101
1.22088
1.22055
1.2199
1.21927
1.21906
)
;
    }
    procBoundary5to6
    {
        type            processor;
        value           nonuniform List<scalar> 
43
(
9.55052
9.29244
9.29636
9.17602
9.11313
9.03836
8.98598
8.97262
8.95565
8.92245
8.89641
8.86502
8.86283
8.86511
8.83137
8.76983
8.68371
8.6722
8.23328
8.23328
8.4113
4.76821
4.76821
4.76821
4.96937
3.71723
3.54254
3.56872
3.57396
3.527
3.39338
3.28826
3.27667
3.28385
3.29978
3.31834
3.33681
3.33927
3.34163
3.33933
3.33465
3.33138
3.32938
)
;
    }
}


// ************************************************************************* //
