/*--------------------------------*- C++ -*----------------------------------*\
  =========                 |
  \\      /  F ield         | OpenFOAM: The Open Source CFD Toolbox
   \\    /   O peration     | Website:  https://openfoam.org
    \\  /    A nd           | Version:  7
     \\/     M anipulation  |
\*---------------------------------------------------------------------------*/
FoamFile
{
    version     2.0;
    format      ascii;
    class       volScalarField;
    location    "0.2";
    object      T;
}
// * * * * * * * * * * * * * * * * * * * * * * * * * * * * * * * * * * * * * //

dimensions      [0 0 0 1 0 0 0];

internalField   nonuniform List<scalar> 
103200
(
0.883873
0.924946
0.910443
0.898374
0.890449
0.887216
0.886628
0.887436
0.888195
0.888145
0.887767
0.888186
0.890161
0.892998
0.895402
0.898015
0.900762
0.901981
0.901535
0.898727
0.894047
0.884827
0.872042
0.850623
0.830138
0.805735
0.782882
0.763341
0.740977
0.720776
0.704578
0.691728
0.677934
0.666421
0.659894
0.652212
0.638694
0.628984
0.632562
0.635491
0.636485
0.642794
0.654231
0.66983
0.70143
0.752967
0.772962
0.804673
0.927539
0.978657
0.982362
0.987023
0.994871
1.00057
1.00478
1.00832
1.01139
1.01539
1.02299
1.03075
0.798923
0.877912
0.880287
0.881292
0.879714
0.879789
0.881838
0.884367
0.885743
0.886122
0.886583
0.888817
0.892287
0.894685
0.895857
0.897391
0.899217
0.899302
0.898634
0.895408
0.890977
0.882868
0.869442
0.849551
0.830749
0.807003
0.784481
0.766356
0.745577
0.727526
0.712393
0.700322
0.686331
0.671316
0.663696
0.655677
0.638848
0.628783
0.631202
0.632824
0.633401
0.638361
0.649843
0.664717
0.696918
0.745831
0.767078
0.829155
0.953091
0.978645
0.981366
0.986603
0.995019
1.00105
1.00486
1.00889
1.01191
1.01546
1.02205
1.03001
0.752079
0.803028
0.824905
0.842091
0.851523
0.858579
0.864386
0.868294
0.870794
0.873339
0.876936
0.881616
0.885193
0.886818
0.887201
0.887127
0.887872
0.888854
0.887901
0.88729
0.885758
0.879607
0.867712
0.849775
0.832229
0.808003
0.785229
0.76805
0.749158
0.732593
0.71877
0.70806
0.69537
0.678172
0.669081
0.660539
0.640695
0.629707
0.630758
0.63082
0.630719
0.6333
0.643995
0.657657
0.691795
0.736432
0.764781
0.871761
0.967646
0.97666
0.981186
0.986908
0.995495
1.00172
1.00506
1.00908
1.01185
1.01519
1.02111
1.02945
0.739945
0.759063
0.781971
0.800528
0.813401
0.823115
0.83013
0.836046
0.842239
0.849758
0.857668
0.863129
0.865003
0.864659
0.863928
0.864764
0.866886
0.868022
0.872382
0.878597
0.881511
0.878921
0.869973
0.855263
0.837201
0.81356
0.790224
0.773368
0.754635
0.737332
0.723007
0.712631
0.702181
0.685587
0.674209
0.664673
0.643043
0.630663
0.629405
0.627058
0.626483
0.627813
0.636713
0.649221
0.687443
0.727377
0.768495
0.915331
0.972999
0.975555
0.981776
0.987689
0.99592
1.00224
1.00527
1.00864
1.01087
1.01416
1.0202
1.02902
0.738786
0.742633
0.753315
0.765199
0.776351
0.786799
0.796395
0.805879
0.815574
0.824177
0.829485
0.831026
0.830737
0.830854
0.83323
0.83741
0.842308
0.850517
0.862009
0.87469
0.883156
0.886168
0.881799
0.871218
0.852256
0.829243
0.805682
0.786463
0.76507
0.744737
0.727677
0.715715
0.706975
0.693006
0.680474
0.669482
0.644756
0.629513
0.629624
0.626254
0.623432
0.624746
0.632345
0.645158
0.684518
0.722957
0.795195
0.944368
0.973509
0.976103
0.982833
0.988434
0.99606
1.00233
1.0054
1.00796
1.00986
1.01334
1.01967
1.02857
0.73722
0.736355
0.738672
0.745919
0.755816
0.765984
0.775921
0.784662
0.790891
0.794682
0.796091
0.79671
0.798332
0.802129
0.807775
0.814556
0.825508
0.840385
0.858913
0.876844
0.893514
0.904936
0.905643
0.898425
0.881164
0.858261
0.834717
0.810303
0.783487
0.758468
0.736873
0.721226
0.711974
0.700352
0.687092
0.673999
0.646712
0.627126
0.628737
0.625005
0.622652
0.625305
0.631274
0.644153
0.68235
0.72077
0.83866
0.95734
0.973719
0.978208
0.983594
0.988978
0.996112
1.00219
1.00548
1.00795
1.01
1.01357
1.01952
1.02791
0.735098
0.732894
0.733384
0.738615
0.74737
0.756767
0.762592
0.765769
0.768005
0.769668
0.771547
0.773998
0.777523
0.782562
0.789923
0.801782
0.818007
0.83834
0.861588
0.886562
0.910517
0.926926
0.930834
0.924823
0.910848
0.892045
0.869742
0.842725
0.811126
0.780819
0.7548
0.733533
0.72029
0.708656
0.693645
0.678885
0.650216
0.626079
0.628713
0.627246
0.622885
0.62391
0.628432
0.644575
0.67965
0.72015
0.888856
0.964386
0.974916
0.980441
0.983867
0.989402
0.996317
1.00215
1.00609
1.00881
1.01099
1.01428
1.01938
1.02707
0.73355
0.731848
0.733263
0.739405
0.747238
0.751073
0.751786
0.752124
0.753641
0.756028
0.758855
0.761728
0.765587
0.771574
0.781803
0.797357
0.817055
0.841031
0.869225
0.898515
0.924511
0.942349
0.94859
0.94433
0.93339
0.918317
0.897302
0.871472
0.840312
0.808649
0.779886
0.754243
0.733104
0.716947
0.699512
0.683047
0.65598
0.626881
0.626618
0.628112
0.62385
0.62445
0.628511
0.645079
0.674138
0.732594
0.922479
0.968174
0.976796
0.981545
0.983867
0.990015
0.997303
1.00277
1.00731
1.01017
1.01234
1.01486
1.0188
1.02624
0.732903
0.732731
0.736593
0.742805
0.746684
0.746109
0.74499
0.74548
0.747316
0.750064
0.752814
0.755554
0.759356
0.767401
0.780065
0.797452
0.819555
0.846637
0.877195
0.906889
0.932012
0.949437
0.956566
0.952545
0.942197
0.927319
0.906876
0.884594
0.861186
0.83604
0.806702
0.779868
0.750352
0.726213
0.704835
0.68577
0.662306
0.630534
0.625761
0.62922
0.626623
0.625723
0.628614
0.643376
0.667949
0.77261
0.941735
0.970734
0.977838
0.981575
0.984201
0.991282
0.999085
1.00409
1.00854
1.01108
1.01307
1.01487
1.01795
1.02573
0.733367
0.735351
0.740482
0.744276
0.744834
0.742815
0.74208
0.743012
0.745075
0.747407
0.749338
0.751813
0.757265
0.766683
0.780801
0.799998
0.823356
0.851732
0.881422
0.909813
0.933942
0.951682
0.958478
0.953221
0.94046
0.92375
0.90329
0.88507
0.869213
0.850495
0.824905
0.798499
0.767566
0.736018
0.709912
0.688027
0.667831
0.63816
0.624118
0.626253
0.628501
0.627322
0.629993
0.642097
0.662813
0.825321
0.955777
0.973214
0.977986
0.98145
0.985698
0.993067
1.00098
1.00548
1.00935
1.01129
1.0128
1.0143
1.0175
1.02563
0.73495
0.737911
0.741877
0.74395
0.742889
0.740922
0.740975
0.742334
0.744106
0.745743
0.747523
0.750767
0.757027
0.767556
0.782916
0.80288
0.82664
0.854216
0.882234
0.908913
0.931787
0.948062
0.954295
0.946455
0.929909
0.91203
0.893165
0.87891
0.866139
0.849639
0.828039
0.803715
0.778377
0.745216
0.71555
0.691632
0.671575
0.646043
0.626369
0.623436
0.626337
0.625684
0.630533
0.639167
0.660219
0.876948
0.969472
0.974715
0.977217
0.982359
0.987988
0.994856
1.00235
1.00641
1.00957
1.01073
1.01185
1.01392
1.01775
1.02568
0.736903
0.738961
0.741687
0.742485
0.740867
0.740008
0.74061
0.742004
0.743572
0.745033
0.74705
0.75074
0.757757
0.768937
0.784577
0.804469
0.828777
0.855397
0.881481
0.90508
0.924746
0.937286
0.940962
0.930644
0.909218
0.892142
0.874168
0.86181
0.851477
0.838319
0.821946
0.80041
0.781077
0.752417
0.721659
0.697668
0.675839
0.651344
0.630957
0.619555
0.620857
0.621509
0.628067
0.632229
0.68051
0.916285
0.972334
0.974538
0.977072
0.984295
0.990196
0.996295
1.00293
1.00664
1.00933
1.01013
1.01162
1.01448
1.01838
1.02553
0.737746
0.738766
0.7405
0.740467
0.73941
0.739797
0.740855
0.742257
0.743826
0.745255
0.747262
0.751201
0.758342
0.769355
0.784991
0.805754
0.830408
0.856001
0.879055
0.898135
0.913691
0.922152
0.923105
0.911924
0.885915
0.866541
0.845928
0.835326
0.828183
0.819732
0.81084
0.794507
0.778671
0.756651
0.727735
0.703314
0.679443
0.654868
0.633526
0.616911
0.614828
0.615038
0.623299
0.629982
0.719688
0.940763
0.969966
0.973378
0.978765
0.986301
0.991736
0.99712
1.00272
1.00667
1.00965
1.01074
1.01254
1.01552
1.01879
1.02496
0.737481
0.737788
0.738695
0.738634
0.738944
0.740543
0.742051
0.74353
0.744927
0.745809
0.747357
0.750934
0.757872
0.768846
0.785461
0.807564
0.831836
0.855552
0.874258
0.889598
0.90231
0.908306
0.906622
0.893388
0.861282
0.835738
0.812692
0.805935
0.803271
0.800056
0.79657
0.787373
0.773005
0.756516
0.731733
0.706477
0.680645
0.656138
0.633264
0.615925
0.609237
0.609962
0.617962
0.625253
0.763796
0.960172
0.969277
0.9725
0.981271
0.987574
0.992428
0.997304
1.00255
1.00755
1.01085
1.0123
1.01408
1.01624
1.01861
1.02415
0.73661
0.736411
0.736964
0.737536
0.739771
0.742515
0.744428
0.745704
0.745848
0.745675
0.746645
0.749739
0.756555
0.768569
0.786759
0.809673
0.832627
0.853007
0.867918
0.881595
0.893233
0.898334
0.893651
0.875556
0.835445
0.803198
0.779921
0.776425
0.777768
0.779083
0.779597
0.775901
0.76409
0.752697
0.732041
0.707524
0.680972
0.655859
0.632276
0.61696
0.603343
0.604389
0.610322
0.621266
0.817901
0.971941
0.96844
0.973039
0.983441
0.987989
0.992336
0.998173
1.004
1.00908
1.01216
1.01377
1.01512
1.01635
1.01779
1.02369
0.735764
0.735435
0.735969
0.738083
0.741985
0.7455
0.747001
0.747049
0.745634
0.744606
0.744947
0.747998
0.755881
0.769362
0.788996
0.811196
0.83184
0.848286
0.861892
0.875725
0.887219
0.891358
0.884179
0.861256
0.809413
0.768303
0.747537
0.74682
0.750889
0.756452
0.75952
0.760725
0.752722
0.744192
0.729593
0.706241
0.678816
0.651789
0.627028
0.618329
0.603415
0.60505
0.603949
0.622035
0.859877
0.971523
0.967326
0.974999
0.984569
0.987822
0.992891
1.00055
1.00645
1.0107
1.01319
1.01468
1.0154
1.01582
1.01713
1.0237
0.735404
0.735209
0.736384
0.740121
0.745058
0.747989
0.748311
0.746801
0.744408
0.742547
0.743289
0.747141
0.756323
0.771352
0.790948
0.81123
0.828874
0.843055
0.857516
0.871883
0.882543
0.885924
0.87888
0.850658
0.782687
0.730244
0.714692
0.717279
0.723489
0.732276
0.738393
0.74316
0.73897
0.73253
0.722649
0.701397
0.675158
0.647147
0.622445
0.618294
0.604089
0.607724
0.60497
0.636214
0.893019
0.967505
0.967184
0.977017
0.984812
0.988604
0.995401
1.00365
1.00917
1.01241
1.01404
1.01495
1.01502
1.01533
1.01733
1.02399
0.735658
0.735719
0.73803
0.742914
0.74713
0.748864
0.747937
0.745343
0.742264
0.741301
0.742333
0.747432
0.757802
0.772992
0.791148
0.809213
0.824914
0.838968
0.854554
0.868947
0.878263
0.881274
0.875682
0.83911
0.749441
0.687576
0.68155
0.687517
0.695916
0.707058
0.716289
0.723145
0.723209
0.719422
0.712075
0.694927
0.672803
0.646456
0.622638
0.618497
0.606142
0.609384
0.605318
0.657425
0.913923
0.962124
0.968442
0.978205
0.984948
0.99163
0.999181
1.00732
1.01198
1.01434
1.0151
1.01521
1.01507
1.01603
1.01823
1.02421
0.73624
0.736775
0.73996
0.744566
0.747547
0.747955
0.7463
0.743105
0.741075
0.740722
0.742733
0.748709
0.758963
0.772938
0.789269
0.805729
0.82147
0.836712
0.852742
0.866779
0.875203
0.878462
0.874463
0.822523
0.701631
0.643085
0.649742
0.658469
0.66839
0.680111
0.692121
0.701113
0.705711
0.705189
0.700442
0.689164
0.67247
0.649836
0.627705
0.620412
0.606527
0.609218
0.603318
0.681629
0.931465
0.960864
0.970416
0.978729
0.986952
0.995977
1.00378
1.01066
1.01439
1.01672
1.01677
1.01617
1.01627
1.01758
1.01923
1.02412
0.736522
0.737363
0.740749
0.744644
0.74641
0.745935
0.744067
0.741894
0.740751
0.741441
0.744044
0.749643
0.758487
0.770898
0.786233
0.802614
0.818989
0.83576
0.851884
0.865112
0.872877
0.877202
0.875022
0.798622
0.632064
0.607719
0.621362
0.632214
0.64285
0.654754
0.668245
0.679438
0.688993
0.691462
0.687581
0.681644
0.670958
0.655259
0.637813
0.623549
0.608704
0.608152
0.59723
0.729518
0.954424
0.963409
0.971183
0.979902
0.991017
1.00079
1.00777
1.01258
1.01644
1.01928
1.01922
1.01864
1.01889
1.01954
1.02003
1.02368
0.736248
0.737172
0.740391
0.743415
0.744349
0.743896
0.742721
0.741675
0.741778
0.742785
0.744913
0.749108
0.75652
0.768124
0.783619
0.800685
0.817747
0.835207
0.851391
0.863852
0.871486
0.876883
0.868875
0.750746
0.566531
0.581232
0.59604
0.609925
0.622515
0.635081
0.64914
0.661501
0.674218
0.679611
0.675433
0.671459
0.667333
0.657661
0.646115
0.623513
0.613081
0.604192
0.596397
0.802494
0.972443
0.966089
0.971746
0.983218
0.995816
1.0045
1.0098
1.01355
1.01861
1.02159
1.02177
1.02138
1.02135
1.02112
1.02037
1.02339
0.73547
0.736288
0.739105
0.74158
0.74258
0.742622
0.742749
0.742837
0.743104
0.743489
0.744545
0.747485
0.754219
0.766127
0.782221
0.799964
0.817502
0.834784
0.850866
0.863226
0.871235
0.877242
0.846886
0.665506
0.544726
0.561239
0.574899
0.588559
0.60356
0.616614
0.631051
0.645259
0.659519
0.668172
0.667246
0.661733
0.660774
0.65505
0.646116
0.617562
0.612449
0.595938
0.595485
0.874466
0.974486
0.966263
0.973405
0.987989
0.999584
1.00591
1.01026
1.01559
1.02081
1.0232
1.02383
1.02371
1.02314
1.02182
1.02057
1.0236
0.734574
0.735176
0.73764
0.740008
0.74161
0.743072
0.74401
0.744228
0.743651
0.742701
0.74303
0.745741
0.752774
0.765416
0.782285
0.800153
0.817492
0.8342
0.850207
0.863418
0.872769
0.878728
0.814546
0.582625
0.538937
0.550453
0.559776
0.569148
0.581903
0.594466
0.61059
0.624959
0.641423
0.655369
0.661198
0.656502
0.652977
0.649146
0.642193
0.608689
0.610087
0.581843
0.610167
0.937603
0.970286
0.965742
0.976052
0.992015
1.00092
1.0051
1.01141
1.01838
1.02237
1.02396
1.02514
1.02528
1.02398
1.0219
1.0208
1.02418
0.734044
0.734493
0.736722
0.739542
0.742443
0.744503
0.745313
0.744775
0.742666
0.740981
0.741297
0.744626
0.752514
0.766164
0.783207
0.800568
0.817294
0.833582
0.849861
0.864884
0.875607
0.879081
0.771357
0.529732
0.532863
0.542908
0.552553
0.561354
0.570418
0.578264
0.588756
0.602759
0.620777
0.640787
0.652568
0.654882
0.650015
0.645802
0.637878
0.608257
0.611546
0.582853
0.671908
0.976678
0.969868
0.967266
0.979497
0.99375
0.999951
1.00484
1.01367
1.02043
1.02297
1.02427
1.02588
1.02598
1.02409
1.02233
1.02181
1.02503
0.734044
0.734586
0.736915
0.740548
0.744055
0.745663
0.745735
0.743711
0.740812
0.739303
0.740109
0.744249
0.753143
0.767394
0.784003
0.800108
0.816463
0.833344
0.85038
0.867309
0.8791
0.869247
0.702023
0.500408
0.520323
0.533033
0.544024
0.55507
0.565592
0.574482
0.583579
0.592898
0.605827
0.626769
0.644673
0.654266
0.649979
0.643971
0.634807
0.620151
0.616184
0.589549
0.751979
1.00538
0.976579
0.971676
0.982969
0.993055
0.998696
1.00631
1.01548
1.02086
1.02313
1.02484
1.02635
1.02616
1.02453
1.02371
1.0232
1.02584
0.734292
0.735069
0.737788
0.741892
0.744999
0.745933
0.744711
0.741685
0.739142
0.738271
0.739613
0.744362
0.753813
0.767736
0.782932
0.798642
0.81558
0.833911
0.852573
0.871021
0.88429
0.847988
0.610596
0.48922
0.501454
0.513295
0.529168
0.544896
0.557309
0.570997
0.580858
0.585577
0.596402
0.614245
0.636495
0.651292
0.649455
0.643156
0.636418
0.636535
0.616267
0.5976
0.851325
1.00609
0.97793
0.976832
0.984065
0.990863
0.998956
1.00851
1.01613
1.02022
1.02351
1.02587
1.02681
1.0265
1.02592
1.02551
1.02452
1.02638
0.734464
0.73541
0.73843
0.742457
0.74495
0.744853
0.742653
0.739894
0.738145
0.738084
0.739693
0.744428
0.753039
0.766012
0.780743
0.797318
0.815178
0.835501
0.856066
0.875277
0.88848
0.816205
0.527357
0.480411
0.489162
0.496695
0.506451
0.521556
0.540624
0.556668
0.569946
0.580086
0.589064
0.603148
0.625877
0.645986
0.648988
0.643188
0.641871
0.64751
0.617412
0.672183
0.916637
0.999355
0.977111
0.978778
0.982649
0.989748
1.00037
1.00995
1.01547
1.01907
1.02377
1.0266
1.02723
1.02733
1.02756
1.02707
1.02546
1.02669
0.734257
0.73532
0.738404
0.742004
0.743617
0.742813
0.740789
0.738821
0.738213
0.73848
0.739811
0.743178
0.750792
0.763242
0.77875
0.796581
0.815567
0.837765
0.859465
0.876919
0.887245
0.761145
0.467373
0.469334
0.480223
0.491006
0.50009
0.508978
0.519306
0.534729
0.553366
0.569556
0.581504
0.594516
0.615241
0.640228
0.650174
0.646022
0.64392
0.653623
0.642193
0.724579
0.933592
0.983983
0.975105
0.978027
0.981053
0.990225
1.00157
1.01002
1.01384
1.01833
1.02352
1.02642
1.02748
1.02836
1.02885
1.02806
1.02596
1.02705
0.733435
0.734566
0.737546
0.740525
0.741618
0.740935
0.739725
0.739093
0.73905
0.73889
0.738818
0.741009
0.747895
0.760966
0.777768
0.796728
0.817103
0.840355
0.862118
0.87759
0.868544
0.660264
0.452097
0.463555
0.474423
0.487786
0.49981
0.508254
0.516004
0.524968
0.538015
0.556046
0.574453
0.588555
0.607753
0.633069
0.650949
0.6541
0.643157
0.653833
0.668949
0.747448
0.930963
0.96691
0.971552
0.976354
0.980575
0.99145
1.00164
1.00819
1.0126
1.01817
1.02273
1.02571
1.02771
1.02906
1.0294
1.02832
1.02628
1.02773
0.732318
0.733303
0.736034
0.738703
0.739896
0.739886
0.73999
0.740255
0.739843
0.738443
0.736931
0.738848
0.746137
0.759919
0.777788
0.798011
0.819812
0.843332
0.863626
0.87791
0.829479
0.544324
0.451082
0.459521
0.469442
0.481902
0.496028
0.508867
0.515865
0.521306
0.532029
0.547141
0.566254
0.586894
0.603621
0.624866
0.64888
0.662302
0.653501
0.650384
0.682261
0.754661
0.918497
0.956571
0.971281
0.975179
0.981437
0.992162
0.999665
1.0051
1.01218
1.01824
1.02202
1.02507
1.02782
1.02928
1.0293
1.02828
1.02672
1.02865
0.731434
0.732154
0.73461
0.737247
0.739039
0.740255
0.741051
0.741259
0.739889
0.736951
0.735065
0.737617
0.74563
0.759897
0.778825
0.800278
0.822838
0.845458
0.862782
0.875549
0.771318
0.467828
0.450429
0.457185
0.46521
0.475488
0.487722
0.500347
0.512657
0.520644
0.529813
0.542237
0.55962
0.581007
0.601415
0.619396
0.64197
0.665782
0.670925
0.656623
0.693097
0.761241
0.908052
0.954369
0.970807
0.974353
0.982782
0.991176
0.995685
1.00318
1.0123
1.01838
1.02184
1.0249
1.02771
1.02901
1.02896
1.0284
1.02736
1.0295
0.7311
0.73156
0.73381
0.736708
0.739399
0.741218
0.742013
0.741501
0.738553
0.735174
0.734023
0.737406
0.746031
0.760762
0.780548
0.80265
0.825216
0.846466
0.860065
0.859316
0.679057
0.442908
0.449318
0.455609
0.462196
0.470428
0.48074
0.493716
0.507939
0.521531
0.529708
0.540547
0.557035
0.577139
0.599178
0.617667
0.637064
0.666465
0.68434
0.677849
0.706875
0.770796
0.905896
0.954366
0.96813
0.974034
0.98289
0.98737
0.992322
1.00328
1.0125
1.01832
1.02182
1.02485
1.02737
1.02852
1.02884
1.02873
1.02797
1.03007
0.731325
0.731607
0.733753
0.737048
0.740168
0.741906
0.742235
0.740352
0.73647
0.733884
0.733897
0.737875
0.747179
0.761876
0.781985
0.804177
0.82639
0.846629
0.859581
0.82476
0.562109
0.443399
0.448637
0.454666
0.460835
0.468764
0.478546
0.490359
0.50498
0.51932
0.530819
0.541483
0.555236
0.573565
0.595445
0.61804
0.635474
0.662711
0.689045
0.701151
0.724955
0.784807
0.905379
0.95305
0.964897
0.974656
0.98017
0.982602
0.99172
1.00406
1.0123
1.01757
1.02129
1.02429
1.02662
1.02809
1.02887
1.02896
1.02829
1.03032
0.731724
0.731897
0.733996
0.737529
0.740577
0.741909
0.741049
0.738114
0.734796
0.733255
0.734322
0.73877
0.747979
0.762145
0.78213
0.804619
0.826573
0.846217
0.860317
0.77639
0.47369
0.442776
0.447854
0.453969
0.461039
0.468836
0.477581
0.489032
0.503532
0.519052
0.532932
0.543467
0.554775
0.571373
0.591167
0.615849
0.63818
0.658396
0.689238
0.716732
0.744061
0.805255
0.90844
0.954984
0.965774
0.974297
0.975351
0.979936
0.992511
1.00468
1.01129
1.01615
1.02023
1.02338
1.02587
1.02767
1.02872
1.02883
1.0283
1.03047
0.731919
0.732035
0.734135
0.737643
0.740148
0.7404
0.738738
0.73606
0.733916
0.733452
0.734978
0.739034
0.747297
0.760903
0.781333
0.804633
0.826667
0.843623
0.852258
0.699696
0.436925
0.443094
0.447867
0.453976
0.460569
0.468189
0.477279
0.489159
0.504002
0.519403
0.533479
0.544488
0.555306
0.569768
0.589573
0.613116
0.63995
0.656889
0.689111
0.72752
0.763755
0.827165
0.913291
0.954746
0.967876
0.971842
0.972023
0.980177
0.993726
1.00453
1.00989
1.0151
1.01955
1.02281
1.02532
1.02701
1.02802
1.02825
1.02818
1.03087
0.731748
0.731774
0.733762
0.736775
0.738291
0.737994
0.736483
0.734798
0.733882
0.734238
0.735198
0.737825
0.745143
0.758605
0.780431
0.804481
0.827118
0.842843
0.825629
0.586419
0.434764
0.442272
0.447787
0.454592
0.462003
0.469692
0.478695
0.490313
0.504563
0.51997
0.534153
0.545965
0.556994
0.571215
0.58972
0.612867
0.641422
0.66136
0.692488
0.739502
0.778936
0.842069
0.913974
0.952087
0.968994
0.968895
0.97171
0.981697
0.994674
1.00301
1.0092
1.01518
1.01967
1.02267
1.02479
1.02603
1.02683
1.02748
1.02807
1.03156
0.730979
0.730838
0.732526
0.734848
0.735967
0.735701
0.734901
0.734402
0.734477
0.735062
0.735003
0.735378
0.741858
0.756346
0.780231
0.804898
0.827987
0.844804
0.781461
0.481755
0.436501
0.442685
0.449378
0.455722
0.462348
0.469556
0.478858
0.491168
0.505857
0.520382
0.534118
0.547176
0.559607
0.57432
0.592921
0.616809
0.6436
0.66788
0.696543
0.749536
0.79531
0.852687
0.913817
0.953294
0.969036
0.968296
0.972973
0.984125
0.99457
1.00177
1.00979
1.01616
1.02022
1.02265
1.02403
1.02478
1.02569
1.02688
1.02801
1.03217
0.729778
0.72946
0.730844
0.732742
0.733859
0.734076
0.734244
0.734789
0.735408
0.735397
0.733934
0.732882
0.739345
0.755097
0.780893
0.806605
0.827824
0.839272
0.708456
0.434557
0.438395
0.443462
0.44967
0.456073
0.463218
0.471404
0.481918
0.494247
0.507413
0.520972
0.535135
0.549453
0.563542
0.578932
0.598111
0.621571
0.647869
0.674983
0.701921
0.753948
0.813068
0.86711
0.919842
0.958965
0.969193
0.9695
0.976498
0.986656
0.993923
1.0024
1.01147
1.0174
1.02067
1.02219
1.02289
1.0236
1.0248
1.02637
1.02781
1.03245
0.728603
0.728115
0.729283
0.731017
0.732414
0.733465
0.734581
0.735567
0.736105
0.734946
0.73239
0.731277
0.738119
0.755096
0.782528
0.809559
0.829194
0.816504
0.597042
0.431753
0.439266
0.444773
0.450743
0.45721
0.464743
0.473473
0.483626
0.494666
0.507018
0.520907
0.535986
0.551799
0.56777
0.584335
0.603296
0.626453
0.652805
0.681657
0.709392
0.75399
0.822766
0.882756
0.931274
0.965064
0.970475
0.973136
0.981524
0.988291
0.99503
1.00522
1.01369
1.01834
1.02064
1.0214
1.02193
1.02272
1.02401
1.02566
1.02724
1.0324
0.727816
0.727194
0.728248
0.730061
0.731993
0.733816
0.735325
0.73633
0.736098
0.733655
0.73101
0.730588
0.73802
0.756371
0.785097
0.812899
0.834591
0.775205
0.484648
0.433243
0.439236
0.445093
0.450834
0.457688
0.465749
0.474473
0.484339
0.49594
0.508786
0.522998
0.538689
0.555235
0.572032
0.58918
0.608434
0.631092
0.658065
0.68866
0.718558
0.754348
0.820276
0.888273
0.93578
0.965752
0.970944
0.977541
0.985219
0.989562
0.998753
1.0095
1.01593
1.01901
1.02039
1.02092
1.02144
1.02201
1.02305
1.02458
1.0264
1.03235
0.72756
0.726873
0.727889
0.729888
0.732391
0.734483
0.735906
0.736572
0.735302
0.732236
0.729914
0.7307
0.739012
0.758684
0.787968
0.814114
0.833472
0.709901
0.433617
0.435234
0.440277
0.446204
0.452173
0.459179
0.467473
0.476857
0.48726
0.498034
0.509982
0.524266
0.540749
0.558163
0.5756
0.593263
0.612863
0.635799
0.6631
0.695327
0.727862
0.760364
0.814135
0.880998
0.930531
0.958763
0.968866
0.979502
0.985111
0.991219
1.00429
1.01374
1.01793
1.01972
1.02051
1.02082
1.021
1.02111
1.02178
1.02337
1.02569
1.0326
0.727661
0.72698
0.728021
0.730284
0.733
0.734963
0.735807
0.735613
0.734013
0.731396
0.729331
0.730973
0.740418
0.761071
0.790938
0.813358
0.819285
0.614668
0.42818
0.435895
0.440684
0.44656
0.452826
0.460249
0.469259
0.478745
0.488059
0.497985
0.510572
0.526042
0.543164
0.560866
0.578835
0.597106
0.6173
0.640623
0.668007
0.701088
0.735974
0.771018
0.812508
0.867752
0.915442
0.945109
0.965947
0.978258
0.983048
0.994651
1.00945
1.01682
1.01993
1.02137
1.02167
1.02114
1.02035
1.01983
1.02034
1.0223
1.02528
1.03309
0.727794
0.727163
0.728315
0.730847
0.733204
0.734249
0.734344
0.733874
0.732823
0.731238
0.729459
0.730857
0.740869
0.762089
0.792811
0.815848
0.78415
0.505302
0.428947
0.436281
0.441689
0.447665
0.4542
0.461962
0.470673
0.479325
0.489127
0.500145
0.512886
0.528059
0.54536
0.563572
0.581799
0.600556
0.621368
0.645174
0.673128
0.706026
0.741888
0.781226
0.819014
0.86304
0.905755
0.938126
0.963475
0.974071
0.982683
0.999726
1.01276
1.01855
1.02179
1.02344
1.02337
1.02167
1.01944
1.01837
1.01899
1.02141
1.02492
1.03345
0.727593
0.727098
0.728391
0.730625
0.732165
0.732598
0.732429
0.732213
0.73207
0.731641
0.73019
0.730524
0.740123
0.761882
0.7942
0.819986
0.728553
0.438682
0.431399
0.436659
0.442428
0.448582
0.455289
0.463001
0.471878
0.48125
0.490963
0.501439
0.513897
0.529635
0.547625
0.565953
0.58451
0.603897
0.625167
0.649409
0.677902
0.710808
0.746354
0.787255
0.829369
0.866044
0.90515
0.937559
0.961026
0.971228
0.986002
1.00443
1.01411
1.01931
1.02314
1.0249
1.02455
1.0221
1.01892
1.01733
1.01793
1.0205
1.02429
1.03345
0.726857
0.726433
0.727696
0.729646
0.730716
0.730578
0.730428
0.731006
0.731849
0.732503
0.731064
0.730279
0.739052
0.761966
0.791545
0.813822
0.645926
0.425455
0.4318
0.436662
0.44249
0.448992
0.456238
0.464446
0.473605
0.482439
0.491494
0.502226
0.515782
0.531892
0.549509
0.567959
0.587047
0.607006
0.628761
0.653427
0.682425
0.71585
0.751257
0.790443
0.834267
0.873122
0.907671
0.939059
0.958344
0.97156
0.99158
1.00706
1.01425
1.01973
1.02401
1.02541
1.02449
1.02161
1.01847
1.01681
1.01718
1.01946
1.02334
1.03318
0.725778
0.725416
0.72665
0.728311
0.729058
0.728881
0.729187
0.730344
0.731956
0.733162
0.73159
0.730003
0.738549
0.763898
0.788833
0.791228
0.538161
0.425819
0.432559
0.437457
0.442955
0.449699
0.457701
0.465938
0.474176
0.482842
0.493186
0.504715
0.518079
0.533629
0.551185
0.569805
0.589136
0.609688
0.63219
0.657356
0.68647
0.720778
0.757214
0.794193
0.837202
0.878382
0.912789
0.940509
0.956462
0.97499
0.995932
1.0075
1.01382
1.01987
1.02429
1.02519
1.02387
1.02096
1.01826
1.01662
1.01668
1.01843
1.02233
1.03297
0.724532
0.724248
0.72557
0.727229
0.728079
0.728155
0.72863
0.730264
0.732194
0.7334
0.731635
0.729686
0.738983
0.766783
0.792111
0.748856
0.447387
0.427332
0.432332
0.437801
0.443811
0.450719
0.458503
0.466405
0.475231
0.484535
0.494797
0.506266
0.51961
0.535207
0.552539
0.57117
0.591083
0.612353
0.635602
0.661418
0.690549
0.725187
0.763242
0.799372
0.837394
0.88153
0.917051
0.939145
0.957296
0.979857
0.997583
1.00594
1.01258
1.0196
1.02413
1.02477
1.02333
1.0205
1.01789
1.01621
1.01618
1.01778
1.02182
1.03309
0.723385
0.723202
0.724722
0.726541
0.727657
0.728212
0.729048
0.730512
0.731721
0.732127
0.731336
0.729807
0.740666
0.767614
0.789811
0.67205
0.422486
0.428395
0.432527
0.438262
0.444596
0.45152
0.459428
0.467664
0.476302
0.485337
0.495817
0.508064
0.521798
0.536883
0.553663
0.572391
0.592749
0.614682
0.638845
0.665531
0.694769
0.728619
0.766868
0.805044
0.838657
0.879106
0.916043
0.937996
0.961424
0.983886
0.996143
1.00268
1.01116
1.01918
1.02355
1.02427
1.02305
1.02013
1.01719
1.01548
1.01559
1.01765
1.02185
1.03336
0.72271
0.722673
0.724402
0.72654
0.728102
0.729183
0.73022
0.730788
0.730047
0.729386
0.729346
0.73134
0.745132
0.766752
0.77263
0.557813
0.42187
0.429033
0.433375
0.438745
0.445365
0.45261
0.460347
0.468293
0.477194
0.487099
0.498226
0.510411
0.523589
0.538074
0.554647
0.573548
0.594485
0.61718
0.642042
0.669297
0.698639
0.730764
0.76741
0.808356
0.842364
0.875765
0.912586
0.939756
0.966485
0.984998
0.992644
1.00049
1.01064
1.01856
1.02246
1.02331
1.02238
1.01946
1.01631
1.01484
1.01526
1.01763
1.02188
1.03344
0.722685
0.722762
0.724803
0.727352
0.729456
0.730837
0.731441
0.730358
0.727769
0.725841
0.726376
0.733341
0.750546
0.769067
0.737293
0.446348
0.423027
0.428922
0.434041
0.439644
0.446195
0.45338
0.461195
0.46938
0.478523
0.488591
0.499786
0.51184
0.52485
0.5392
0.555564
0.574592
0.596171
0.619613
0.644794
0.672003
0.701289
0.732012
0.766453
0.808108
0.846485
0.878018
0.912757
0.943523
0.968663
0.981614
0.990316
1.00141
1.01119
1.01722
1.02019
1.02116
1.0206
1.01837
1.0159
1.0148
1.01536
1.01766
1.02165
1.03318
0.722293
0.72309
0.725655
0.728719
0.731062
0.732013
0.73156
0.729469
0.725265
0.722412
0.72358
0.734318
0.75112
0.761016
0.660427
0.420284
0.424054
0.428869
0.433979
0.439899
0.446707
0.453958
0.461713
0.469925
0.479283
0.48983
0.501543
0.513807
0.526491
0.540358
0.556519
0.575747
0.597975
0.622003
0.646842
0.673338
0.702698
0.733608
0.766421
0.80615
0.847796
0.881378
0.914828
0.945621
0.965986
0.977368
0.990809
1.00405
1.01191
1.0152
1.01695
1.01804
1.01803
1.01706
1.01592
1.0153
1.01573
1.01755
1.02106
1.0327
0.721211
0.722546
0.725745
0.729261
0.731688
0.732495
0.731501
0.728269
0.723388
0.720095
0.721367
0.732255
0.7468
0.730321
0.533904
0.419476
0.42483
0.429315
0.434131
0.440082
0.447076
0.454522
0.462427
0.470855
0.480472
0.4913
0.5031
0.515158
0.527563
0.541415
0.557768
0.577217
0.599737
0.62381
0.647932
0.673677
0.703098
0.735665
0.768894
0.804584
0.846543
0.883402
0.915944
0.943914
0.961678
0.977307
0.994481
1.00603
1.0108
1.01216
1.01365
1.01502
1.01581
1.01602
1.01604
1.01602
1.01628
1.01744
1.02054
1.03234
0.718903
0.72086
0.724924
0.729148
0.732011
0.732637
0.731075
0.727283
0.722446
0.718875
0.719735
0.726227
0.734515
0.660442
0.435107
0.421076
0.425233
0.429914
0.434435
0.440302
0.44736
0.45496
0.463065
0.47172
0.48152
0.492373
0.504005
0.516055
0.528658
0.5427
0.559233
0.578749
0.600979
0.624611
0.648589
0.674088
0.703363
0.737708
0.77291
0.804618
0.842783
0.882057
0.913281
0.939159
0.960316
0.982099
0.99858
1.00565
1.00723
1.00869
1.01086
1.01283
1.01434
1.01535
1.01598
1.01635
1.01679
1.01768
1.02047
1.03225
0.715853
0.718185
0.723064
0.728175
0.731431
0.732165
0.730489
0.726944
0.72264
0.71869
0.717635
0.719079
0.698715
0.566588
0.421641
0.420897
0.425276
0.430097
0.434918
0.440924
0.447837
0.455409
0.463688
0.472544
0.482612
0.493703
0.505266
0.517097
0.529646
0.543983
0.560975
0.580451
0.601802
0.624874
0.649305
0.675211
0.704316
0.73929
0.77525
0.80718
0.84107
0.876797
0.908087
0.936617
0.963906
0.987314
0.999952
1.00213
1.0027
1.00552
1.00895
1.01156
1.01343
1.01479
1.01581
1.01641
1.01707
1.01824
1.02082
1.0323
0.71436
0.716709
0.721808
0.727325
0.730845
0.731639
0.73004
0.726529
0.723136
0.718657
0.715423
0.706497
0.648209
0.528381
0.421173
0.42117
0.425456
0.430243
0.435256
0.441445
0.448115
0.45562
0.464199
0.473402
0.483629
0.494692
0.506174
0.51804
0.53079
0.545469
0.562764
0.581937
0.602098
0.624327
0.649673
0.677149
0.706617
0.740457
0.774351
0.809994
0.84054
0.874673
0.907093
0.937682
0.966721
0.987707
0.995289
0.997229
1.00038
1.00443
1.00801
1.01061
1.01262
1.01438
1.01577
1.01676
1.01765
1.01874
1.02099
1.03217
0.718995
0.720782
0.724584
0.72897
0.732109
0.732494
0.72998
0.72624
0.722857
0.717806
0.711365
0.685132
0.612776
0.523285
0.421389
0.421284
0.425524
0.430297
0.435286
0.441708
0.448622
0.456136
0.464769
0.474139
0.484424
0.495383
0.506831
0.518928
0.532059
0.547004
0.564153
0.582709
0.602188
0.623916
0.649741
0.679096
0.709133
0.741364
0.771838
0.809454
0.843879
0.875428
0.90733
0.937614
0.963901
0.978758
0.985919
0.993091
1.00005
1.00475
1.00746
1.00955
1.01184
1.01427
1.01629
1.01753
1.0182
1.01889
1.02082
1.03188
0.74035
0.742287
0.746086
0.748892
0.748756