/*--------------------------------*- C++ -*----------------------------------*\
  =========                 |
  \\      /  F ield         | OpenFOAM: The Open Source CFD Toolbox
   \\    /   O peration     | Website:  https://openfoam.org
    \\  /    A nd           | Version:  7
     \\/     M anipulation  |
\*---------------------------------------------------------------------------*/
FoamFile
{
    version     2.0;
    format      ascii;
    class       volVectorField;
    location    "0.2";
    object      U;
}
// * * * * * * * * * * * * * * * * * * * * * * * * * * * * * * * * * * * * * //

dimensions      [0 1 -1 0 0 0 0];

internalField   nonuniform List<vector> 
103200
(
(0.663094 0.0964391 0)
(0.791079 0.0359765 0)
(0.88343 0.0162885 0)
(0.884418 0.0145757 0)
(0.880154 0.012624 0)
(0.890476 0.0155536 0)
(0.913976 0.0231076 0)
(0.94242 0.0356701 0)
(0.966164 0.0476232 0)
(0.983438 0.0555785 0)
(0.995702 0.0612892 0)
(1.0053 0.0656323 0)
(1.01276 0.0710348 0)
(1.01516 0.076814 0)
(1.01044 0.0819468 0)
(1.00193 0.0850608 0)
(0.988441 0.0889724 0)
(0.969128 0.0891092 0)
(0.952819 0.0883708 0)
(0.946307 0.0983524 0)
(0.960597 0.113503 0)
(1.00071 0.135517 0)
(1.06469 0.159101 0)
(1.14713 0.183645 0)
(1.24405 0.21663 0)
(1.33232 0.244476 0)
(1.42157 0.27 0)
(1.50772 0.306741 0)
(1.58688 0.330972 0)
(1.66203 0.35994 0)
(1.73212 0.390273 0)
(1.79637 0.426341 0)
(1.8283 0.467914 0)
(1.85695 0.49139 0)
(1.89213 0.517787 0)
(1.89585 0.573068 0)
(1.86644 0.61121 0)
(1.84109 0.651414 0)
(1.82955 0.68535 0)
(1.79183 0.706384 0)
(1.76048 0.741315 0)
(1.74542 0.763362 0)
(1.70524 0.784193 0)
(1.65464 0.792227 0)
(1.55615 0.793658 0)
(1.4235 0.786387 0)
(1.32496 0.780571 0)
(1.2627 0.728542 0)
(1.07724 0.466624 0)
(0.973566 0.386443 0)
(0.969107 0.350547 0)
(0.96799 0.321163 0)
(0.971894 0.296414 0)
(0.972059 0.266383 0)
(0.968485 0.241543 0)
(0.967582 0.221511 0)
(0.970562 0.202278 0)
(0.977918 0.182082 0)
(0.990853 0.158735 0)
(1.00364 0.125099 0)
(0.0820541 -0.24372 0)
(0.202423 -0.00405186 0)
(0.359673 0.0181124 0)
(0.414605 0.0166137 0)
(0.447161 0.0231467 0)
(0.477585 0.0330201 0)
(0.512637 0.0444975 0)
(0.548698 0.0531566 0)
(0.580802 0.0592591 0)
(0.607844 0.0625742 0)
(0.63068 0.0637688 0)
(0.649492 0.0665835 0)
(0.663781 0.0715231 0)
(0.671607 0.0776224 0)
(0.673525 0.0850638 0)
(0.673183 0.0940345 0)
(0.671485 0.10146 0)
(0.665748 0.107314 0)
(0.663125 0.116408 0)
(0.678505 0.117943 0)
(0.717038 0.12149 0)
(0.784159 0.129684 0)
(0.878527 0.140784 0)
(0.988491 0.165218 0)
(1.10826 0.203881 0)
(1.21873 0.234532 0)
(1.31934 0.263649 0)
(1.41428 0.298107 0)
(1.50135 0.330178 0)
(1.5839 0.35896 0)
(1.6649 0.387994 0)
(1.73816 0.422652 0)
(1.79055 0.469665 0)
(1.83142 0.497248 0)
(1.88441 0.523772 0)
(1.9018 0.583272 0)
(1.87019 0.628938 0)
(1.85509 0.664516 0)
(1.83684 0.697917 0)
(1.79994 0.719154 0)
(1.76559 0.754021 0)
(1.751 0.777301 0)
(1.71002 0.798771 0)
(1.6582 0.807923 0)
(1.55597 0.803385 0)
(1.41881 0.788763 0)
(1.322 0.796657 0)
(1.23586 0.672378 0)
(1.01462 0.432837 0)
(0.965758 0.383367 0)
(0.961375 0.349642 0)
(0.961121 0.323116 0)
(0.965206 0.298467 0)
(0.966073 0.268331 0)
(0.963081 0.242992 0)
(0.96222 0.224328 0)
(0.965092 0.205162 0)
(0.972195 0.184771 0)
(0.984658 0.1615 0)
(0.99912 0.12648 0)
(-0.0484666 -0.198209 0)
(-0.0259094 -0.0569144 0)
(0.0633738 -0.0278097 0)
(0.108818 -0.00531425 0)
(0.143872 0.00554697 0)
(0.177069 0.0149464 0)
(0.209087 0.0238462 0)
(0.238894 0.0315164 0)
(0.267511 0.0368566 0)
(0.294345 0.0415882 0)
(0.318937 0.0493196 0)
(0.339974 0.0614832 0)
(0.356129 0.0733573 0)
(0.367877 0.0827029 0)
(0.377608 0.0903032 0)
(0.388126 0.0955028 0)
(0.399259 0.0997738 0)
(0.412471 0.103793 0)
(0.434337 0.0996228 0)
(0.474495 0.0984379 0)
(0.540482 0.101716 0)
(0.634227 0.104431 0)
(0.751253 0.121248 0)
(0.878585 0.150419 0)
(1.01176 0.18491 0)
(1.13052 0.222989 0)
(1.23616 0.256006 0)
(1.33437 0.286468 0)
(1.42295 0.320233 0)
(1.50593 0.348785 0)
(1.58881 0.375831 0)
(1.66742 0.407943 0)
(1.73811 0.453956 0)
(1.79593 0.48642 0)
(1.86486 0.517054 0)
(1.89352 0.585825 0)
(1.87305 0.643277 0)
(1.87243 0.669249 0)
(1.84737 0.700867 0)
(1.81044 0.722927 0)
(1.77283 0.755644 0)
(1.7517 0.788483 0)
(1.71451 0.808957 0)
(1.66003 0.818278 0)
(1.55038 0.803576 0)
(1.41166 0.792584 0)
(1.31671 0.820342 0)
(1.19 0.59228 0)
(0.977383 0.419733 0)
(0.958456 0.379529 0)
(0.954655 0.352009 0)
(0.9545 0.325759 0)
(0.958591 0.300528 0)
(0.959872 0.270602 0)
(0.957561 0.244237 0)
(0.956888 0.225364 0)
(0.959715 0.205777 0)
(0.96649 0.185648 0)
(0.978728 0.16287 0)
(0.994366 0.128086 0)
(-0.052139 -0.140173 0)
(-0.0563104 -0.072407 0)
(-0.0448734 -0.0257384 0)
(-0.0290226 -0.00523317 0)
(-0.0108403 0.00455227 0)
(0.00927102 0.0122844 0)
(0.0292635 0.0168751 0)
(0.0480229 0.0216476 0)
(0.0677446 0.0287453 0)
(0.0883734 0.0414893 0)
(0.110069 0.0579486 0)
(0.129321 0.0713246 0)
(0.145379 0.0787675 0)
(0.160795 0.0833477 0)
(0.178 0.0877989 0)
(0.198444 0.0965739 0)
(0.223047 0.105944 0)
(0.251628 0.102242 0)
(0.293593 0.10332 0)
(0.352672 0.0896751 0)
(0.440103 0.0765445 0)
(0.551449 0.0790477 0)
(0.687924 0.0833677 0)
(0.822811 0.116678 0)
(0.95667 0.158335 0)
(1.07172 0.201561 0)
(1.17751 0.245147 0)
(1.27771 0.281198 0)
(1.35997 0.31815 0)
(1.4376 0.348506 0)
(1.51467 0.37353 0)
(1.592 0.401145 0)
(1.67265 0.442537 0)
(1.74494 0.481062 0)
(1.82488 0.5226 0)
(1.86613 0.596033 0)
(1.87354 0.656429 0)
(1.88833 0.683777 0)
(1.85858 0.716271 0)
(1.81773 0.729319 0)
(1.77806 0.755963 0)
(1.75231 0.78591 0)
(1.71757 0.806851 0)
(1.65766 0.821561 0)
(1.55581 0.80239 0)
(1.40218 0.813953 0)
(1.31296 0.822887 0)
(1.09576 0.513561 0)
(0.958665 0.410346 0)
(0.951906 0.37785 0)
(0.947953 0.355171 0)
(0.947738 0.328772 0)
(0.951914 0.302024 0)
(0.953286 0.272059 0)
(0.951747 0.244666 0)
(0.951709 0.224028 0)
(0.954817 0.203092 0)
(0.961375 0.183089 0)
(0.973265 0.16343 0)
(0.989723 0.130047 0)
(-0.0388524 -0.103745 0)
(-0.0557129 -0.073901 0)
(-0.0710303 -0.0481973 0)
(-0.0731384 -0.0302619 0)
(-0.0684979 -0.0180242 0)
(-0.0603293 -0.00708354 0)
(-0.0518575 0.0040516 0)
(-0.0423594 0.018841 0)
(-0.0293103 0.036304 0)
(-0.013553 0.0529995 0)
(0.00285133 0.063522 0)
(0.0189721 0.0665798 0)
(0.0358568 0.0673847 0)
(0.0539669 0.0715925 0)
(0.0756341 0.0820905 0)
(0.103422 0.0936028 0)
(0.134415 0.0986934 0)
(0.172455 0.102648 0)
(0.223687 0.0823792 0)
(0.293574 0.0566805 0)
(0.390441 0.0441258 0)
(0.512967 0.0383734 0)
(0.647282 0.0497931 0)
(0.783761 0.0858863 0)
(0.913124 0.135818 0)
(1.02799 0.177765 0)
(1.13517 0.228293 0)
(1.23937 0.269737 0)
(1.31749 0.304743 0)
(1.38695 0.336079 0)
(1.45596 0.361384 0)
(1.52635 0.387376 0)
(1.60639 0.42198 0)
(1.68598 0.46413 0)
(1.76866 0.517928 0)
(1.82828 0.597891 0)
(1.86377 0.666366 0)
(1.89577 0.69732 0)
(1.87607 0.722342 0)
(1.82296 0.732239 0)
(1.78629 0.754374 0)
(1.76489 0.786704 0)
(1.72684 0.812746 0)
(1.6643 0.832715 0)
(1.56693 0.811459 0)
(1.39596 0.847781 0)
(1.30031 0.772499 0)
(1.01682 0.465697 0)
(0.949586 0.405336 0)
(0.945837 0.379657 0)
(0.940504 0.357711 0)
(0.940246 0.330514 0)
(0.945022 0.301842 0)
(0.946444 0.271801 0)
(0.94561 0.244244 0)
(0.946313 0.221821 0)
(0.949908 0.200574 0)
(0.956566 0.181933 0)
(0.968159 0.164376 0)
(0.985234 0.131662 0)
(-0.0287187 -0.0839543 0)
(-0.0570737 -0.0729017 0)
(-0.0780725 -0.0568822 0)
(-0.0848598 -0.0381247 0)
(-0.0853287 -0.018342 0)
(-0.0809399 0.0024843 0)
(-0.0757402 0.022812 0)
(-0.0699289 0.0386781 0)
(-0.0629272 0.0489819 0)
(-0.0527746 0.0532169 0)
(-0.0394628 0.0542021 0)
(-0.0236286 0.0557841 0)
(-0.00565274 0.0620822 0)
(0.0150753 0.0738615 0)
(0.0389416 0.0871985 0)
(0.0662824 0.0937043 0)
(0.0979842 0.0987386 0)
(0.139241 0.0835968 0)
(0.185541 0.06187 0)
(0.254249 0.0358523 0)
(0.352185 0.0134452 0)
(0.471616 0.00379326 0)
(0.599624 0.0127446 0)
(0.733424 0.0503383 0)
(0.858475 0.103195 0)
(0.976813 0.153889 0)
(1.09205 0.206014 0)
(1.20119 0.255119 0)
(1.28278 0.292485 0)
(1.34966 0.323591 0)
(1.41192 0.351919 0)
(1.47504 0.380987 0)
(1.54579 0.411796 0)
(1.62372 0.458618 0)
(1.70385 0.517867 0)
(1.78378 0.594055 0)
(1.84218 0.66701 0)
(1.88645 0.719234 0)
(1.89011 0.745059 0)
(1.83119 0.747292 0)
(1.79232 0.762758 0)
(1.77001 0.786006 0)
(1.72907 0.816287 0)
(1.66451 0.84294 0)
(1.57302 0.825391 0)
(1.40265 0.886514 0)
(1.24569 0.66734 0)
(0.968832 0.437876 0)
(0.944644 0.406534 0)
(0.939277 0.383371 0)
(0.933032 0.35734 0)
(0.932343 0.330492 0)
(0.937573 0.300652 0)
(0.939298 0.270009 0)
(0.939568 0.24301 0)
(0.94117 0.220488 0)
(0.945442 0.200068 0)
(0.952381 0.182196 0)
(0.963345 0.165818 0)
(0.980707 0.132381 0)
(-0.022955 -0.069676 0)
(-0.0555165 -0.0671959 0)
(-0.0788397 -0.0541975 0)
(-0.083996 -0.0323921 0)
(-0.083769 -0.00536151 0)
(-0.0808756 0.0208611 0)
(-0.0801687 0.0353009 0)
(-0.0783749 0.0411601 0)
(-0.072801 0.0428981 0)
(-0.0632696 0.044223 0)
(-0.0499772 0.0473814 0)
(-0.0332984 0.0534176 0)
(-0.0147574 0.0633221 0)
(0.00506953 0.0745083 0)
(0.0277678 0.0822139 0)
(0.0520448 0.0908415 0)
(0.0834375 0.0864423 0)
(0.114852 0.0757931 0)
(0.156094 0.0472141 0)
(0.219925 0.0121947 0)
(0.306138 -0.0177627 0)
(0.409994 -0.035868 0)
(0.523567 -0.0280966 0)
(0.643823 0.0120449 0)
(0.764566 0.0661166 0)
(0.889334 0.121529 0)
(1.01751 0.176904 0)
(1.13838 0.226762 0)
(1.23735 0.270202 0)
(1.31749 0.301953 0)
(1.38237 0.331163 0)
(1.43765 0.369862 0)
(1.4977 0.403295 0)
(1.56926 0.448312 0)
(1.64176 0.508496 0)
(1.73315 0.584018 0)
(1.80754 0.661941 0)
(1.86621 0.724548 0)
(1.89398 0.752792 0)
(1.84595 0.760958 0)
(1.79993 0.770022 0)
(1.77346 0.793899 0)
(1.72604 0.828603 0)
(1.66749 0.847948 0)
(1.57155 0.847789 0)
(1.41004 0.918846 0)
(1.1134 0.573656 0)
(0.944622 0.428088 0)
(0.93926 0.410133 0)
(0.931247 0.387016 0)
(0.925137 0.355 0)
(0.924251 0.329043 0)
(0.930122 0.298683 0)
(0.932236 0.26791 0)
(0.933736 0.242194 0)
(0.936207 0.22095 0)
(0.941012 0.201554 0)
(0.947909 0.183634 0)
(0.958263 0.166633 0)
(0.975955 0.13222 0)
(-0.0189798 -0.0591952 0)
(-0.0517084 -0.0566931 0)
(-0.0731957 -0.042121 0)
(-0.0777539 -0.0156045 0)
(-0.0770435 0.012981 0)
(-0.0784962 0.0301762 0)
(-0.0811537 0.0346016 0)
(-0.0800825 0.0353465 0)
(-0.074971 0.0376836 0)
(-0.0640436 0.0417793 0)
(-0.0496749 0.0472508 0)
(-0.0334218 0.0545123 0)
(-0.0159427 0.0619088 0)
(0.0027207 0.0700268 0)
(0.0223148 0.0792531 0)
(0.0448192 0.0844512 0)
(0.0685056 0.0866869 0)
(0.0923817 0.06759 0)
(0.125813 0.0359205 0)
(0.176098 -0.00619227 0)
(0.241319 -0.0451632 0)
(0.31924 -0.0656081 0)
(0.409605 -0.0528093 0)
(0.50651 -0.00788569 0)
(0.612019 0.0520477 0)
(0.733842 0.100052 0)
(0.869635 0.147382 0)
(1.00885 0.190418 0)
(1.14251 0.23816 0)
(1.25544 0.283329 0)
(1.34332 0.320421 0)
(1.40381 0.36161 0)
(1.45802 0.402374 0)
(1.5198 0.445913 0)
(1.58698 0.503939 0)
(1.68047 0.565711 0)
(1.76796 0.639625 0)
(1.83181 0.73201 0)
(1.88228 0.780815 0)
(1.86194 0.776118 0)
(1.80672 0.781037 0)
(1.78124 0.799193 0)
(1.73059 0.836881 0)
(1.68078 0.849333 0)
(1.56256 0.878346 0)
(1.41688 0.901823 0)
(1.02165 0.499274 0)
(0.936331 0.429114 0)
(0.932784 0.41525 0)
(0.923565 0.386978 0)
(0.917061 0.351328 0)
(0.916363 0.32651 0)
(0.92289 0.296682 0)
(0.925654 0.265887 0)
(0.927897 0.242597 0)
(0.9308 0.222392 0)
(0.935795 0.203761 0)
(0.942757 0.184175 0)
(0.95303 0.165668 0)
(0.971042 0.131741 0)
(-0.0160872 -0.0470746 0)
(-0.0461003 -0.0423485 0)
(-0.0632653 -0.0224675 0)
(-0.0676596 0.00408225 0)
(-0.0715442 0.0227778 0)
(-0.07824 0.0291146 0)
(-0.0822431 0.0312364 0)
(-0.0803541 0.033291 0)
(-0.0740968 0.0378527 0)
(-0.0625781 0.0433067 0)
(-0.0482732 0.0476592 0)
(-0.033096 0.0512093 0)
(-0.016891 0.0575731 0)
(0.000161594 0.0677518 0)
(0.0176393 0.0794016 0)
(0.0354036 0.0880066 0)
(0.0518405 0.0842194 0)
(0.067409 0.065837 0)
(0.0897111 0.0283006 0)
(0.122952 -0.0193752 0)
(0.163051 -0.0625235 0)
(0.212042 -0.0907266 0)
(0.272947 -0.0829792 0)
(0.339744 -0.0422969 0)
(0.414929 0.00763966 0)
(0.513393 0.047589 0)
(0.64014 0.0938449 0)
(0.792692 0.143039 0)
(0.963465 0.19685 0)
(1.12757 0.250982 0)
(1.26594 0.304111 0)
(1.35778 0.346246 0)
(1.41889 0.395383 0)
(1.47702 0.439732 0)
(1.53938 0.492377 0)
(1.62511 0.549489 0)
(1.72252 0.614832 0)
(1.79552 0.716633 0)
(1.86234 0.786673 0)
(1.86975 0.791027 0)
(1.81496 0.790093 0)
(1.78839 0.805731 0)
(1.73639 0.844243 0)
(1.69267 0.853426 0)
(1.56043 0.898168 0)
(1.40773 0.788685 0)
(0.976262 0.459674 0)
(0.931622 0.435341 0)
(0.924674 0.418925 0)
(0.914613 0.384183 0)
(0.908607 0.348277 0)
(0.908448 0.324675 0)
(0.915171 0.29622 0)
(0.918863 0.265359 0)
(0.922229 0.242733 0)
(0.925625 0.222453 0)
(0.930669 0.2034 0)
(0.937347 0.182707 0)
(0.947576 0.16341 0)
(0.966295 0.13176 0)
(-0.013305 -0.0342846 0)
(-0.0391357 -0.0249063 0)
(-0.0521722 -0.00362906 0)
(-0.0593464 0.015398 0)
(-0.0682702 0.025164 0)
(-0.0778239 0.0277318 0)
(-0.0808082 0.0308306 0)
(-0.0788871 0.0351704 0)
(-0.0713659 0.040256 0)
(-0.0601976 0.0431203 0)
(-0.0474682 0.0446977 0)
(-0.0331464 0.0479168 0)
(-0.0178165 0.0564214 0)
(-0.00211958 0.0696943 0)
(0.0109997 0.0829828 0)
(0.0225155 0.0893629 0)
(0.0327831 0.0851125 0)
(0.0395772 0.0626484 0)
(0.0510991 0.0226535 0)
(0.0670538 -0.0286821 0)
(0.080762 -0.0756662 0)
(0.0981748 -0.0962958 0)
(0.122892 -0.0917397 0)
(0.156231 -0.0537409 0)
(0.187659 -0.000818225 0)
(0.251397 0.0276608 0)
(0.360468 0.0590859 0)
(0.516664 0.0970255 0)
(0.712339 0.148135 0)
(0.924188 0.205272 0)
(1.11841 0.277881 0)
(1.26578 0.326251 0)
(1.36318 0.378396 0)
(1.43242 0.431227 0)
(1.49251 0.481604 0)
(1.57258 0.529889 0)
(1.67458 0.58889 0)
(1.75466 0.699412 0)
(1.83271 0.801283 0)
(1.86886 0.817044 0)
(1.82683 0.799796 0)
(1.79584 0.811173 0)
(1.74381 0.844735 0)
(1.70731 0.851288 0)
(1.57866 0.910372 0)
(1.26419 0.635597 0)
(0.94158 0.453253 0)
(0.924319 0.44249 0)
(0.915742 0.418035 0)
(0.905245 0.380365 0)
(0.899742 0.347921 0)
(0.9006 0.323773 0)
(0.907527 0.295878 0)
(0.912282 0.264906 0)
(0.916884 0.241735 0)
(0.920281 0.220311 0)
(0.925086 0.200895 0)
(0.931779 0.179737 0)
(0.942339 0.16226 0)
(0.962038 0.132513 0)
(-0.0109503 -0.0196919 0)
(-0.0312813 -0.0087833 0)
(-0.0439442 0.00749141 0)
(-0.0537821 0.020761 0)
(-0.0657406 0.0254365 0)
(-0.0755619 0.0274918 0)
(-0.077151 0.0320236 0)
(-0.0748061 0.0370681 0)
(-0.0676526 0.0407794 0)
(-0.0579843 0.0418964 0)
(-0.0462558 0.04286 0)
(-0.0328388 0.0476933 0)
(-0.0186486 0.0584885 0)
(-0.00583703 0.0736019 0)
(0.00231818 0.0872847 0)
(0.00810614 0.0919651 0)
(0.0112288 0.0844584 0)
(0.0116778 0.061796 0)
(0.0138373 0.0219102 0)
(0.0119499 -0.0284551 0)
(0.00128872 -0.0741335 0)
(-0.0100012 -0.10047 0)
(-0.0190771 -0.105243 0)
(-0.0163551 -0.071996 0)
(-0.0251628 -0.0284913 0)
(0.000314553 -0.0101595 0)
(0.0844662 0.0168556 0)
(0.229484 0.0476937 0)
(0.42771 0.0869342 0)
(0.661873 0.14167 0)
(0.903688 0.206207 0)
(1.1086 0.286085 0)
(1.2674 0.343195 0)
(1.3735 0.411482 0)
(1.44365 0.463705 0)
(1.52145 0.511783 0)
(1.62301 0.572428 0)
(1.71444 0.678684 0)
(1.802 0.793748 0)
(1.85323 0.85054 0)
(1.83897 0.82213 0)
(1.79905 0.822623 0)
(1.74941 0.83461 0)
(1.71352 0.845398 0)
(1.5863 0.919581 0)
(1.1176 0.536104 0)
(0.925037 0.461281 0)
(0.916379 0.445068 0)
(0.906403 0.412134 0)
(0.896194 0.378586 0)
(0.890686 0.349333 0)
(0.893014 0.323081 0)
(0.900628 0.294402 0)
(0.906115 0.263162 0)
(0.911094 0.239184 0)
(0.914337 0.216602 0)
(0.919646 0.196537 0)
(0.926951 0.177448 0)
(0.937871 0.162231 0)
(0.958013 0.133131 0)
(-0.00907722 -0.0049363 0)
(-0.0253084 0.0022507 0)
(-0.0382354 0.0141509 0)
(-0.0502346 0.0228075 0)
(-0.0636003 0.0241204 0)
(-0.0712758 0.0281336 0)
(-0.072914 0.0342738 0)
(-0.0702815 0.0391748 0)
(-0.0639942 0.0423588 0)
(-0.0556203 0.0428095 0)
(-0.0448664 0.0439681 0)
(-0.0326448 0.0500704 0)
(-0.0201325 0.0620506 0)
(-0.0111386 0.0780077 0)
(-0.00750154 0.0892788 0)
(-0.00690474 0.0917146 0)
(-0.00987306 0.0867876 0)
(-0.0135094 0.067457 0)
(-0.0199345 0.0293254 0)
(-0.037727 -0.0207099 0)
(-0.0678283 -0.0678861 0)
(-0.103257 -0.0989192 0)
(-0.139913 -0.0998982 0)
(-0.161406 -0.0643346 0)
(-0.200183 -0.0215293 0)
(-0.211961 -0.0110181 0)
(-0.155442 -0.00957844 0)
(-0.0309816 -0.00558092 0)
(0.151647 0.014561 0)
(0.384126 0.058088 0)
(0.643619 0.130944 0)
(0.902734 0.218092 0)
(1.12642 0.294264 0)
(1.28796 0.383585 0)
(1.38393 0.44943 0)
(1.46927 0.497095 0)
(1.57033 0.566426 0)
(1.66547 0.681319 0)
(1.76659 0.788485 0)
(1.8322 0.857967 0)
(1.84398 0.84944 0)
(1.79812 0.841937 0)
(1.75451 0.834346 0)
(1.7 0.853246 0)
(1.58437 0.864605 0)
(1.04656 0.484179 0)
(0.922663 0.464528 0)
(0.908969 0.443862 0)
(0.89716 0.4076 0)
(0.887131 0.379021 0)
(0.881733 0.350464 0)
(0.885738 0.321608 0)
(0.893608 0.29098 0)
(0.89951 0.260037 0)
(0.904838 0.23623 0)
(0.908886 0.213306 0)
(0.91495 0.194202 0)
(0.922825 0.177003 0)
(0.933608 0.16325 0)
(0.953775 0.133166 0)
(-0.00796058 0.00559298 0)
(-0.0215142 0.00967379 0)
(-0.0345365 0.0177574 0)
(-0.0486356 0.0222003 0)
(-0.0612577 0.0242865 0)
(-0.0665801 0.0306575 0)
(-0.0684922 0.0373066 0)
(-0.0659114 0.0422331 0)
(-0.0603947 0.0456017 0)
(-0.053116 0.0457683 0)
(-0.0437338 0.0467771 0)
(-0.0327691 0.052915 0)
(-0.0230309 0.0648863 0)
(-0.0181182 0.0788207 0)
(-0.0176886 0.089395 0)
(-0.0204424 0.0945955 0)
(-0.0274568 0.0947818 0)
(-0.0353567 0.0785937 0)
(-0.0503324 0.0401434 0)
(-0.0795745 -0.0100736 0)
(-0.12326 -0.0565073 0)
(-0.174682 -0.0917923 0)
(-0.228321 -0.0993481 0)
(-0.269309 -0.0626084 0)
(-0.331823 -0.0252468 0)
(-0.375064 -0.0255753 0)
(-0.341856 -0.0641406 0)
(-0.241814 -0.0775721 0)
(-0.0840357 -0.0655749 0)
(0.128581 -0.0253548 0)
(0.390703 0.0381427 0)
(0.674546 0.144648 0)
(0.955126 0.23281 0)
(1.17485 0.344819 0)
(1.30944 0.432765 0)
(1.41334 0.489464 0)
(1.51775 0.565211 0)
(1.6151 0.677745 0)
(1.72742 0.776166 0)
(1.7958 0.873986 0)
(1.83435 0.880736 0)
(1.7966 0.870851 0)
(1.76116 0.846461 0)
(1.70191 0.878997 0)
(1.60063 0.713082 0)
(0.997597 0.496744 0)
(0.920481 0.472301 0)
(0.901373 0.441822 0)
(0.889015 0.408019 0)
(0.878162 0.380064 0)
(0.873211 0.349959 0)
(0.878173 0.318266 0)
(0.88597 0.285925 0)
(0.892897 0.256843 0)
(0.898848 0.234279 0)
(0.903833 0.212303 0)
(0.910821 0.194425 0)
(0.918703 0.177847 0)
(0.929284 0.163133 0)
(0.949371 0.132017 0)
(-0.00728586 0.0127354 0)
(-0.0190787 0.0149131 0)
(-0.0328879 0.0194973 0)
(-0.0475756 0.022468 0)
(-0.0583346 0.0274828 0)
(-0.0622188 0.0352818 0)
(-0.0640759 0.0423651 0)
(-0.0617911 0.0478414 0)
(-0.0570871 0.0510089 0)
(-0.0514931 0.0492619 0)
(-0.0432171 0.0492988 0)
(-0.0341183 0.0542871 0)
(-0.0273073 0.064512 0)
(-0.0258596 0.0784348 0)
(-0.026576 0.0923459 0)
(-0.0307844 0.103045 0)
(-0.041751 0.107214 0)
(-0.055102 0.0912079 0)
(-0.0772636 0.0508263 0)
(-0.113516 0.000949166 0)
(-0.163605 -0.0415216 0)
(-0.221473 -0.0735789 0)
(-0.283326 -0.081652 0)
(-0.342023 -0.0440071 0)
(-0.430231 -0.0187496 0)
(-0.500955 -0.0487958 0)
(-0.486842 -0.107252 0)
(-0.407627 -0.135263 0)
(-0.275407 -0.135124 0)
(-0.0874261 -0.105402 0)
(0.15776 -0.0412674 0)
(0.450037 0.0564053 0)
(0.757367 0.171023 0)
(1.02964 0.294728 0)
(1.21444 0.409876 0)
(1.3505 0.47874 0)
(1.46168 0.565517 0)
(1.56105 0.675689 0)
(1.67597 0.772703 0)
(1.76682 0.862825 0)
(1.82173 0.895204 0)
(1.79072 0.908605 0)
(1.76952 0.869768 0)
(1.70413 0.901015 0)
(1.4501 0.62109 0)
(0.955183 0.508204 0)
(0.912154 0.478037 0)
(0.892079 0.441844 0)
(0.879708 0.412343 0)
(0.869065 0.380002 0)
(0.86445 0.346853 0)
(0.870049 0.31392 0)
(0.879034 0.281189 0)
(0.886821 0.25525 0)
(0.89301 0.234601 0)
(0.898757 0.213622 0)
(0.906259 0.195868 0)
(0.914629 0.177535 0)
(0.924834 0.161486 0)
(0.944756 0.130094 0)
(-0.00685504 0.0181914 0)
(-0.0179696 0.0188784 0)
(-0.0322337 0.0215595 0)
(-0.0464533 0.0259558 0)
(-0.0543747 0.0336981 0)
(-0.0578714 0.0426739 0)
(-0.0593244 0.050959 0)
(-0.0579186 0.055972 0)
(-0.054952 0.0554966 0)
(-0.0506869 0.0516821 0)
(-0.0437386 0.0493556 0)
(-0.0366313 0.0526114 0)
(-0.0327147 0.0629251 0)
(-0.0323029 0.0808287 0)
(-0.0323845 0.0999541 0)
(-0.0388664 0.115761 0)
(-0.0542923 0.120865 0)
(-0.0735417 0.102898 0)
(-0.100945 0.0596864 0)
(-0.13942 0.0130686 0)
(-0.189034 -0.021771 0)
(-0.248523 -0.051221 0)
(-0.313953 -0.0643102 0)
(-0.388753 -0.0378018 0)
(-0.505884 -0.0288454 0)
(-0.598868 -0.0785543 0)
(-0.593556 -0.153712 0)
(-0.530626 -0.188488 0)
(-0.42553 -0.19734 0)
(-0.269235 -0.17541 0)
(-0.0495475 -0.119717 0)
(0.228028 -0.0248814 0)
(0.54091 0.0996588 0)
(0.850323 0.23243 0)
(1.09372 0.365861 0)
(1.2766 0.45535 0)
(1.40557 0.554411 0)
(1.5061 0.656185 0)
(1.62546 0.747331 0)
(1.72669 0.862542 0)
(1.80011 0.914409 0)
(1.78612 0.924791 0)
(1.77736 0.892141 0)
(1.7058 0.935305 0)
(1.30598 0.577079 0)
(0.9264 0.510019 0)
(0.899959 0.476777 0)
(0.882984 0.445113 0)
(0.869752 0.416254 0)
(0.858999 0.377534 0)
(0.855025 0.34252 0)
(0.862371 0.310009 0)
(0.872682 0.278851 0)
(0.880612 0.254738 0)
(0.887103 0.234313 0)
(0.893415 0.214283 0)
(0.901842 0.195662 0)
(0.910213 0.17523 0)
(0.92017 0.158072 0)
(0.940328 0.129037 0)
(-0.00664766 0.0233625 0)
(-0.017541 0.0239338 0)
(-0.0316347 0.0267396 0)
(-0.0438385 0.0332884 0)
(-0.050105 0.0434049 0)
(-0.0529419 0.0540119 0)
(-0.054959 0.0607989 0)
(-0.0555408 0.0617862 0)
(-0.0539154 0.0580051 0)
(-0.0510623 0.0509455 0)
(-0.0452057 0.0471433 0)
(-0.0399136 0.05072 0)
(-0.0373191 0.0645292 0)
(-0.0362691 0.0875074 0)
(-0.0365818 0.111707 0)
(-0.0461618 0.12963 0)
(-0.0661463 0.13345 0)
(-0.0904998 0.110963 0)
(-0.120631 0.0685358 0)
(-0.156619 0.0287506 0)
(-0.201178 0.00166121 0)
(-0.258332 -0.0251811 0)
(-0.326164 -0.0405251 0)
(-0.415511 -0.026158 0)
(-0.565651 -0.0327945 0)
(-0.678158 -0.118498 0)
(-0.672216 -0.199213 0)
(-0.622436 -0.234657 0)
(-0.54307 -0.254159 0)
(-0.418903 -0.247166 0)
(-0.231122 -0.202365 0)
(0.0215574 -0.12433 0)
(0.324303 0.00331715 0)
(0.651232 0.156432 0)
(0.948738 0.305564 0)
(1.18677 0.414557 0)
(1.34116 0.524729 0)
(1.44862 0.625889 0)
(1.57144 0.719749 0)
(1.69341 0.833634 0)
(1.77275 0.913862 0)
(1.77469 0.942889 0)
(1.77146 0.918994 0)
(1.70201 0.940462 0)
(1.20119 0.556717 0)
(0.910935 0.508432 0)
(0.889642 0.47622 0)
(0.873547 0.450083 0)
(0.859147 0.416989 0)
(0.847937 0.373475 0)
(0.846498 0.338182 0)
(0.854871 0.30814 0)
(0.865478 0.277581 0)
(0.874148 0.252653 0)
(0.881347 0.231996 0)
(0.888427 0.212279 0)
(0.896986 0.192698 0)
(0.90533 0.171164 0)
(0.915672 0.155386 0)
(0.936441 0.128645 0)
(-0.00645228 0.0304676 0)
(-0.0171306 0.0315812 0)
(-0.0305135 0.0348863 0)
(-0.0400516 0.0441737 0)
(-0.0451898 0.0564007 0)
(-0.0487554 0.0652448 0)
(-0.0524639 0.0667984 0)
(-0.0543762 0.064735 0)
(-0.0544836 0.0569541 0)
(-0.0520544 0.0483114 0)
(-0.0468921 0.0457462 0)
(-0.0425239 0.0517448 0)
(-0.0403239 0.0703047 0)
(-0.0385655 0.0973086 0)
(-0.0405186 0.124269 0)
(-0.0533087 0.141687 0)
(-0.0774505 0.142419 0)
(-0.104616 0.118004 0)
(-0.135106 0.0797391 0)
(-0.168259 0.0454513 0)
(-0.206752 0.0211001 0)
(-0.257204 -0.00357219 0)
(-0.32472 -0.0144927 0)
(-0.426383 -0.0132529 0)
(-0.620844 -0.0488259 0)
(-0.74156 -0.183643 0)
(-0.729286 -0.257997 0)
(-0.689872 -0.290471 0)
(-0.630616 -0.312126 0)
(-0.535123 -0.317648 0)
(-0.384274 -0.288111 0)
(-0.163987 -0.22745 0)
(0.123246 -0.104874 0)
(0.456185 0.0597132 0)
(0.794478 0.219636 0)
(1.08035 0.355477 0)
(1.26024 0.480585 0)
(1.39526 0.580647 0)
(1.51691 0.691992 0)
(1.65189 0.816187 0)
(1.73839 0.91948 0)
(1.77233 0.939391 0)
(1.75803 0.951716 0)
(1.69784 0.909638 0)
(1.12621 0.551326 0)
(0.906399 0.512872 0)
(0.882478 0.480402 0)
(0.863691 0.453507 0)
(0.846954 0.414606 0)
(0.837534 0.369392 0)
(0.838252 0.335489 0)
(0.847126 0.304833 0)
(0.857922 0.273784 0)
(0.867213 0.247992 0)
(0.875333 0.227404 0)
(0.88287 0.207457 0)
(0.891705 0.187695 0)
(0.900929 0.167544 0)
(0.911715 0.154047 0)
(0.932736 0.128929 0)
(-0.00617026 0.0389974 0)
(-0.0165828 0.0408153 0)
(-0.0282697 0.0461677 0)
(-0.0357483 0.0572945 0)
(-0.0410227 0.0673731 0)
(-0.0466631 0.0709883 0)
(-0.0514557 0.06988 0)
(-0.0546811 0.0637331 0)
(-0.0555732 0.0543289 0)
(-0.0528251 0.0474173 0)
(-0.0480867 0.0473299 0)
(-0.0440903 0.0570174 0)
(-0.0419602 0.078622 0)
(-0.0402731 0.107298 0)
(-0.0455896 0.134151 0)
(-0.0611068 0.149617 0)
(-0.0862093 0.149456 0)
(-0.11526 0.127106 0)
(-0.14265 0.0933575 0)
(-0.173525 0.0628926 0)
(-0.206753 0.0397502 0)
(-0.248346 0.0141286 0)
(-0.310086 0.00681182 0)
(-0.427133 -0.00238111 0)
(-0.683359 -0.0923601 0)
(-0.785584 -0.270091 0)
(-0.769591 -0.328931 0)
(-0.738027 -0.357435 0)
(-0.692146 -0.37629 0)
(-0.619274 -0.388132 0)
(-0.506558 -0.372097 0)
(-0.321098 -0.328155 0)
(-0.0569424 -0.211759 0)
(0.268751 -0.0407475 0)
(0.627155 0.125681 0)
(0.953078 0.287298 0)
(1.17276 0.429732 0)
(1.33393 0.546766 0)
(1.46566 0.668439 0)
(1.61334 0.793235 0)
(1.7019 0.925526 0)
(1.76769 0.941328 0)
(1.75037 0.980471 0)
(1.7164 0.841606 0)
(1.04648 0.543312 0)
(0.894593 0.514972 0)
(0.873117 0.486472 0)
(0.852458 0.454475 0)
(0.834944 0.410037 0)
(0.826917 0.367429 0)
(0.829103 0.331098 0)
(0.838934 0.298394 0)
(0.849825 0.266502 0)
(0.859707 0.240983 0)
(0.869315 0.220379 0)
(0.877834 0.200476 0)
(0.887497 0.182185 0)
(0.89709 0.165076 0)
(0.907888 0.154114 0)
(0.928934 0.128795 0)
(-0.00576215 0.0487071 0)
(-0.015451 0.0514642 0)
(-0.0253446 0.0580769 0)
(-0.0322463 0.0671777 0)
(-0.0389305 0.0729108 0)
(-0.0460192 0.0736195 0)
(-0.0516982 0.0691009 0)
(-0.0555048 0.0615401 0)
(-0.0558448 0.0537327 0)
(-0.0530351 0.0502272 0)
(-0.0488182 0.0527632 0)
(-0.0448278 0.0646754 0)
(-0.0430517 0.0863494 0)
(-0.0431063 0.114672 0)
(-0.0520636 0.138973 0)
(-0.0684988 0.154482 0)
(-0.0925204 0.156586 0)
(-0.122274 0.138576 0)
(-0.147232 0.107475 0)
(-0.174987 0.0790839 0)
(-0.206472 0.055673 0)
(-0.238221 0.0293774 0)
(-0.293374 0.025053 0)
(-0.431474 0.000527268 0)
(-0.759349 -0.186776 0)
(-0.814823 -0.366858 0)
(-0.795832 -0.402152 0)
(-0.768263 -0.427727 0)
(-0.730722 -0.446442 0)
(-0.676503 -0.46193 0)
(-0.59679 -0.455532 0)
(-0.4516 -0.415988 0)
(-0.218544 -0.31231 0)
(0.0890239 -0.148466 0)
(0.446882 0.027797 0)
(0.797899 0.217745 0)
(1.0682 0.389802 0)
(1.27103 0.51501 0)
(1.41014 0.652175 0)
(1.56615 0.787332 0)
(1.6648 0.929241 0)
(1.75702 0.945634 0)
(1.74873 1.00375 0)
(1.69715 0.745969 0)
(0.950124 0.522085 0)
(0.873995 0.520813 0)
(0.86064 0.49281 0)
(0.839569 0.452227 0)
(0.82328 0.405296 0)
(0.814669 0.363697 0)
(0.819681 0.324088 0)
(0.830592 0.288101 0)
(0.841817 0.256504 0)
(0.85288 0.233195 0)
(0.863156 0.213059 0)
(0.872595 0.193511 0)
(0.88305 0.177862 0)
(0.892832 0.163877 0)
(0.904023 0.153418 0)
(0.924962 0.127599 0)
(-0.00530571 0.0567382 0)
(-0.0138998 0.0599292 0)
(-0.0228994 0.0658362 0)
(-0.0303541 0.0724915 0)
(-0.0384701 0.075135 0)
(-0.0463194 0.0728922 0)
(-0.0521883 0.0675675 0)
(-0.0556493 0.0615821 0)
(-0.0552978 0.0574347 0)
(-0.0528271 0.0562131 0)
(-0.0489601 0.0603304 0)
(-0.0458486 0.0713172 0)
(-0.0451553 0.091276 0)
(-0.0475572 0.116588 0)
(-0.0582663 0.141716 0)
(-0.0743928 0.160209 0)
(-0.096891 0.165163 0)
(-0.125059 0.151063 0)
(-0.148991 0.122382 0)
(-0.174797 0.094147 0)
(-0.205104 0.0701636 0)
(-0.227464 0.0438094 0)
(-0.280074 0.0405966 0)
(-0.459443 -0.0222333 0)
(-0.826774 -0.35054 0)
(-0.836597 -0.453425 0)
(-0.815244 -0.470937 0)
(-0.789647 -0.490337 0)
(-0.75584 -0.507856 0)
(-0.715473 -0.522157 0)
(-0.65657 -0.524592 0)
(-0.548803 -0.49343 0)
(-0.359229 -0.410555 0)
(-0.0859648 -0.263364 0)
(0.259568 -0.0766396 0)
(0.62365 0.139317 0)
(0.950154 0.337092 0)
(1.19478 0.488433 0)
(1.36091 0.627326 0)
(1.52109 0.765876 0)
(1.62149 0.92776 0)
(1.74026 0.945911 0)
(1.74005 1.03087 0)
(1.56567 0.65322 0)
(0.877805 0.518137 0)
(0.856955 0.528865 0)
(0.846138 0.495229 0)
(0.825455 0.447977 0)
(0.809275 0.401542 0)
(0.803249 0.357062 0)
(0.809704 0.31537 0)
(0.821421 0.275875 0)
(0.834141 0.247251 0)
(0.845895 0.227114 0)
(0.85707 0.207758 0)
(0.867801 0.188898 0)
(0.878889 0.175248 0)
(0.889305 0.161916 0)
(0.900442 0.1509 0)
(0.920774 0.124987 0)
(-0.0048971 0.0633104 0)
(-0.0125375 0.0662163 0)
(-0.0213019 0.0709302 0)
(-0.0298229 0.074718 0)
(-0.0389356 0.0747586 0)
(-0.0465691 0.0721298 0)
(-0.052105 0.0686985 0)
(-0.0546804 0.0661787 0)
(-0.0542082 0.0639872 0)
(-0.0523343 0.0641723 0)
(-0.0499233 0.066724 0)
(-0.0478685 0.0752565 0)
(-0.0487876 0.0915317 0)
(-0.0526043 0.117142 0)
(-0.063694 0.14603 0)
(-0.0777025 0.168011 0)
(-0.0997384 0.175221 0)
(-0.123633 0.163235 0)
(-0.145876 0.136606 0)
(-0.172758 0.10824 0)
(-0.200355 0.0836824 0)
(-0.216925 0.0571797 0)
(-0.26861 0.0496216 0)
(-0.557686 -0.0980355 0)
(-0.858999 -0.50102 0)
(-0.849658 -0.521613 0)
(-0.828649 -0.533098 0)
(-0.806948 -0.542043 0)
(-0.776005 -0.553795 0)
(-0.745143 -0.561243 0)
(-0.697313 -0.56621 0)
(-0.618909 -0.551426 0)
(-0.473626 -0.501952 0)
(-0.243048 -0.386171 0)
(0.0817011 -0.204052 0)
(0.448806 0.0390098 0)
(0.809933 0.278744 0)
(1.09627 0.450318 0)
(1.30572 0.587946 0)
(1.45888 0.753299 0)
(1.57632 0.916197 0)
(1.71371 0.943257 0)
(1.71752 1.05591 0)
(1.38289 0.578289 0)
(0.854235 0.53202 0)
(0.848594 0.533834 0)
(0.830903 0.494963 0)
(0.809515 0.444478 0)
(0.794987 0.396182 0)
(0.791567 0.350445 0)
(0.799043 0.305624 0)
(0.812385 0.265536 0)
(0.82668 0.240929 0)
(0.839118 0.222325 0)
(0.851215 0.203816 0)
(0.862911 0.186156 0)
(0.874989 0.172545 0)
(0.885488 0.158286 0)
(0.89637 0.146681 0)
(0.916744 0.122339 0)
(-0.00457613 0.0680409 0)
(-0.0115918 0.0703105 0)
(-0.020653 0.0733652 0)
(-0.0301207 0.0750285 0)
(-0.0394424 0.0746072 0)
(-0.0462223 0.0749019 0)
(-0.0505927 0.0747744 0)
(-0.0532568 0.0735921 0)
(-0.053052 0.0719785 0)
(-0.0527389 0.0699057 0)
(-0.0518173 0.0707934 0)
(-0.051384 0.0753394 0)
(-0.0534064 0.0914478 0)
(-0.0567533 0.120217 0)
(-0.067692 0.15334 0)
(-0.0803278 0.177994 0)
(-0.0999839 0.185021 0)
(-0.120411 0.174366 0)
(-0.140079 0.149059 0)
(-0.168655 0.122263 0)
(-0.192137 0.0987288 0)
(-0.2068 0.0685778 0)
(-0.268251 0.030789 0)
(-0.698944 -0.266932 0)
(-0.869125 -0.548138 0)
(-0.855511 -0.56591 0)
(-0.83646 -0.58017 0)
(-0.813766 -0.586571 0)
(-0.789083 -0.594729 0)
(-0.76669 -0.60052 0)
(-0.726077 -0.607175 0)