/*--------------------------------*- C++ -*----------------------------------*\
  =========                 |
  \\      /  F ield         | OpenFOAM: The Open Source CFD Toolbox
   \\    /   O peration     | Website:  https://openfoam.org
    \\  /    A nd           | Version:  8
     \\/     M anipulation  |
\*---------------------------------------------------------------------------*/
FoamFile
{
    version     2.0;
    format      ascii;
    class       volVectorField;
    location    "1";
    object      U;
}
// * * * * * * * * * * * * * * * * * * * * * * * * * * * * * * * * * * * * * //

dimensions      [0 1 -1 0 0 0 0];

internalField   nonuniform List<vector> 
325
(
(1.23942 0.562946 0)
(1.30119 0.673057 0)
(1.30078 0.740079 0)
(1.29454 0.749459 0)
(2.9554 0.0118942 0)
(2.08003 0.570084 0)
(1.18177 0.837283 0)
(1.22263 0.794416 0)
(1.25972 0.778505 0)
(1.27288 0.763467 0)
(2.97361 0.00641452 0)
(2.96925 0.0182559 0)
(1.92563 0.717169 0)
(1.31665 0.801453 0)
(1.33037 0.768867 0)
(1.32475 0.77064 0)
(2.98072 0.00836066 0)
(2.97933 0.00990625 0)
(2.92904 0.101729 0)
(1.68654 0.795056 0)
(1.36325 0.828871 0)
(1.37887 0.825705 0)
(2.98346 0.0109559 0)
(2.98243 0.0120773 0)
(2.9806 0.0147123 0)
(2.7485 0.30909 0)
(1.54052 0.805599 0)
(1.407 0.856818 0)
(2.98485 0.0117496 0)
(2.98419 0.0126793 0)
(2.98374 0.015128 0)
(2.98171 0.0163051 0)
(2.05563 0.665951 0)
(1.41527 0.875534 0)
(2.98811 0.0113467 0)
(2.98765 0.0126308 0)
(2.98742 0.0137705 0)
(2.98686 0.0159577 0)
(2.94269 0.0929357 0)
(1.75123 0.811449 0)
(2.99087 0.0116904 0)
(2.99088 0.0120357 0)
(2.99042 0.0141514 0)
(2.99055 0.0139239 0)
(2.98891 0.0174585 0)
(2.67471 0.407765 0)
(2.99365 0.0086583 0)
(2.99325 0.00963055 0)
(2.99307 0.0100055 0)
(2.99235 0.0113581 0)
(2.99177 0.0128668 0)
(2.99595 0.0233158 0)
(2.99476 0.00875628 0)
(2.99437 0.00936122 0)
(2.99403 0.00979657 0)
(2.99335 0.0110431 0)
(2.99294 0.0113991 0)
(2.99198 0.0136926 0)
(2.99563 0.00724175 0)
(2.99531 0.00760512 0)
(2.9949 0.00826275 0)
(2.99456 0.00873521 0)
(2.99417 0.0095868 0)
(2.99393 0.0101197 0)
(2.99653 0.00546311 0)
(2.99638 0.00587089 0)
(2.99624 0.00630156 0)
(2.99604 0.0068736 0)
(2.9957 0.00766787 0)
(2.99536 0.00833208 0)
(2.99758 0.00460258 0)
(2.99735 0.00510954 0)
(2.99717 0.00544145 0)
(2.9968 0.00609991 0)
(2.99649 0.00650511 0)
(2.996 0.00734804 0)
(2.99804 0.00393447 0)
(2.99785 0.00415643 0)
(2.99758 0.00457771 0)
(2.99727 0.00499704 0)
(2.99701 0.00534121 0)
(2.99656 0.00615295 0)
(2.9984 0.00283387 0)
(2.99831 0.00296801 0)
(2.99812 0.00336644 0)
(2.998 0.00354563 0)
(2.99766 0.00426829 0)
(2.99746 0.00455783 0)
(2.9988 0.00219782 0)
(2.99867 0.0024729 0)
(2.99855 0.00270543 0)
(2.99837 0.00305299 0)
(2.99815 0.00345137 0)
(2.99795 0.00383504 0)
(2.99906 0.00185675 0)
(2.99899 0.00194625 0)
(2.99886 0.00219665 0)
(2.99874 0.00238057 0)
(2.99858 0.0026843 0)
(2.9984 0.00298537 0)
(2.99934 0.00126314 0)
(2.99929 0.00134837 0)
(2.99918 0.00157601 0)
(2.99912 0.00167728 0)
(2.99894 0.00205628 0)
(2.99882 0.00223842 0)
(2.9995 0.000970233 0)
(2.99945 0.00106676 0)
(2.99938 0.00121515 0)
(2.99931 0.00135646 0)
(2.99918 0.00162543 0)
(2.99908 0.00178576 0)
(2.99963 0.000737852 0)
(2.9996 0.000794892 0)
(2.99954 0.00091446 0)
(2.99949 0.000993694 0)
(2.99938 0.00122797 0)
(2.99933 0.00129921 0)
(2.99912 0.00176077 0)
(2.97544 0.0025051 0)
(3 -3.92432e-08 0)
(2.98115 0.0041814 0)
(3 -6.88436e-08 0)
(2.9865 0.00488929 0)
(3 -7.91044e-08 0)
(2.98929 0.00576221 0)
(3 -9.09604e-08 0)
(2.99053 0.00682647 0)
(3 -9.74746e-08 0)
(2.99173 0.00708278 0)
(3 -1.02034e-07 0)
(2.99379 0.00653517 0)
(3 -1.05053e-07 0)
(2.99531 0.00662411 0)
(3 -1.07052e-07 0)
(2.99692 0.00481419 0)
(3 -1.09277e-07 0)
(2.99736 0.00457206 0)
(3 -1.10284e-07 0)
(2.9976 0.00380323 0)
(3 -1.1177e-07 0)
(2.99854 0.00256721 0)
(3 -1.12312e-07 0)
(2.99887 0.00233085 0)
(3 -1.12967e-07 0)
(2.99901 0.00177919 0)
(3 -1.12836e-07 0)
(2.99928 0.00127154 0)
(3 -1.12514e-07 0)
(2.99945 0.00107842 0)
(3 -1.11562e-07 0)
(2.9996 0.000772072 0)
(3 -1.1038e-07 0)
(2.9997 0.000574085 0)
(3 -1.08773e-07 0)
(2.99978 0.000423711 0)
(2.99974 0.000518104 0)
(2.99972 0.000549502 0)
(2.99967 0.000663898 0)
(2.99964 0.000701407 0)
(2.99956 0.000882426 0)
(2.99952 0.000942155 0)
(2.99985 0.000299292 0)
(2.99983 0.00034129 0)
(2.9998 0.000377691 0)
(2.99977 0.000445015 0)
(2.99973 0.000518045 0)
(2.99969 0.000598878 0)
(2.99962 0.000754986 0)
(2.99991 0.000180346 0)
(2.99989 0.000209646 0)
(2.99988 0.000223933 0)
(2.99986 0.000280387 0)
(2.99985 0.000300206 0)
(2.99981 0.000396005 0)
(2.99979 0.000424221 0)
(2.99994 0.000113557 0)
(2.99993 0.000129212 0)
(2.99993 0.000139689 0)
(2.99991 0.00016861 0)
(2.99991 0.000182303 0)
(2.99988 0.000233975 0)
(2.99987 0.00025087 0)
(2.99996 7.02449e-05 0)
(2.99996 7.98332e-05 0)
(2.99996 8.68834e-05 0)
(2.99995 0.000104267 0)
(2.99994 0.000113801 0)
(2.99993 0.000142999 0)
(2.99992 0.000155097 0)
(2.99998 4.5198e-05 0)
(2.99997 5.05417e-05 0)
(2.99997 5.59859e-05 0)
(2.99997 6.55218e-05 0)
(2.99996 7.28733e-05 0)
(2.99996 8.87559e-05 0)
(2.99995 9.92669e-05 0)
(2.99999 2.80188e-05 0)
(2.99998 3.00906e-05 0)
(2.99998 3.56712e-05 0)
(2.99998 3.87536e-05 0)
(2.99998 4.7352e-05 0)
(2.99997 5.25189e-05 0)
(2.99997 6.4895e-05 0)
(2.99999 1.61697e-05 0)
(2.99999 1.84416e-05 0)
(2.99999 2.02526e-05 0)
(2.99999 2.41009e-05 0)
(2.99999 2.72128e-05 0)
(2.99998 3.29502e-05 0)
(2.99998 3.85425e-05 0)
(2.99999 1.00879e-05 0)
(2.99999 1.10531e-05 0)
(2.99999 1.2754e-05 0)
(2.99999 1.44602e-05 0)
(2.99999 1.70388e-05 0)
(2.99999 1.99288e-05 0)
(2.99999 2.39053e-05 0)
(3 6.13548e-06 0)
(3 6.83629e-06 0)
(3 7.69532e-06 0)
(3 8.84831e-06 0)
(2.99999 1.02111e-05 0)
(2.99999 1.2029e-05 0)
(2.99999 1.42245e-05 0)
(3 3.55861e-06 0)
(3 3.95535e-06 0)
(3 4.51287e-06 0)
(3 5.19055e-06 0)
(3 6.06987e-06 0)
(3 7.14824e-06 0)
(3 8.56004e-06 0)
(3 2.10393e-06 0)
(3 2.34129e-06 0)
(3 2.65401e-06 0)
(3 3.05289e-06 0)
(3 3.54572e-06 0)
(3 4.18707e-06 0)
(3 4.96255e-06 0)
(3 1.17865e-06 0)
(3 1.32398e-06 0)
(3 1.48942e-06 0)
(3 1.73601e-06 0)
(3 2.0053e-06 0)
(3 2.39327e-06 0)
(3 2.83918e-06 0)
(3 6.2297e-07 0)
(3 7.18126e-07 0)
(3 7.80421e-07 0)
(3 9.48218e-07 0)
(3 1.04974e-06 0)
(3 1.32022e-06 0)
(3 1.48077e-06 0)
(3 3.10505e-07 0)
(3 3.73157e-07 0)
(3 3.80853e-07 0)
(3 4.98216e-07 0)
(3 5.05352e-07 0)
(3 7.03399e-07 0)
(3 6.97176e-07 0)
(3 1.38584e-07 0)
(3 1.76726e-07 0)
(3 1.62671e-07 0)
(3 2.3844e-07 0)
(3 2.06248e-07 0)
(3 3.40398e-07 0)
(3 2.66951e-07 0)
(3 2.10679e-08 0)
(3 4.07167e-08 0)
(3 1.32508e-08 0)
(3 5.40038e-08 0)
(3 3.636e-09 0)
(3 7.9481e-08 0)
(3 -1.15127e-08 0)
(3 -2.22672e-08 0)
(3 -9.27784e-09 0)
(3 -4.28447e-08 0)
(3 -1.54367e-08 0)
(3 -7.09316e-08 0)
(3 -2.85909e-08 0)
(3 -1.12283e-07 0)
(3 -4.98162e-08 0)
(3 -4.30585e-08 0)
(3 -7.6353e-08 0)
(3 -5.93295e-08 0)
(3 -1.02047e-07 0)
(3 -7.80201e-08 0)
(3 -1.25949e-07 0)
(3 -3.76025e-08 0)
(3 -3.41995e-08 0)
(3 -5.26872e-08 0)
(3 -4.75938e-08 0)
(3 -6.75727e-08 0)
(3 -6.11455e-08 0)
(3 -8.42932e-08 0)
(3 -1.06516e-07 0)
(2.99986 0.000267242 0)
(3 -1.03034e-07 0)
(2.99991 0.000197166 0)
(3 -9.88282e-08 0)
(2.99994 0.000113575 0)
(3 -9.3903e-08 0)
(2.99996 7.15395e-05 0)
(3 -8.84263e-08 0)
(2.99998 4.2379e-05 0)
(3 -8.24541e-08 0)
(2.99999 2.6535e-05 0)
(3 -7.6111e-08 0)
(2.99999 1.5134e-05 0)
(3 -6.94581e-08 0)
(2.99999 1.02558e-05 0)
(3 -6.26576e-08 0)
(3 5.43187e-06 0)
(3 -5.58439e-08 0)
(3 3.68282e-06 0)
(3 2.02369e-06 0)
(3 1.23054e-06 0)
(3 7.0438e-07 0)
(3 3.97566e-07 0)
(3 2.21249e-07 0)
(3 1.16718e-07 0)
(3 4.72916e-08 0)
(3 2.38078e-08 0)
(3 7.97384e-09 0)
(3 3.22803e-08 0)
)
;

boundaryField
{
    inlet
    {
        type            fixedValue;
        value           nonuniform List<vector> 0();
    }
    outlet
    {
        type            inletOutlet;
        inletValue      nonuniform List<vector> 0();
        value           nonuniform List<vector> 0();
    }
    triangle
    {
        type            slip;
    }
    top
    {
        type            symmetryPlane;
    }
    bottom
    {
        type            symmetryPlane;
    }
    defaultFaces
    {
        type            empty;
    }
    procBoundary5to1
    {
        type            processor;
        value           nonuniform List<vector> 6((2.64186 0.10642 0) (1.53373 0.383839 0) (1.53373 0.383839 0) (2.97093 0.00121072 0) (3 -5.63124e-08 0) (3 -5.63124e-08 0));
    }
    procBoundary5to4
    {
        type            processor;
        value           nonuniform List<vector> 
39
(
(3 6.76811e-11 0)
(3 1.0212e-10 0)
(3 1.48462e-10 0)
(3 1.89278e-10 0)
(3 2.37508e-10 0)
(3 2.83634e-10 0)
(3 3.23491e-10 0)
(3 3.65006e-10 0)
(3 4.02941e-10 0)
(3 4.39508e-10 0)
(3 4.74846e-10 0)
(3 5.06474e-10 0)
(3 5.33165e-10 0)
(3 5.56721e-10 0)
(3 5.75399e-10 0)
(3 5.91474e-10 0)
(3 6.03687e-10 0)
(3 6.11592e-10 0)
(3 6.18406e-10 0)
(3 6.21931e-10 0)
(3 6.13889e-10 0)
(3 6.05332e-10 0)
(3 5.89841e-10 0)
(3 5.77061e-10 0)
(3 5.52872e-10 0)
(3 5.35502e-10 0)
(3 5.03446e-10 0)
(3 4.74256e-10 0)
(3 -4.91044e-08 0)
(3 -4.91044e-08 0)
(3 -4.26146e-08 0)
(3 -3.63272e-08 0)
(3 -3.03778e-08 0)
(3 -2.47298e-08 0)
(3 -1.95188e-08 0)
(3 -1.46931e-08 0)
(3 -1.02768e-08 0)
(3 -5.69889e-09 0)
(3 -1.92413e-09 0)
)
;
    }
    procBoundary5to6
    {
        type            processor;
        value           nonuniform List<vector> 
43
(
(1.29138 0.747635 0)
(1.28384 0.766993 0)
(1.32473 0.778939 0)
(1.36729 0.834589 0)
(1.41112 0.863107 0)
(1.45084 0.884169 0)
(1.49535 0.89453 0)
(1.62095 0.872454 0)
(1.93985 0.776166 0)
(2.85193 0.242168 0)
(2.99292 0.0189942 0)
(2.99438 0.0104313 0)
(2.99562 0.00781689 0)
(2.99636 0.00633134 0)
(2.99703 0.00537947 0)
(2.99756 0.00468884 0)
(2.99818 0.00343262 0)
(2.99855 0.00280442 0)
(2.99888 0.00219549 0)
(2.99888 0.00219549 0)
(2.99908 0.00182203 0)
(2.99937 0.00125165 0)
(2.99937 0.00125165 0)
(2.99937 0.00125165 0)
(2.99957 0.000844015 0)
(2.99972 0.000583714 0)
(2.99983 0.000349841 0)
(2.9999 0.000210407 0)
(2.99994 0.000125756 0)
(2.99996 7.56557e-05 0)
(2.99998 4.73756e-05 0)
(2.99999 2.90758e-05 0)
(2.99999 1.73468e-05 0)
(2.99999 1.03992e-05 0)
(3 6.07468e-06 0)
(3 3.49194e-06 0)
(3 1.95411e-06 0)
(3 1.08127e-06 0)
(3 5.30928e-07 0)
(3 1.40457e-07 0)
(3 -4.96629e-08 0)
(3 -8.6803e-08 0)
(3 -7.83566e-08 0)
)
;
    }
}


// ************************************************************************* //
