/*--------------------------------*- C++ -*----------------------------------*\
  =========                 |
  \\      /  F ield         | OpenFOAM: The Open Source CFD Toolbox
   \\    /   O peration     | Website:  https://openfoam.org
    \\  /    A nd           | Version:  7
     \\/     M anipulation  |
\*---------------------------------------------------------------------------*/
FoamFile
{
    version     2.0;
    format      ascii;
    class       volVectorField;
    location    "1";
    object      U;
}
// * * * * * * * * * * * * * * * * * * * * * * * * * * * * * * * * * * * * * //

dimensions      [0 1 -1 0 0 0 0];

internalField   nonuniform List<vector> 
325
(
(1.23942 0.562947 0)
(1.30118 0.673056 0)
(1.30077 0.740077 0)
(1.29454 0.749458 0)
(2.95539 0.0118966 0)
(2.08001 0.570093 0)
(1.18177 0.837282 0)
(1.22262 0.794413 0)
(1.25972 0.778503 0)
(1.27287 0.763466 0)
(2.97361 0.0064154 0)
(2.96925 0.0182585 0)
(1.92562 0.717171 0)
(1.31665 0.801452 0)
(1.33037 0.768866 0)
(1.32475 0.77064 0)
(2.98072 0.00836092 0)
(2.97933 0.00990687 0)
(2.92904 0.101733 0)
(1.68653 0.795057 0)
(1.36325 0.82887 0)
(1.37887 0.825705 0)
(2.98346 0.0109568 0)
(2.98243 0.0120781 0)
(2.9806 0.0147132 0)
(2.74849 0.309103 0)
(1.54051 0.805598 0)
(1.407 0.856819 0)
(2.98485 0.0117501 0)
(2.98419 0.0126799 0)
(2.98374 0.0151287 0)
(2.98171 0.0163057 0)
(2.0556 0.665959 0)
(1.41527 0.875533 0)
(2.98811 0.0113471 0)
(2.98765 0.0126313 0)
(2.98742 0.0137709 0)
(2.98686 0.0159583 0)
(2.94268 0.0929426 0)
(1.75122 0.811452 0)
(2.99087 0.0116909 0)
(2.99088 0.0120362 0)
(2.99042 0.0141519 0)
(2.99055 0.0139244 0)
(2.98891 0.017459 0)
(2.6747 0.407782 0)
(2.99365 0.00865854 0)
(2.99325 0.0096308 0)
(2.99307 0.0100058 0)
(2.99235 0.0113584 0)
(2.99177 0.012867 0)
(2.99595 0.0233171 0)
(2.99476 0.0087564 0)
(2.99437 0.00936134 0)
(2.99403 0.00979674 0)
(2.99335 0.0110433 0)
(2.99294 0.0113993 0)
(2.99198 0.0136929 0)
(2.99563 0.00724195 0)
(2.99531 0.0076053 0)
(2.9949 0.00826293 0)
(2.99456 0.00873545 0)
(2.99417 0.00958696 0)
(2.99393 0.0101199 0)
(2.99653 0.00546324 0)
(2.99638 0.00587099 0)
(2.99624 0.00630168 0)
(2.99604 0.0068737 0)
(2.9957 0.007668 0)
(2.99536 0.00833218 0)
(2.99758 0.00460267 0)
(2.99735 0.00510964 0)
(2.99717 0.00544153 0)
(2.9968 0.0061 0)
(2.99649 0.00650522 0)
(2.996 0.00734811 0)
(2.99804 0.00393455 0)
(2.99785 0.00415653 0)
(2.99758 0.00457782 0)
(2.99727 0.00499712 0)
(2.99701 0.0053413 0)
(2.99656 0.00615308 0)
(2.9984 0.00283392 0)
(2.99831 0.00296806 0)
(2.99812 0.0033665 0)
(2.998 0.00354571 0)
(2.99766 0.00426836 0)
(2.99746 0.00455788 0)
(2.9988 0.00219787 0)
(2.99867 0.00247295 0)
(2.99855 0.00270547 0)
(2.99837 0.00305305 0)
(2.99815 0.00345142 0)
(2.99795 0.00383513 0)
(2.99906 0.00185678 0)
(2.99899 0.00194627 0)
(2.99886 0.00219669 0)
(2.99874 0.00238061 0)
(2.99858 0.00268433 0)
(2.9984 0.00298541 0)
(2.99934 0.00126315 0)
(2.99929 0.00134839 0)
(2.99918 0.00157603 0)
(2.99912 0.00167731 0)
(2.99894 0.00205632 0)
(2.99882 0.00223847 0)
(2.9995 0.00097024 0)
(2.99945 0.00106678 0)
(2.99938 0.00121517 0)
(2.99931 0.00135649 0)
(2.99918 0.00162545 0)
(2.99908 0.00178577 0)
(2.99963 0.000737848 0)
(2.9996 0.000794901 0)
(2.99954 0.000914451 0)
(2.99949 0.000993718 0)
(2.99938 0.00122796 0)
(2.99933 0.00129924 0)
(2.99912 0.00176079 0)
(2.97544 0.00250475 0)
(3 -3.92688e-08 0)
(2.98115 0.00418256 0)
(3 -6.88715e-08 0)
(2.9865 0.00488904 0)
(3 -7.91309e-08 0)
(2.98929 0.00576282 0)
(3 -9.09809e-08 0)
(2.99052 0.00682686 0)
(3 -9.74866e-08 0)
(2.99173 0.00708315 0)
(3 -1.02044e-07 0)
(2.99379 0.00653541 0)
(3 -1.05055e-07 0)
(2.99531 0.00662438 0)
(3 -1.07055e-07 0)
(2.99692 0.00481432 0)
(3 -1.09277e-07 0)
(2.99736 0.00457217 0)
(3 -1.10284e-07 0)
(2.9976 0.00380333 0)
(3 -1.11767e-07 0)
(2.99854 0.00256725 0)
(3 -1.12307e-07 0)
(2.99887 0.00233088 0)
(3 -1.1296e-07 0)
(2.99901 0.00177924 0)
(3 -1.12829e-07 0)
(2.99928 0.00127155 0)
(3 -1.12507e-07 0)
(2.99945 0.00107844 0)
(3 -1.11555e-07 0)
(2.9996 0.000772082 0)
(3 -1.10372e-07 0)
(2.9997 0.000574093 0)
(3 -1.08764e-07 0)
(2.99978 0.000423716 0)
(2.99974 0.000518112 0)
(2.99972 0.000549507 0)
(2.99967 0.000663909 0)
(2.99964 0.000701408 0)
(2.99956 0.000882443 0)
(2.99952 0.00094216 0)
(2.99985 0.000299292 0)
(2.99983 0.000341292 0)
(2.9998 0.000377692 0)
(2.99977 0.000445018 0)
(2.99973 0.000518045 0)
(2.99969 0.000598881 0)
(2.99962 0.000754992 0)
(2.99991 0.000180348 0)
(2.99989 0.000209649 0)
(2.99988 0.000223935 0)
(2.99986 0.000280389 0)
(2.99985 0.000300209 0)
(2.99981 0.000396008 0)
(2.99979 0.000424224 0)
(2.99994 0.000113559 0)
(2.99993 0.000129214 0)
(2.99993 0.00013969 0)
(2.99991 0.000168612 0)
(2.99991 0.000182304 0)
(2.99988 0.000233977 0)
(2.99987 0.000250872 0)
(2.99996 7.02462e-05 0)
(2.99996 7.98347e-05 0)
(2.99996 8.68849e-05 0)
(2.99995 0.000104269 0)
(2.99994 0.000113803 0)
(2.99993 0.000143002 0)
(2.99992 0.0001551 0)
(2.99998 4.5199e-05 0)
(2.99997 5.05429e-05 0)
(2.99997 5.59872e-05 0)
(2.99997 6.55232e-05 0)
(2.99996 7.28751e-05 0)
(2.99996 8.87575e-05 0)
(2.99995 9.92701e-05 0)
(2.99999 2.80196e-05 0)
(2.99998 3.00915e-05 0)
(2.99998 3.56723e-05 0)
(2.99998 3.87548e-05 0)
(2.99998 4.73534e-05 0)
(2.99997 5.25206e-05 0)
(2.99997 6.48967e-05 0)
(2.99999 1.61705e-05 0)
(2.99999 1.84425e-05 0)
(2.99999 2.02535e-05 0)
(2.99999 2.4102e-05 0)
(2.99999 2.7214e-05 0)
(2.99998 3.29516e-05 0)
(2.99998 3.85442e-05 0)
(2.99999 1.00885e-05 0)
(2.99999 1.10538e-05 0)
(2.99999 1.27548e-05 0)
(2.99999 1.44611e-05 0)
(2.99999 1.70398e-05 0)
(2.99999 1.993e-05 0)
(2.99999 2.39068e-05 0)
(3 6.13606e-06 0)
(3 6.83694e-06 0)
(3 7.69605e-06 0)
(3 8.84915e-06 0)
(2.99999 1.02121e-05 0)
(2.99999 1.20301e-05 0)
(2.99999 1.42258e-05 0)
(3 3.55907e-06 0)
(3 3.95584e-06 0)
(3 4.51344e-06 0)
(3 5.1912e-06 0)
(3 6.07062e-06 0)
(3 7.14913e-06 0)
(3 8.5611e-06 0)
(3 2.10429e-06 0)
(3 2.34169e-06 0)
(3 2.65445e-06 0)
(3 3.0534e-06 0)
(3 3.54629e-06 0)
(3 4.18776e-06 0)
(3 4.96334e-06 0)
(3 1.1789e-06 0)
(3 1.32427e-06 0)
(3 1.48973e-06 0)
(3 1.73639e-06 0)
(3 2.0057e-06 0)
(3 2.39377e-06 0)
(3 2.83972e-06 0)
(3 6.23142e-07 0)
(3 7.18325e-07 0)
(3 7.80625e-07 0)
(3 9.4848e-07 0)
(3 1.04998e-06 0)
(3 1.32059e-06 0)
(3 1.48108e-06 0)
(3 3.1063e-07 0)
(3 3.73296e-07 0)
(3 3.80996e-07 0)
(3 4.98393e-07 0)
(3 5.05521e-07 0)
(3 7.03654e-07 0)
(3 6.97366e-07 0)
(3 1.38703e-07 0)
(3 1.76861e-07 0)
(3 1.62812e-07 0)
(3 2.38608e-07 0)
(3 2.06428e-07 0)
(3 3.40623e-07 0)
(3 2.67192e-07 0)
(3 2.11779e-08 0)
(3 4.08392e-08 0)
(3 1.33933e-08 0)
(3 5.41664e-08 0)
(3 3.81238e-09 0)
(3 7.9704e-08 0)
(3 -1.12673e-08 0)
(3 -2.22091e-08 0)
(3 -9.21741e-09 0)
(3 -4.27882e-08 0)
(3 -1.53682e-08 0)
(3 -7.08452e-08 0)
(3 -2.8488e-08 0)
(3 -1.12155e-07 0)
(3 -4.9715e-08 0)
(3 -4.29468e-08 0)
(3 -7.62298e-08 0)
(3 -5.92121e-08 0)
(3 -1.01924e-07 0)
(3 -7.79075e-08 0)
(3 -1.25837e-07 0)
(3 -3.75633e-08 0)
(3 -3.41651e-08 0)
(3 -5.26525e-08 0)
(3 -4.75541e-08 0)
(3 -6.75428e-08 0)
(3 -6.11204e-08 0)
(3 -8.42624e-08 0)
(3 -1.06507e-07 0)
(2.99986 0.000267244 0)
(3 -1.03026e-07 0)
(2.99991 0.000197167 0)
(3 -9.88188e-08 0)
(2.99994 0.000113577 0)
(3 -9.38946e-08 0)
(2.99996 7.15401e-05 0)
(3 -8.84172e-08 0)
(2.99998 4.23799e-05 0)
(3 -8.24463e-08 0)
(2.99999 2.65356e-05 0)
(3 -7.61029e-08 0)
(2.99999 1.51345e-05 0)
(3 -6.9452e-08 0)
(2.99999 1.02562e-05 0)
(3 -6.26513e-08 0)
(3 5.4322e-06 0)
(3 -5.58394e-08 0)
(3 3.68318e-06 0)
(3 2.02395e-06 0)
(3 1.23076e-06 0)
(3 7.04542e-07 0)
(3 3.97685e-07 0)
(3 2.21342e-07 0)
(3 1.16808e-07 0)
(3 4.73613e-08 0)
(3 2.38673e-08 0)
(3 8.04623e-09 0)
(3 3.22983e-08 0)
)
;

boundaryField
{
    inlet
    {
        type            fixedValue;
        value           nonuniform 0();
    }
    outlet
    {
        type            inletOutlet;
        inletValue      nonuniform 0();
        value           nonuniform 0();
    }
    triangle
    {
        type            slip;
    }
    top
    {
        type            symmetryPlane;
    }
    bottom
    {
        type            symmetryPlane;
    }
    defaultFaces
    {
        type            empty;
    }
    procBoundary5to1
    {
        type            processor;
        value           nonuniform List<vector> 6((2.64184 0.106425 0) (1.53372 0.38384 0) (1.53372 0.38384 0) (2.97093 0.00121106 0) (3 -5.63361e-08 0) (3 -5.63361e-08 0));
    }
    procBoundary5to4
    {
        type            processor;
        value           nonuniform List<vector> 
39
(
(3 6.78258e-11 0)
(3 1.02156e-10 0)
(3 1.48855e-10 0)
(3 1.89669e-10 0)
(3 2.37643e-10 0)
(3 2.84001e-10 0)
(3 3.24025e-10 0)
(3 3.65157e-10 0)
(3 4.03411e-10 0)
(3 4.40254e-10 0)
(3 4.75474e-10 0)
(3 5.06861e-10 0)
(3 5.33921e-10 0)
(3 5.57482e-10 0)
(3 5.75697e-10 0)
(3 5.92196e-10 0)
(3 6.04683e-10 0)
(3 6.12756e-10 0)
(3 6.19151e-10 0)
(3 6.22337e-10 0)
(3 6.14675e-10 0)
(3 6.05743e-10 0)
(3 5.90049e-10 0)
(3 5.77223e-10 0)
(3 5.53043e-10 0)
(3 5.35613e-10 0)
(3 5.03447e-10 0)
(3 4.74131e-10 0)
(3 -4.90979e-08 0)
(3 -4.90979e-08 0)
(3 -4.26079e-08 0)
(3 -3.63183e-08 0)
(3 -3.03668e-08 0)
(3 -2.47164e-08 0)
(3 -1.95033e-08 0)
(3 -1.46751e-08 0)
(3 -1.02583e-08 0)
(3 -5.68459e-09 0)
(3 -1.91726e-09 0)
)
;
    }
    procBoundary5to6
    {
        type            processor;
        value           nonuniform List<vector> 
43
(
(1.29138 0.747634 0)
(1.28384 0.766992 0)
(1.32473 0.77894 0)
(1.36729 0.834589 0)
(1.41112 0.863107 0)
(1.45084 0.884168 0)
(1.49534 0.89453 0)
(1.62094 0.872457 0)
(1.93983 0.776173 0)
(2.85191 0.242184 0)
(2.99292 0.0189947 0)
(2.99438 0.0104315 0)
(2.99562 0.00781701 0)
(2.99636 0.00633146 0)
(2.99703 0.00537953 0)
(2.99756 0.00468892 0)
(2.99818 0.00343265 0)
(2.99855 0.00280446 0)
(2.99888 0.00219553 0)
(2.99888 0.00219553 0)
(2.99908 0.00182207 0)
(2.99937 0.00125167 0)
(2.99937 0.00125167 0)
(2.99937 0.00125167 0)
(2.99957 0.00084402 0)
(2.99972 0.000583718 0)
(2.99983 0.000349844 0)
(2.9999 0.00021041 0)
(2.99994 0.000125756 0)
(2.99996 7.56583e-05 0)
(2.99998 4.73776e-05 0)
(2.99999 2.90777e-05 0)
(2.99999 1.73484e-05 0)
(2.99999 1.04005e-05 0)
(3 6.07565e-06 0)
(3 3.49266e-06 0)
(3 1.95465e-06 0)
(3 1.0817e-06 0)
(3 5.31227e-07 0)
(3 1.40741e-07 0)
(3 -4.95282e-08 0)
(3 -8.66807e-08 0)
(3 -7.83287e-08 0)
)
;
    }
}


// ************************************************************************* //
