/*--------------------------------*- C++ -*----------------------------------*\
  =========                 |
  \\      /  F ield         | OpenFOAM: The Open Source CFD Toolbox
   \\    /   O peration     | Website:  https://openfoam.org
    \\  /    A nd           | Version:  8
     \\/     M anipulation  |
\*---------------------------------------------------------------------------*/
FoamFile
{
    version     2.0;
    format      ascii;
    class       volScalarField;
    location    "1.1";
    object      T;
}
// * * * * * * * * * * * * * * * * * * * * * * * * * * * * * * * * * * * * * //

dimensions      [0 0 0 1 0 0 0];

internalField   nonuniform List<scalar> 
325
(
1.45447
1.51062
1.57019
1.60295
1.71508
1.99586
1.99326
1.52621
1.5766
1.63528
1.67107
1.78299
2.04971
2.03539
1.60618
1.6551
1.71284
1.75108
1.86139
2.11812
2.08193
1.68389
1.74067
1.79344
1.83465
1.93876
2.19016
2.13456
1.74058
1.81076
1.86495
1.90676
1.99606
2.24186
2.19158
1.77138
1.85298
1.90486
1.94327
2.0191
2.25791
2.24634
1.78257
1.8675
1.9161
1.51583
1.3815
1.27422
1.3014
1.47704
1.68486
1.6835
1.48683
1.35837
1.25756
1.2803
1.46836
1.68387
1.68565
1.46201
1.33516
1.24193
1.26269
1.46239
1.68233
1.6878
1.43866
1.3136
1.23012
1.24889
1.45792
1.68212
1.68829
1.41656
1.29212
1.22026
1.23875
1.44971
1.68379
1.68723
1.39405
1.27312
1.21234
1.23001
1.43426
1.68292
1.68434
1.3706
1.25582
1.20892
1.22725
1.44207
1.68091
1.68018
1.34786
1.24144
1.20814
1.22556
1.44064
1.67724
1.67637
1.32584
1.23387
1.20579
1.23286
1.43928
1.67424
1.67372
1.30443
1.22872
1.20627
1.23992
1.43662
1.67329
1.6745
1.28717
1.22542
1.20841
1.24708
1.43201
1.6747
1.67696
1.27507
1.22364
1.21373
1.25495
1.42825
1.67681
1.683
1.26681
1.22735
1.22548
1.26552
1.42618
1.68538
1.69642
1.26112
1.23842
1.24366
1.28329
1.42921
1.70826
1.71894
1.26279
1.25762
1.26778
1.31047
1.44251
1.73965
1.74735
1.27182
1.28063
1.30658
1.34833
1.46627
1.77924
1.78412
1.28702
1.30611
1.34779
1.38908
1.49878
1.8203
1.82529
1.30713
1.33889
1.39456
1.43115
1.54066
1.86117
1.86693
1.34351
1.38639
1.44742
1.48229
1.59237
1.90309
1.90832
1.39487
1.44698
1.5089
1.54102
1.65221
1.94797
1.95095
1.0014
1.57512
2.09029
2.02841
1.89649
1.75648
1.54668
1.00219
1.55501
2.07031
2.01253
1.88632
1.75001
1.54976
1.00336
1.50261
2.02434
1.98317
1.86409
1.73691
1.5389
1.00585
1.46124
1.97097
1.94127
1.83266
1.71326
1.53123
1.01127
1.42224
1.93985
1.90942
1.80533
1.69439
1.52439
1.02583
1.38263
1.91021
1.88302
1.78102
1.67851
1.51781
1.06196
1.36403
1.87983
1.85364
1.76252
1.66697
1.51301
1.12813
1.38066
1.84539
1.82365
1.74622
1.65849
1.51088
1.20612
1.41552
1.80381
1.79523
1.73313
1.65084
1.50983
1.26652
1.44796
1.75288
1.77401
1.7219
1.64442
1.51196
1.33012
1.47938
1.70038
1.76023
1.71056
1.63569
1.5152
1.42536
1.51277
1.64424
1.73781
1.69839
1.62761
1.52116
1.51102
1.52778
1.5766
1.71144
1.68239
1.61874
1.53116
1.56118
1.52912
1.53042
1.68182
1.66057
1.6096
1.54543
1.58212
1.52991
1.49467
1.64497
1.63339
1.60387
1.56889
1.58833
1.52361
1.46176
1.59837
1.60629
1.60006
1.59775
1.60148
1.50497
1.42194
1.54011
1.58144
1.60142
1.63273
1.60679
1.48598
1.38249
1.47381
1.55234
1.61262
1.6625
1.59715
1.45995
1.34555
1.40476
1.52503
1.64288
1.67829
1.55654
1.41585
1.30433
1.34284
1.49515
1.6734
1.68174
)
;

boundaryField
{
    inlet
    {
        type            fixedValue;
        value           nonuniform List<scalar> 0();
    }
    outlet
    {
        type            inletOutlet;
        inletValue      uniform 1;
        value           nonuniform List<scalar> 
46
(
1.99247
2.03464
2.08122
2.1338
2.19074
2.24549
1.68357
1.68567
1.68779
1.68833
1.68728
1.6844
1.68024
1.67639
1.67367
1.67441
1.67686
1.68294
1.69644
1.71908
1.74763
1.78442
1.82555
1.867
1.90808
1.95038
1.54627
1.54942
1.53854
1.53094
1.52415
1.5176
1.51283
1.51073
1.50972
1.51185
1.51512
1.5211
1.53111
1.54537
1.56889
1.59778
1.63281
1.66259
1.67837
1.68181
)
;
    }
    triangle
    {
        type            zeroGradient;
    }
    top
    {
        type            symmetryPlane;
    }
    bottom
    {
        type            symmetryPlane;
    }
    defaultFaces
    {
        type            empty;
    }
    procBoundary3to2
    {
        type            processor;
        value           nonuniform List<scalar> 
47
(
1.50311
1.5637
1.61294
1.64288
1.64785
1.64711
1.64633
1.66007
1.63691
1.61657
1.59891
1.58239
1.56498
1.53964
1.51464
1.48786
1.4598
1.43223
1.40256
1.37648
1.3489
1.32497
1.31251
1.31575
1.33563
1.37679
1.43706
0.999999
0.999996
0.999996
0.999994
0.999993
0.999992
0.999995
1.00011
1.00183
1.01598
1.07039
1.17038
1.28573
1.38173
1.47622
1.58331
1.64069
1.67112
1.67916
1.68432
)
;
    }
    procBoundary3to7
    {
        type            processor;
        value           nonuniform List<scalar> 8(1.95231 2.02049 2.2447 2.28859 1.7829 1.86608 1.95231 1.90991);
    }
}


// ************************************************************************* //
