/*--------------------------------*- C++ -*----------------------------------*\
  =========                 |
  \\      /  F ield         | OpenFOAM: The Open Source CFD Toolbox
   \\    /   O peration     | Website:  https://openfoam.org
    \\  /    A nd           | Version:  7
     \\/     M anipulation  |
\*---------------------------------------------------------------------------*/
FoamFile
{
    version     2.0;
    format      ascii;
    class       volScalarField;
    location    "1.1";
    object      T;
}
// * * * * * * * * * * * * * * * * * * * * * * * * * * * * * * * * * * * * * //

dimensions      [0 0 0 1 0 0 0];

internalField   nonuniform List<scalar> 
325
(
1.45475
1.51045
1.56923
1.60283
1.71606
1.99572
1.99289
1.52665
1.5765
1.63427
1.67073
1.78383
2.05012
2.03517
1.60666
1.65483
1.71185
1.75106
1.86105
2.11834
2.08236
1.68437
1.7403
1.79232
1.83497
1.93834
2.18961
2.13488
1.7409
1.8103
1.86408
1.90668
1.9965
2.24163
2.19094
1.77147
1.85245
1.90433
1.94324
2.02051
2.25832
2.24574
1.78257
1.86701
1.91573
1.51583
1.38149
1.27422
1.30141
1.47712
1.68494
1.68352
1.48683
1.35836
1.25755
1.2803
1.46847
1.68385
1.68575
1.46201
1.33515
1.24192
1.26268
1.46251
1.68206
1.68795
1.43865
1.3136
1.23008
1.24886
1.45799
1.68169
1.6884
1.41656
1.29211
1.22022
1.23872
1.44976
1.6836
1.68728
1.39406
1.27311
1.21229
1.22995
1.43428
1.6829
1.68435
1.37063
1.2558
1.20885
1.22723
1.44216
1.68099
1.68018
1.3479
1.24138
1.20807
1.22562
1.44065
1.67731
1.67635
1.32589
1.23379
1.2057
1.23291
1.43934
1.67426
1.67367
1.30446
1.22865
1.20619
1.23997
1.43675
1.6731
1.67443
1.28718
1.22536
1.20833
1.24714
1.43215
1.67444
1.67685
1.27506
1.22358
1.21363
1.25501
1.42839
1.67665
1.68287
1.26683
1.2273
1.22534
1.26553
1.42638
1.68536
1.69628
1.26118
1.23836
1.24351
1.28324
1.42949
1.7084
1.71885
1.26288
1.25753
1.26753
1.3104
1.44272
1.7398
1.74739
1.27188
1.28054
1.30626
1.34835
1.46643
1.77917
1.78405
1.28704
1.306
1.34736
1.38909
1.499
1.82022
1.82513
1.30716
1.33873
1.39402
1.43097
1.54071
1.86118
1.86698
1.34357
1.38615
1.44685
1.48214
1.59226
1.90293
1.90864
1.395
1.44671
1.50821
1.5411
1.65249
1.9476
1.95111
1.0014
1.57518
2.09029
2.0284
1.89648
1.75648
1.54668
1.00219
1.55507
2.07032
2.01253
1.88632
1.75001
1.54976
1.00336
1.50266
2.02435
1.98317
1.86408
1.73691
1.5389
1.00585
1.46129
1.97098
1.94127
1.83266
1.71326
1.53123
1.01127
1.42228
1.93986
1.90942
1.80533
1.69439
1.52439
1.02583
1.38266
1.91022
1.88302
1.78102
1.67851
1.51781
1.06197
1.36406
1.87985
1.85365
1.76252
1.66697
1.51301
1.12814
1.38069
1.8454
1.82366
1.74622
1.65849
1.51088
1.20613
1.41555
1.80382
1.79524
1.73314
1.65084
1.50983
1.26652
1.44798
1.75289
1.77402
1.7219
1.64443
1.51196
1.33013
1.4794
1.7004
1.76024
1.71057
1.6357
1.5152
1.42537
1.51278
1.64425
1.73782
1.6984
1.62761
1.52116
1.51103
1.52778
1.57661
1.71144
1.68239
1.61875
1.53115
1.56119
1.52912
1.53043
1.68183
1.66057
1.6096
1.54542
1.58213
1.52991
1.49467
1.64497
1.6334
1.60387
1.56888
1.58834
1.52361
1.46176
1.59837
1.60629
1.60006
1.59775
1.60149
1.50497
1.42194
1.54012
1.58144
1.60143
1.63273
1.6068
1.48598
1.38249
1.47382
1.55235
1.61265
1.66253
1.59715
1.45996
1.34555
1.40478
1.52503
1.64295
1.6783
1.55655
1.41585
1.30433
1.34285
1.49519
1.67358
1.68172
)
;

boundaryField
{
    inlet
    {
        type            fixedValue;
        value           nonuniform 0();
    }
    outlet
    {
        type            inletOutlet;
        inletValue      uniform 1;
        value           nonuniform List<scalar> 
46
(
1.99211
2.03437
2.08162
2.13416
2.19013
2.24485
1.68358
1.68576
1.68794
1.68843
1.68734
1.68442
1.68024
1.67637
1.67362
1.67434
1.67674
1.68282
1.6963
1.71899
1.74767
1.78436
1.82537
1.86704
1.9084
1.95056
1.54627
1.54942
1.53854
1.53094
1.52415
1.5176
1.51284
1.51074
1.50972
1.51186
1.51512
1.5211
1.53111
1.54536
1.56888
1.59777
1.6328
1.66262
1.67838
1.68179
)
;
    }
    triangle
    {
        type            zeroGradient;
    }
    top
    {
        type            symmetryPlane;
    }
    bottom
    {
        type            symmetryPlane;
    }
    defaultFaces
    {
        type            empty;
    }
    procBoundary3to2
    {
        type            processor;
        value           nonuniform List<scalar> 
47
(
1.50343
1.56415
1.61337
1.64327
1.64812
1.64735
1.64649
1.66007
1.63691
1.61657
1.59892
1.58239
1.56498
1.53964
1.51466
1.48788
1.45981
1.43226
1.40257
1.37648
1.34891
1.32501
1.31254
1.31582
1.33575
1.37693
1.43729
0.999999
0.999996
0.999996
0.999994
0.999993
0.999992
0.999995
1.00011
1.00183
1.01598
1.0704
1.17039
1.28574
1.38174
1.47623
1.58332
1.6407
1.67113
1.67916
1.68432
)
;
    }
    procBoundary3to7
    {
        type            processor;
        value           nonuniform List<scalar> 8(1.95229 2.0212 2.24533 2.28859 1.78287 1.86587 1.95229 1.90981);
    }
}


// ************************************************************************* //
