/*--------------------------------*- C++ -*----------------------------------*\
  =========                 |
  \\      /  F ield         | OpenFOAM: The Open Source CFD Toolbox
   \\    /   O peration     | Website:  https://openfoam.org
    \\  /    A nd           | Version:  8
     \\/     M anipulation  |
\*---------------------------------------------------------------------------*/
FoamFile
{
    version     2.0;
    format      ascii;
    class       volScalarField;
    location    "4.4";
    object      p;
}
// * * * * * * * * * * * * * * * * * * * * * * * * * * * * * * * * * * * * * //

dimensions      [1 -1 -2 0 0 0 0];

internalField   nonuniform List<scalar> 
2600
(
1.44675
1.43625
1.38122
1.18808
1.62845
2.60806
2.87016
2.95309
2.7378
2.59085
1.45934
1.42578
1.36227
1.20031
1.67262
2.62524
2.89342
2.95627
2.74934
2.5926
1.46058
1.40746
1.347
1.22019
1.71909
2.62418
2.91125
2.95286
2.75458
2.59546
1.45884
1.39193
1.3321
1.23158
1.77095
2.61422
2.92622
2.95889
2.76555
2.60007
1.45273
1.36936
1.31602
1.24575
1.83219
2.59274
2.93214
2.9504
2.77279
2.60652
1.44441
1.34633
1.30702
1.25466
1.8943
2.56232
2.92582
2.94169
2.77547
2.61344
1.4282
1.31716
1.2977
1.27098
1.93209
2.52769
2.92325
2.92751
2.78465
2.6213
1.40838
1.28087
1.28733
1.28299
1.94473
2.50352
2.90466
2.91986
2.78157
2.62788
1.38118
1.23829
1.27556
1.31193
1.97698
2.47672
2.89101
2.91584
2.79412
2.63563
1.35277
1.18604
1.26062
1.34665
2.00754
2.45738
2.85706
2.91974
2.80066
2.63959
1.32366
1.13211
1.24058
1.40128
2.0573
2.44239
2.81378
2.91314
2.8166
2.63866
1.2913
1.07716
1.2193
1.45832
2.12141
2.43557
2.78603
2.90973
2.83153
2.64566
1.26465
1.02554
1.19147
1.53995
2.20345
2.45756
2.76515
2.89127
2.84177
2.64727
1.24054
0.977558
1.17276
1.58634
2.26226
2.49441
2.75002
2.87452
2.85202
2.64974
1.22221
0.940125
1.16187
1.65757
2.36218
2.54143
2.7341
2.85767
2.85213
2.65059
1.20611
0.911614
1.16723
1.7445
2.39682
2.58608
2.71677
2.84564
2.85131
2.65276
1.1974
0.900248
1.16749
1.79815
2.43702
2.61516
2.70363
2.83767
2.84872
2.65081
1.19423
0.905851
1.16695
1.83781
2.44587
2.61957
2.6981
2.83624
2.84683
2.64814
1.19225
0.907311
1.15593
1.85873
2.44363
2.61168
2.69708
2.8319
2.84438
2.64593
1.19981
0.937726
1.15571
1.8727
2.42334
2.60081
2.71666
2.82047
2.83654
2.64244
1.43823
0.96062
1.16786
1.85405
2.40239
2.57857
2.75531
2.81996
2.82559
2.63853
1.7003
1.01409
1.21118
1.80693
2.38539
2.56222
2.78457
2.83996
2.81857
2.63427
1.94072
1.10721
1.26982
1.76277
2.37301
2.53421
2.76864
2.85772
2.81848
2.62923
2.12355
1.25009
1.33598
1.73523
2.33649
2.4879
2.72936
2.86164
2.81953
2.62568
2.28312
1.42873
1.39124
1.72181
2.28777
2.4316
2.68485
2.85264
2.81522
2.62099
2.42822
1.60032
1.45149
1.71898
2.2346
2.37365
2.64395
2.83848
2.80492
2.61512
2.56244
1.7696
1.52019
1.73102
2.1805
2.32375
2.61862
2.82334
2.79455
2.60985
2.68632
1.92676
1.58718
1.75444
2.12036
2.29254
2.60478
2.81076
2.78532
2.60488
2.80134
2.07175
1.67415
1.78583
2.06006
2.26356
2.59921
2.80445
2.77576
2.59695
2.90777
2.20756
1.77337
1.81419
2.00056
2.22255
2.59907
2.80661
2.76779
2.58782
3.00883
2.33637
1.87477
1.84437
1.96275
2.17157
2.59167
2.81275
2.76418
2.58044
3.10642
2.45447
1.97586
1.87953
1.95212
2.11597
2.56863
2.8152
2.76432
2.57427
3.20334
2.56248
2.07546
1.91778
1.95503
2.06553
2.5289
2.8102
2.7638
2.56878
3.30463
2.66274
2.16753
1.95895
1.96538
2.03199
2.4748
2.7877
2.76277
2.56272
3.41423
2.75646
2.25924
2.0083
1.97484
2.00343
2.4109
2.76117
2.76154
2.55662
3.53759
2.84587
2.34699
2.06858
1.98025
1.977
2.33828
2.73394
2.75941
2.55011
3.66666
2.93811
2.43383
2.13922
1.99032
1.95514
2.26052
2.69885
2.75569
2.54339
3.80187
3.03612
2.52319
2.21135
2.01095
1.94036
2.17398
2.6464
2.74921
2.53544
3.93832
3.14126
2.61412
2.2841
2.04669
1.93438
2.08388
2.56802
2.7342
2.52524
4.07187
3.25357
2.71036
2.35536
2.09271
1.9347
2.01507
2.45897
2.70607
2.51349
6.50747
6.21046
5.95866
5.70375
5.46141
5.23321
5.00394
4.76105
4.45003
4.06837
6.01647
5.76615
5.58577
5.39979
5.22489
5.04263
4.84371
4.61128
4.30129
3.83209
5.82642
5.66014
5.5164
5.34602
5.17891
5.00001
4.80608
4.58059
4.27426
3.8115
5.59538
5.49588
5.37456
5.22832
5.08077
4.91553
4.73601
4.51728
4.22134
3.74151
5.38971
5.35523
5.24555
5.12107
4.98881
4.83694
4.67527
4.46459
4.17532
3.70567
5.18987
5.21872
5.10476
5.0063
4.895
4.76585
4.62333
4.42053
4.13952
3.69322
4.99668
5.08859
4.97759
4.9056
4.81174
4.71111
4.58519
4.38918
4.11625
3.69528
4.78921
4.95052
4.85959
4.81161
4.74568
4.67404
4.5546
4.36515
4.10042
3.70639
4.55362
4.81439
4.7667
4.74584
4.71847
4.65923
4.53702
4.34985
4.09147
3.72198
4.28942
4.70009
4.71394
4.73341
4.71936
4.65
4.51718
4.33701
4.0854
3.74103
3.92644
4.60577
4.71989
4.74909
4.71887
4.64281
4.50083
4.32924
4.08228
3.76565
3.2179
4.4882
4.77202
4.77414
4.72794
4.63976
4.49628
4.32737
4.08024
3.79296
2.53604
3.92317
4.70764
4.7884
4.74646
4.64802
4.49948
4.32765
4.08636
3.82426
2.04473
2.96667
4.5253
4.81146
4.74215
4.64699
4.50487
4.33674
4.10223
3.86645
1.75392
2.07821
3.842
4.81587
4.76508
4.66998
4.52764
4.35496
4.1262
3.92526
1.58233
1.67229
2.63308
4.51889
4.80091
4.69416
4.53433
4.3626
4.1639
4.01097
1.46385
1.50532
1.74964
3.68746
4.75973
4.70697
4.56097
4.38288
4.21875
4.11048
1.37576
1.40874
1.45984
2.39035
4.49039
4.66091
4.55031
4.43518
4.31186
4.23984
1.31143
1.34151
1.37064
1.58708
3.6223
4.63077
4.59919
4.49054
4.44269
4.39849
1.25964
1.28411
1.31561
1.3589
2.36247
4.322
4.64122
4.6003
4.60185
4.56112
1.00207
1.00644
1.01129
1.01665
1.02266
1.02934
1.03676
1.04584
1.05278
2.98043
1.00207
1.00644
1.01129
1.01665
1.02266
1.02934
1.03676
1.04584
1.0528
2.93738
1.00207
1.00644
1.01129
1.01665
1.02266
1.02934
1.03675
1.04583
1.05283
2.86631
1.00207
1.00644
1.01129
1.01665
1.02265
1.02934
1.03675
1.04583
1.05286
2.77431
1.00207
1.00644
1.01129
1.01665
1.02265
1.02934
1.03675
1.04582
1.05291
2.67125
1.00207
1.00644
1.01129
1.01665
1.02265
1.02934
1.03675
1.04581
1.05293
2.56007
1.00207
1.00644
1.01129
1.01665
1.02265
1.02934
1.03674
1.04581
1.05289
2.44312
1.00207
1.00644
1.01129
1.01665
1.02265
1.02934
1.03674
1.04582
1.05281
2.32082
1.00207
1.00644
1.01129
1.01666
1.02265
1.02934
1.03674
1.04582
1.05276
2.18984
1.00207
1.00644
1.01129
1.01666
1.02265
1.02935
1.03674
1.04583
1.05272
2.04883
1.00207
1.00644
1.01129
1.01666
1.02265
1.02935
1.03674
1.04584
1.05271
1.89361
1.00207
1.00644
1.01129
1.01666
1.02264
1.02935
1.03673
1.04585
1.05271
1.74726
1.00207
1.00644
1.01129
1.01666
1.02264
1.02935
1.03673
1.04586
1.05272
1.61491
1.00207
1.00644
1.01129
1.01666
1.02264
1.02935
1.03673
1.04586
1.05274
1.50507
1.00207
1.00644
1.01129
1.01666
1.02264
1.02935
1.03673
1.04586
1.05276
1.41614
1.00207
1.00644
1.01128
1.01666
1.02264
1.02935
1.03673
1.04586
1.05279
1.34265
1.00207
1.00644
1.01128
1.01666
1.02264
1.02935
1.03673
1.04585
1.05281
1.28804
1.00207
1.00644
1.01128
1.01666
1.02264
1.02935
1.03673
1.04585
1.05284
1.24449
1.00207
1.00644
1.01128
1.01666
1.02264
1.02935
1.03673
1.04584
1.05288
1.20282
1.00207
1.00644
1.01128
1.01666
1.02264
1.02935
1.03673
1.04583
1.05292
1.16889
1.00207
1.00644
1.01128
1.01666
1.02264
1.02935
1.03673
1.04583
1.05292
1.16896
1.00207
1.00644
1.01128
1.01666
1.02264
1.02935
1.03673
1.04584
1.05288
1.20289
1.00207
1.00644
1.01128
1.01666
1.02264
1.02935
1.03673
1.04585
1.05284
1.24453
1.00207
1.00644
1.01128
1.01666
1.02264
1.02935
1.03673
1.04585
1.05281
1.28803
1.00207
1.00644
1.01128
1.01666
1.02264
1.02935
1.03673
1.04586
1.05279
1.3426
1.00207
1.00644
1.01129
1.01666
1.02264
1.02935
1.03673
1.04586
1.05276
1.41603
1.00207
1.00644
1.01129
1.01666
1.02264
1.02935
1.03673
1.04586
1.05274
1.50487
1.00207
1.00644
1.01129
1.01666
1.02264
1.02935
1.03673
1.04586
1.05272
1.61459
1.00207
1.00644
1.01129
1.01666
1.02264
1.02935
1.03673
1.04585
1.05271
1.74683
1.00207
1.00644
1.01129
1.01666
1.02265
1.02935
1.03674
1.04584
1.05271
1.89311
1.00207
1.00644
1.01129
1.01666
1.02265
1.02935
1.03674
1.04583
1.05272
2.04828
1.00207
1.00644
1.01129
1.01666
1.02265
1.02934
1.03674
1.04582
1.05276
2.18935
1.00207
1.00644
1.01129
1.01665
1.02265
1.02934
1.03674
1.04582
1.05281
2.32038
1.00207
1.00644
1.01129
1.01665
1.02265
1.02934
1.03674
1.04581
1.05289
2.4427
1.00207
1.00644
1.01129
1.01665
1.02265
1.02934
1.03675
1.04581
1.05293
2.55969
1.00207
1.00644
1.01129
1.01665
1.02265
1.02934
1.03675
1.04582
1.05291
2.67091
1.00207
1.00644
1.01129
1.01665
1.02265
1.02934
1.03675
1.04583
1.05286
2.77404
1.00207
1.00644
1.01129
1.01665
1.02266
1.02934
1.03675
1.04583
1.05283
2.86609
1.00207
1.00644
1.01129
1.01665
1.02266
1.02934
1.03676
1.04584
1.0528
2.93723
1.00207
1.00644
1.01129
1.01665
1.02266
1.02934
1.03675
1.04584
1.05279
2.98035
1.25978
1.28426
1.3158
1.35908
2.35993
4.31734
4.63729
4.5981
4.59787
4.56064
1.31155
1.34166
1.3708
1.58672
3.61857
4.62689
4.59494
4.48932
4.43876
4.3999
1.37585
1.40885
1.45996
2.38793
4.4885
4.65843
4.54655
4.43383
4.30968
4.24266
1.46388
1.50536
1.74935
3.68393
4.7564
4.70469
4.55804
4.38268
4.21815
4.1148
1.58224
1.67211
2.63123
4.51622
4.79747
4.69266
4.53246
4.36185
4.16659
4.01558
1.7536
2.07718
3.83909
4.81357
4.76248
4.66845
4.52706
4.35387
4.13272
3.93055
2.0439
2.9642
4.5223
4.80966
4.74041
4.64586
4.50564
4.33553
4.11335
3.87283
2.53442
3.92057
4.70557
4.78708
4.74553
4.64676
4.50187
4.32571
4.10199
3.83301
3.21572
4.48657
4.77078
4.7727
4.72831
4.63781
4.5009
4.32513
4.09679
3.80653
3.92418
4.60458
4.71942
4.74778
4.72013
4.6407
4.50636
4.32904
4.09657
3.78493
4.28827
4.69913
4.71367
4.73217
4.72062
4.64929
4.52104
4.34028
4.09912
3.76404
4.55248
4.81361
4.76637
4.74513
4.7191
4.66009
4.54008
4.3554
4.10599
3.74723
4.78831
4.94989
4.85919
4.81133
4.746
4.6752
4.55795
4.37214
4.11597
3.73279
4.99597
5.0881
4.9773
4.90554
4.81222
4.71236
4.58861
4.39699
4.13245
3.72219
5.18933
5.21836
5.10455
5.00632
4.89553
4.76727
4.62676
4.42858
4.15565
3.71948
5.38927
5.35494
5.24541
5.12117
4.98936
4.83843
4.67866
4.47241
4.1907
3.73069
5.59498
5.49561
5.37443
5.22843
5.08129
4.91695
4.7393
4.5245
4.23545
3.76539
5.82607
5.65988
5.51625
5.34608
5.17936
5.00127
4.80911
4.58711
4.2871
3.83594
6.01621
5.76591
5.58559
5.39978
5.22522
5.04374
4.84635
4.61745
4.31295
3.85756
6.5071
6.21018
5.95844
5.70377
5.46159
5.23416
5.00589
4.76615
4.45943
4.09171
4.08505
3.3045
2.73091
2.30906
1.97062
1.95297
2.16118
2.58457
2.6944
2.50299
3.95717
3.19962
2.63985
2.23195
1.91279
1.94515
2.23354
2.6306
2.70002
2.50562
3.8269
3.10237
2.55373
2.15541
1.86641
1.93881
2.31065
2.66449
2.70137
2.50812
3.69989
3.00956
2.47193
2.08062
1.83317
1.94035
2.38964
2.6933
2.70074
2.50938
3.58038
2.92247
2.3894
2.00547
1.80266
1.95639
2.46591
2.71055
2.701
2.51189
3.46628
2.8371
2.3101
1.93145
1.77988
1.98214
2.53507
2.7207
2.70259
2.51662
3.36436
2.7473
2.22918
1.85642
1.75882
2.01568
2.59244
2.72526
2.70924
2.52549
3.27023
2.64866
2.14563
1.7822
1.74059
2.05637
2.63987
2.72991
2.71478
2.53413
3.17993
2.53923
2.0589
1.70596
1.72071
2.09783
2.67812
2.74068
2.7186
2.53992
3.09075
2.41732
1.97177
1.63678
1.69561
2.13808
2.7082
2.75918
2.72188
2.54458
3.00055
2.28388
1.88429
1.57679
1.66009
2.17578
2.72985
2.78129
2.71906
2.54589
2.90632
2.14434
1.80489
1.52766
1.62265
2.21562
2.74653
2.8042
2.71715
2.54994
2.80513
2.00112
1.73036
1.48156
1.58772
2.26259
2.75856
2.82767
2.7189
2.5549
2.69357
1.86441
1.66717
1.43767
1.56198
2.31884
2.77168
2.85005
2.71886
2.56083
2.5686
1.73563
1.61023
1.39651
1.54705
2.38251
2.78325
2.87066
2.71734
2.56787
2.42845
1.62938
1.56012
1.35658
1.5443
2.44586
2.7876
2.89247
2.71768
2.57669
2.25898
1.54272
1.52067
1.32453
1.56107
2.50306
2.79075
2.91449
2.71873
2.58346
2.06991
1.48811
1.4799
1.29351
1.58555
2.54139
2.79852
2.93242
2.72372
2.58288
1.8602
1.46518
1.4453
1.26133
1.61
2.57057
2.81858
2.94141
2.72761
2.58338
1.65022
1.44215
1.40443
1.21153
1.60977
2.59047
2.84446
2.94887
2.73311
2.58834
5.52283
5.10571
4.66366
4.16897
3.68814
3.20024
2.7277
2.2836
1.74974
1.4482
5.52633
5.09579
4.65081
4.16409
3.67905
3.19162
2.7201
2.2747
1.74728
1.4572
5.52436
5.07941
4.63483
4.15462
3.663
3.17692
2.70677
2.25919
1.74337
1.46376
5.51426
5.05282
4.61001
4.13732
3.64158
3.15616
2.6876
2.23732
1.73955
1.47766
5.48848
5.01577
4.57999
4.11529
3.61323
3.12761
2.66108
2.20777
1.7355
1.50121
5.4332
4.97277
4.54709
4.08392
3.57814
3.09214
2.62745
2.16945
1.73328
1.53775
5.35398
4.94242
4.51435
4.04193
3.53665
3.04915
2.58624
2.12429
1.73274
1.59051
5.29348
4.91928
4.47558
3.98966
3.48768
3.0003
2.53748
2.07215
1.73482
1.65883
5.25283
4.8838
4.42844
3.92809
3.43187
2.94628
2.48255
2.02064
1.74499
1.742
5.22192
4.84124
4.36804
3.85728
3.36766
2.8871
2.41862
1.97367
1.7656
1.83309
5.2109
4.78698
4.28518
3.7763
3.29525
2.8215
2.34738
1.94263
1.80866
1.92568
5.18877
4.70275
4.1791
3.68565
3.21238
2.73955
2.26198
1.92694
1.86975
2.01218
5.10134
4.59143
4.07021
3.58875
3.11652
2.66953
2.18095
1.93157
1.94681
2.09487
5.01711
4.48872
3.97458
3.4735
2.98826
2.53224
2.10842
1.94691
2.04771
2.17141
4.96243
4.39416
3.85068
3.35356
2.87229
2.41304
2.06313
1.97017
2.15779
2.23921
4.85992
4.27029
3.71632
3.15125
2.69277
2.28836
2.0395
2.01338
2.27005
2.29646
4.70254
4.11148
3.51374
2.97025
2.53685
2.1757
2.04315
2.08544
2.38223
2.3455
4.57086
3.94941
3.31969
2.79525
2.37935
2.08579
2.05175
2.19676
2.49388
2.3888
4.44125
3.71035
3.10526
2.61378
2.222
2.02691
2.05995
2.34154
2.5942
2.44114
4.25194
3.47944
2.88571
2.43732
2.06814
1.98342
2.08456
2.49036
2.66272
2.48285
4.24188
3.44103
2.86881
2.47196
2.18138
1.95167
1.971
2.27363
2.62663
2.48174
4.4372
3.68526
3.08972
2.63666
2.30986
2.00336
1.95963
2.10317
2.48857
2.42277
4.5684
3.93656
3.30585
2.80675
2.44532
2.0848
1.94641
2.00076
2.35732
2.35666
4.70359
4.10275
3.5013
2.97664
2.58096
2.18809
1.94816
1.95669
2.2479
2.29639
4.86301
4.26601
3.71102
3.17243
2.72206
2.30896
1.98109
1.93334
2.14987
2.24115
4.96591
4.39528
3.84996
3.33611
2.8615
2.42623
2.03744
1.92905
2.06153
2.18196
5.02258
4.49391
3.97427
3.48698
3.00289
2.55044
2.10961
1.92851
1.98647
2.11804
5.1087
4.60044
4.07563
3.60133
3.12521
2.67362
2.19627
1.93198
1.92203
2.05215
5.19598
4.71435
4.18867
3.70107
3.2283
2.75649
2.27619
1.93477
1.86919
1.98375
5.2177
4.79895
4.29662
3.79326
3.31696
2.84139
2.36016
1.96135
1.8227
1.91316
5.22833
4.85253
4.3783
3.87639
3.39219
2.90726
2.42642
1.98484
1.78585
1.84064
5.25884
4.89367
4.43799
3.94571
3.45338
2.96445
2.48844
2.02505
1.76561
1.76819
5.2989
4.92628
4.48442
4.00387
3.5033
3.0131
2.5386
2.07077
1.754
1.69661
5.35914
4.946
4.52158
4.05168
3.54586
3.05558
2.58301
2.11652
1.7497
1.63168
5.43596
4.97402
4.5516
4.0894
3.58212
3.09352
2.62212
2.15715
1.74869
1.57648
5.48772
5.01444
4.58123
4.11728
3.61435
3.12622
2.65488
2.19363
1.74461
1.53107
5.51071
5.04943
4.60752
4.1365
3.64154
3.15425
2.68256
2.22478
1.73733
1.49738
5.51881
5.07442
4.62973
4.15218
3.66283
3.17529
2.70343
2.24928
1.73024
1.4707
5.51948
5.08959
4.64412
4.1608
3.67851
3.19017
2.71793
2.26715
1.72662
1.4566
5.51531
5.09852
4.65582
4.16538
3.68717
3.19888
2.72627
2.27771
1.72464
1.4443
1.20815
1.22553
1.25111
1.27432
1.46119
3.18517
4.69269
4.86813
4.86481
4.76271
1.16478
1.17627
1.19131
1.21095
1.23298
1.64761
4.07732
5.23525
5.13639
4.96256
1.13374
1.14164
1.15295
1.16672
1.17982
1.21661
2.95267
5.37215
5.23664
5.04456
1.11206
1.11784
1.12627
1.13566
1.14929
1.15736
1.76345
4.96365
5.355
5.14976
1.09816
1.10224
1.1076
1.11438
1.12415
1.13148
1.19904
4.15586
5.55489
5.30072
1.08921
1.09212
1.0956
1.10039
1.10615
1.11418
1.11972
3.13514
5.47939
5.29993
1.08353
1.08572
1.08822
1.09162
1.09535
1.10162
1.10522
2.19539
5.17037
5.31924
1.07981
1.08155
1.08356
1.08604
1.08875
1.09299
1.0961
1.44277
4.73071
5.45218
1.07711
1.07863
1.08039
1.08245
1.08469
1.08769
1.09021
1.12514
4.06986
5.51991
1.0753
1.07657
1.07808
1.07978
1.08177
1.08407
1.08676
1.08818
3.39547
5.50435
1.07417
1.07531
1.07666
1.07809
1.07985
1.08161
1.08436
1.08573
2.76494
5.40758
1.07336
1.07443
1.07567
1.07699
1.07852
1.08018
1.08235
1.0839
2.26444
5.22401
1.07281
1.07383
1.07496
1.07623
1.07761
1.07911
1.08104
1.08246
1.87941
4.98522
1.07245
1.07342
1.0745
1.07569
1.07702
1.07841
1.08017
1.08146
1.55738
4.74894
1.07223
1.07316
1.0742
1.07534
1.07661
1.07795
1.07961
1.08081
1.27585
4.50491
1.07207
1.07299
1.074
1.07511
1.07633
1.07763
1.07922
1.08038
1.13079
4.19787
1.07197
1.07288
1.07387
1.07496
1.07615
1.07742
1.07897
1.08012
1.09652
3.92487
1.07189
1.07279
1.07377
1.07485
1.07602
1.07728
1.07882
1.07997
1.08799
3.7251
1.07184
1.07273
1.07372
1.07479
1.07597
1.07723
1.07874
1.07989
1.08539
3.60049
1.07178
1.07267
1.07366
1.07475
1.07593
1.07721
1.07871
1.07987
1.08472
3.5388
1.00207
1.00644
1.01128
1.01666
1.02264
1.02935
1.03673
1.04581
1.05298
1.143
1.00207
1.00644
1.01128
1.01666
1.02264
1.02935
1.03673
1.04578
1.05307
1.11971
1.00207
1.00644
1.01128
1.01666
1.02264
1.02935
1.03674
1.04575
1.05319
1.10009
1.00207
1.00644
1.01128
1.01666
1.02264
1.02935
1.03674
1.04571
1.05334
1.08761
1.00207
1.00644
1.01128
1.01666
1.02264
1.02935
1.03675
1.04567
1.05351
1.08041
1.00207
1.00644
1.01128
1.01666
1.02264
1.02935
1.03675
1.04563
1.05368
1.07555
1.00207
1.00644
1.01128
1.01666
1.02264
1.02935
1.03676
1.04559
1.05385
1.07234
1.00207
1.00644
1.01128
1.01666
1.02264
1.02935
1.03676
1.04555
1.05402
1.0701
1.00207
1.00644
1.01128
1.01666
1.02264
1.02935
1.03677
1.04551
1.05417
1.06853
1.00207
1.00644
1.01128
1.01666
1.02264
1.02935
1.03678
1.04547
1.05431
1.06754
1.00207
1.00644
1.01128
1.01666
1.02264
1.02935
1.03678
1.04544
1.05443
1.06689
1.00207
1.00644
1.01128
1.01666
1.02264
1.02935
1.03678
1.04542
1.05453
1.06645
1.00207
1.00644
1.01128
1.01666
1.02263
1.02935
1.03679
1.04541
1.05461
1.06617
1.00207
1.00644
1.01128
1.01666
1.02263
1.02935
1.03679
1.0454
1.05468
1.066
1.00207
1.00644
1.01128
1.01667
1.02263
1.02936
1.03678
1.0454
1.05474
1.06589
1.00207
1.00644
1.01128
1.01667
1.02263
1.02936
1.03678
1.0454
1.05479
1.06582
1.00207
1.00644
1.01128
1.01667
1.02263
1.02937
1.03678
1.04539
1.05483
1.06577
1.00207
1.00644
1.01128
1.01667
1.02263
1.02937
1.03678
1.04539
1.05487
1.06574
1.00207
1.00644
1.01128
1.01667
1.02262
1.02937
1.03678
1.04537
1.05489
1.06572
1.00207
1.00645
1.01128
1.01667
1.02262
1.02938
1.03678
1.04539
1.05492
1.06569
1.00207
1.00645
1.01128
1.01667
1.02262
1.02938
1.03678
1.04539
1.05492
1.06569
1.00207
1.00644
1.01128
1.01667
1.02262
1.02937
1.03678
1.04537
1.05489
1.06572
1.00207
1.00644
1.01128
1.01667
1.02263
1.02937
1.03678
1.04539
1.05487
1.06574
1.00207
1.00644
1.01128
1.01667
1.02263
1.02937
1.03678
1.04539
1.05483
1.06577
1.00207
1.00644
1.01128
1.01667
1.02263
1.02936
1.03678
1.0454
1.05479
1.06582
1.00207
1.00644
1.01128
1.01667
1.02263
1.02936
1.03678
1.0454
1.05474
1.06589
1.00207
1.00644
1.01128
1.01666
1.02263
1.02935
1.03679
1.0454
1.05468
1.066
1.00207
1.00644
1.01128
1.01666
1.02263
1.02935
1.03679
1.04541
1.05461
1.06617
1.00207
1.00644
1.01128
1.01666
1.02264
1.02935
1.03678
1.04542
1.05453
1.06645
1.00207
1.00644
1.01128
1.01666
1.02264
1.02935
1.03678
1.04544
1.05443
1.06689
1.00207
1.00644
1.01128
1.01666
1.02264
1.02935
1.03678
1.04547
1.05431
1.06754
1.00207
1.00644
1.01128
1.01666
1.02264
1.02935
1.03677
1.04551
1.05417
1.06853
1.00207
1.00644
1.01128
1.01666
1.02264
1.02935
1.03676
1.04555
1.05402
1.07011
1.00207
1.00644
1.01128
1.01666
1.02264
1.02935
1.03676
1.04559
1.05385
1.07236
1.00207
1.00644
1.01128
1.01666
1.02264
1.02935
1.03675
1.04563
1.05368
1.07557
1.00207
1.00644
1.01128
1.01666
1.02264
1.02935
1.03675
1.04567
1.05351
1.08044
1.00207
1.00644
1.01128
1.01666
1.02264
1.02935
1.03674
1.04571
1.05334
1.08765
1.00207
1.00644
1.01128
1.01666
1.02264
1.02935
1.03674
1.04575
1.05319
1.10016
1.00207
1.00644
1.01128
1.01666
1.02264
1.02935
1.03673
1.04578
1.05307
1.11979
1.00207
1.00644
1.01128
1.01666
1.02264
1.02935
1.03673
1.04581
1.05298
1.14307
1.07178
1.07267
1.07366
1.07475
1.07593
1.07721
1.07871
1.07987
1.08463
3.54002
1.07184
1.07273
1.07372
1.07479
1.07597
1.07723
1.07874
1.0799
1.0853
3.60318
1.07189
1.07279
1.07377
1.07485
1.07602
1.07729
1.07882
1.07997
1.08795
3.72962
1.07197
1.07288
1.07387
1.07496
1.07615
1.07742
1.07897
1.08012
1.09681
3.93229
1.07208
1.07299
1.074
1.07511
1.07633
1.07763
1.07922
1.08038
1.1329
4.20773
1.07223
1.07316
1.0742
1.07534
1.07661
1.07794
1.0796
1.08081
1.28446
4.51433
1.07245
1.07342
1.0745
1.07569
1.07702
1.07841
1.08017
1.08146
1.5689
4.75493
1.07281
1.07383
1.07496
1.07623
1.07761
1.07911
1.08104
1.08245
1.89162
4.9911
1.07336
1.07443
1.07567
1.07699
1.07852
1.08018
1.08235
1.0839
2.27748
5.22795
1.07417
1.07532
1.07665
1.07809
1.07984
1.08161
1.08437
1.08572
2.77857
5.40691
1.0753
1.07657
1.07809
1.07978
1.08177
1.08409
1.08675
1.0882
3.40778
5.50185
1.07712
1.07864
1.0804
1.08246
1.08471
1.0877
1.09023
1.12628
4.07716
5.5169
1.07982
1.08156
1.08358
1.08606
1.08877
1.09303
1.09615
1.44836
4.73294
5.44635
1.08355
1.08575
1.08825
1.09166
1.0954
1.10169
1.10531
2.198
5.1706
5.31523
1.08925
1.09216
1.09565
1.10046
1.10623
1.11429
1.11983
3.13277
5.47569
5.29529
1.09822
1.10231
1.10769
1.11448
1.12428
1.13164
1.19876
4.15104
5.55017
5.29562
1.11215
1.11794
1.12639
1.13581
1.14946
1.15755
1.75958
4.95844
5.35065
5.14522
1.13387
1.14178
1.15311
1.1669
1.18004
1.21675
2.94509
5.36764
5.23197
5.04051
1.16493
1.17643
1.19149
1.21117
1.23321
1.64641
4.06967
5.23114
5.13148
4.95876
1.20829
1.22569
1.2513
1.27455
1.46091
3.18028
4.688
4.86481
4.86034
4.76044
)
;

boundaryField
{
    inlet
    {
        type            fixedValue;
        value           uniform 1;
    }
    outlet
    {
        type            zeroGradient;
    }
    triangle
    {
        type            zeroGradient;
    }
    top
    {
        type            symmetryPlane;
    }
    bottom
    {
        type            symmetryPlane;
    }
    defaultFaces
    {
        type            empty;
    }
}


// ************************************************************************* //
