/*--------------------------------*- C++ -*----------------------------------*\
  =========                 |
  \\      /  F ield         | OpenFOAM: The Open Source CFD Toolbox
   \\    /   O peration     | Website:  https://openfoam.org
    \\  /    A nd           | Version:  8
     \\/     M anipulation  |
\*---------------------------------------------------------------------------*/
FoamFile
{
    version     2.0;
    format      ascii;
    class       volScalarField;
    location    "4.4";
    object      T;
}
// * * * * * * * * * * * * * * * * * * * * * * * * * * * * * * * * * * * * * //

dimensions      [0 0 0 1 0 0 0];

internalField   nonuniform List<scalar> 
2600
(
1.74898
1.74184
1.67115
1.42095
1.45291
1.55967
1.71296
1.81645
1.74121
1.57864
1.77543
1.74377
1.66543
1.44562
1.48682
1.57908
1.7484
1.85173
1.77707
1.59825
1.77306
1.73898
1.66335
1.47197
1.52162
1.60064
1.78453
1.87255
1.7942
1.61304
1.76849
1.73936
1.6829
1.50634
1.55975
1.62504
1.8192
1.88387
1.79935
1.62403
1.76472
1.74281
1.71423
1.56282
1.6052
1.65131
1.84795
1.88652
1.79899
1.63346
1.76295
1.74571
1.73439
1.6317
1.6575
1.6802
1.86808
1.88703
1.79616
1.64323
1.75916
1.74185
1.73862
1.69491
1.70881
1.71226
1.88316
1.88371
1.79459
1.65537
1.75327
1.72809
1.73352
1.73244
1.75859
1.74865
1.89221
1.8783
1.79202
1.67077
1.74317
1.70651
1.72295
1.74965
1.81405
1.78502
1.89944
1.86887
1.79144
1.68939
1.73171
1.68133
1.71135
1.75134
1.85838
1.82032
1.89996
1.85292
1.78612
1.70709
1.72
1.65808
1.70061
1.75566
1.89173
1.85083
1.89557
1.82671
1.77763
1.71861
1.70742
1.63586
1.69222
1.76446
1.91476
1.87364
1.8878
1.795
1.76412
1.72402
1.69716
1.61462
1.68459
1.78897
1.93414
1.89387
1.8763
1.75799
1.74544
1.72382
1.68778
1.59394
1.67936
1.80285
1.947
1.91401
1.86417
1.72233
1.72346
1.72029
1.68011
1.57465
1.67035
1.81788
1.97301
1.93593
1.84975
1.68911
1.69785
1.71217
1.67248
1.55123
1.65202
1.82526
1.98189
1.95453
1.82945
1.65895
1.67195
1.70069
1.66743
1.52805
1.60861
1.79421
1.98404
1.96172
1.79887
1.63189
1.64696
1.68505
1.66544
1.50198
1.54771
1.7292
1.95743
1.94625
1.75634
1.6088
1.62424
1.6656
1.66508
1.46012
1.48409
1.6534
1.89613
1.89327
1.70556
1.58889
1.60429
1.64262
1.659
1.42187
1.43677
1.59607
1.81185
1.80712
1.6587
1.57183
1.5865
1.61695
1.63777
1.37619
1.40176
1.54875
1.72227
1.70943
1.61989
1.55855
1.56935
1.58818
1.59804
1.35481
1.38183
1.5017
1.64576
1.63235
1.58946
1.54965
1.55374
1.55916
1.57824
1.35205
1.36897
1.46118
1.59381
1.58317
1.5642
1.54248
1.5415
1.53481
1.56705
1.36939
1.35804
1.43024
1.55461
1.54769
1.54205
1.53496
1.53153
1.51613
1.56341
1.40093
1.34591
1.41066
1.52364
1.51957
1.52375
1.52656
1.52253
1.50216
1.56381
1.42285
1.34502
1.39888
1.49818
1.49675
1.50966
1.51825
1.51379
1.49181
1.56599
1.4374
1.35238
1.39286
1.47557
1.47724
1.50028
1.5104
1.50596
1.48432
1.56967
1.4486
1.3596
1.38973
1.45223
1.46198
1.49432
1.50338
1.49904
1.47879
1.57365
1.45923
1.37046
1.38762
1.42953
1.44815
1.49023
1.49747
1.49259
1.47386
1.57653
1.46985
1.38441
1.38388
1.40837
1.43378
1.48697
1.49264
1.48669
1.46925
1.57765
1.48003
1.39896
1.3801
1.3936
1.41894
1.48098
1.48787
1.4815
1.46525
1.57702
1.48855
1.40997
1.38017
1.38521
1.40298
1.46985
1.48158
1.47692
1.46154
1.57506
1.49496
1.4187
1.38133
1.3797
1.38636
1.45387
1.47349
1.47279
1.45787
1.57191
1.49895
1.42531
1.38226
1.37574
1.37081
1.43495
1.46242
1.46984
1.45384
1.56785
1.50039
1.43131
1.38339
1.37124
1.3545
1.41503
1.45196
1.46772
1.44983
1.56401
1.50001
1.43556
1.38573
1.36435
1.33819
1.3945
1.44336
1.46594
1.44596
1.56099
1.4989
1.43816
1.38883
1.35626
1.324
1.37376
1.43507
1.46382
1.44232
1.5604
1.49705
1.43941
1.3907
1.34892
1.31302
1.3515
1.425
1.46041
1.43893
1.56108
1.49514
1.43965
1.3915
1.34432
1.30431
1.32836
1.41052
1.45547
1.4353
1.56317
1.49421
1.44
1.39134
1.34213
1.29678
1.30934
1.38995
1.44842
1.43107
2.22004
2.18883
2.15848
2.12611
2.09413
2.06321
2.03184
1.99842
1.9554
1.90947
2.14918
2.12051
2.09736
2.07344
2.05055
2.02644
1.99995
1.96875
1.92635
1.85788
2.08878
2.06876
2.05081
2.03048
2.01099
1.99008
1.967
1.93931
1.89973
1.82642
2.02468
2.01256
1.99829
1.98137
1.96496
1.94694
1.92721
1.9023
1.86611
1.79172
1.96483
1.96084
1.949
1.9358
1.92223
1.90676
1.89016
1.86735
1.83343
1.76326
1.90706
1.91357
1.90202
1.89292
1.88277
1.87091
1.85745
1.83644
1.80453
1.74022
1.85332
1.86962
1.85913
1.85402
1.84696
1.8395
1.82902
1.80983
1.77991
1.7215
1.80001
1.82561
1.81776
1.81691
1.81454
1.81145
1.80298
1.78574
1.75797
1.70536
1.7424
1.77996
1.77862
1.78245
1.78672
1.78586
1.7786
1.76305
1.73746
1.69022
1.67759
1.73014
1.74191
1.75326
1.76103
1.75996
1.75302
1.73989
1.71696
1.67522
1.59884
1.68144
1.70785
1.72355
1.73219
1.73233
1.7265
1.71618
1.69599
1.66019
1.47546
1.63414
1.67719
1.6923
1.70168
1.70336
1.69938
1.69158
1.67403
1.6445
1.34999
1.54785
1.63666
1.66608
1.6728
1.6743
1.67147
1.66566
1.65171
1.62815
1.25081
1.40543
1.59135
1.64692
1.64528
1.64594
1.64419
1.64034
1.62958
1.61178
1.18766
1.24968
1.5079
1.6285
1.62768
1.6262
1.62308
1.61812
1.60827
1.59615
1.14871
1.16722
1.34365
1.58382
1.62516
1.61776
1.60792
1.59918
1.59007
1.58399
1.12078
1.12986
1.18186
1.49802
1.6204
1.61538
1.60252
1.5884
1.57909
1.57742
1.09912
1.10675
1.11817
1.3089
1.59786
1.60992
1.59909
1.58838
1.58002
1.57983
1.08279
1.08998
1.09671
1.14618
1.51288
1.61531
1.60804
1.5927
1.58852
1.58781
1.06957
1.07556
1.08311
1.09327
1.31721
1.59764
1.61927
1.60872
1.60484
1.6
1.00059
1.00184
1.00321
1.00473
1.00642
1.00829
1.01036
1.01289
1.01479
1.64081
1.00059
1.00184
1.00321
1.00473
1.00642
1.00829
1.01036
1.01289
1.0148
1.62354
1.00059
1.00184
1.00321
1.00473
1.00642
1.00829
1.01036
1.01289
1.0148
1.59124
1.00059
1.00184
1.00321
1.00473
1.00642
1.00829
1.01036
1.01289
1.01481
1.55195
1.00059
1.00184
1.00321
1.00473
1.00642
1.0083
1.01036
1.01289
1.01483
1.51141
1.00059
1.00184
1.00321
1.00473
1.00642
1.0083
1.01036
1.01289
1.01483
1.47139
1.00059
1.00184
1.00321
1.00473
1.00642
1.0083
1.01036
1.01289
1.01482
1.43212
1.00059
1.00184
1.00321
1.00473
1.00642
1.0083
1.01036
1.01289
1.0148
1.39255
1.00059
1.00184
1.00321
1.00473
1.00642
1.0083
1.01036
1.01289
1.01479
1.35031
1.00059
1.00184
1.00321
1.00473
1.00642
1.0083
1.01036
1.01289
1.01478
1.30313
1.00059
1.00184
1.00321
1.00473
1.00642
1.0083
1.01036
1.01289
1.01477
1.25178
1.00059
1.00184
1.00321
1.00473
1.00642
1.0083
1.01036
1.01289
1.01478
1.20516
1.00059
1.00184
1.00321
1.00473
1.00642
1.0083
1.01036
1.0129
1.01478
1.16596
1.00059
1.00184
1.00321
1.00473
1.00642
1.0083
1.01035
1.0129
1.01478
1.13533
1.00059
1.00184
1.00321
1.00473
1.00642
1.0083
1.01035
1.0129
1.01479
1.11156
1.00059
1.00184
1.00321
1.00473
1.00642
1.0083
1.01035
1.0129
1.0148
1.09238
1.00059
1.00184
1.00321
1.00473
1.00642
1.0083
1.01035
1.0129
1.0148
1.07802
1.00059
1.00184
1.00321
1.00473
1.00642
1.0083
1.01035
1.01289
1.01481
1.06639
1.00059
1.00184
1.00321
1.00473
1.00642
1.0083
1.01036
1.01289
1.01482
1.05528
1.00059
1.00184
1.00321
1.00473
1.00642
1.0083
1.01036
1.01289
1.01483
1.04625
1.00059
1.00184
1.00321
1.00473
1.00642
1.0083
1.01036
1.01289
1.01483
1.04627
1.00059
1.00184
1.00321
1.00473
1.00642
1.0083
1.01036
1.01289
1.01482
1.0553
1.00059
1.00184
1.00321
1.00473
1.00642
1.0083
1.01035
1.01289
1.01481
1.06641
1.00059
1.00184
1.00321
1.00473
1.00642
1.0083
1.01035
1.0129
1.0148
1.07802
1.00059
1.00184
1.00321
1.00473
1.00642
1.0083
1.01035
1.0129
1.0148
1.09238
1.00059
1.00184
1.00321
1.00473
1.00642
1.0083
1.01035
1.0129
1.01479
1.11155
1.00059
1.00184
1.00321
1.00473
1.00642
1.0083
1.01035
1.0129
1.01478
1.13529
1.00059
1.00184
1.00321
1.00473
1.00642
1.0083
1.01036
1.0129
1.01478
1.16588
1.00059
1.00184
1.00321
1.00473
1.00642
1.0083
1.01036
1.01289
1.01478
1.20503
1.00059
1.00184
1.00321
1.00473
1.00642
1.0083
1.01036
1.01289
1.01477
1.25159
1.00059
1.00184
1.00321
1.00473
1.00642
1.0083
1.01036
1.01289
1.01478
1.30291
1.00059
1.00184
1.00321
1.00473
1.00642
1.0083
1.01036
1.01289
1.01479
1.3501
1.00059
1.00184
1.00321
1.00473
1.00642
1.0083
1.01036
1.01289
1.0148
1.39237
1.00059
1.00184
1.00321
1.00473
1.00642
1.0083
1.01036
1.01289
1.01482
1.43196
1.00059
1.00184
1.00321
1.00473
1.00642
1.0083
1.01036
1.01289
1.01483
1.47125
1.00059
1.00184
1.00321
1.00473
1.00642
1.0083
1.01036
1.01289
1.01483
1.51129
1.00059
1.00184
1.00321
1.00473
1.00642
1.00829
1.01036
1.01289
1.01481
1.55185
1.00059
1.00184
1.00321
1.00473
1.00642
1.00829
1.01036
1.01289
1.01481
1.59115
1.00059
1.00184
1.00321
1.00473
1.00642
1.00829
1.01036
1.01289
1.0148
1.62347
1.00059
1.00184
1.00321
1.00473
1.00642
1.00829
1.01036
1.01289
1.0148
1.64078
1.06961
1.0756
1.08316
1.09332
1.31663
1.59701
1.6187
1.60842
1.60425
1.59985
1.08282
1.09002
1.09675
1.14609
1.51231
1.61479
1.60749
1.59255
1.58792
1.58799
1.09915
1.10678
1.1182
1.30845
1.59759
1.60956
1.5986
1.58817
1.57973
1.58033
1.1208
1.12988
1.18181
1.49752
1.61999
1.61509
1.60217
1.58846
1.57876
1.5783
1.1487
1.1672
1.34336
1.58351
1.62479
1.6176
1.60773
1.59921
1.59032
1.58483
1.18762
1.2495
1.5076
1.62826
1.62739
1.62604
1.62303
1.61813
1.60896
1.59714
1.25066
1.40504
1.59104
1.6467
1.64506
1.64584
1.64421
1.64034
1.63071
1.61291
1.3497
1.54747
1.6364
1.66586
1.67266
1.67415
1.67159
1.66555
1.65333
1.62952
1.47507
1.63384
1.67699
1.69194
1.70173
1.70309
1.69968
1.69136
1.6758
1.64637
1.59842
1.68113
1.70764
1.72313
1.73226
1.73208
1.72692
1.7161
1.69756
1.6627
1.67725
1.72979
1.74167
1.75288
1.76105
1.75978
1.75327
1.74016
1.71852
1.67818
1.74206
1.77965
1.77837
1.78216
1.78662
1.78578
1.77878
1.76358
1.73916
1.69349
1.79972
1.82534
1.81751
1.81669
1.81439
1.8114
1.80321
1.78646
1.7598
1.70888
1.85308
1.86939
1.85892
1.85384
1.84684
1.83948
1.82928
1.81066
1.78185
1.72526
1.90686
1.91338
1.90185
1.89277
1.88268
1.87093
1.85773
1.83732
1.80652
1.74414
1.96466
1.96069
1.94885
1.93568
1.92217
1.90681
1.89046
1.86823
1.8354
1.76714
2.02453
2.01243
1.99817
1.98127
1.96492
1.947
1.92752
1.90314
1.86803
1.79518
2.08865
2.06864
2.0507
2.0304
2.01096
1.99017
1.96732
1.94012
1.90158
1.82936
2.14908
2.12041
2.09727
2.07337
2.05054
2.02653
2.00023
1.96954
1.92799
1.86033
2.21994
2.18873
2.1584
2.12605
2.0941
2.06328
2.03203
1.99904
1.95662
1.91143
1.56478
1.50163
1.44371
1.38213
1.3179
1.29889
1.33633
1.40742
1.44837
1.42907
1.56334
1.50373
1.44422
1.38173
1.31535
1.30703
1.35535
1.41721
1.4506
1.43128
1.56333
1.50747
1.44465
1.38093
1.31353
1.31648
1.37625
1.42635
1.45102
1.43264
1.56516
1.51105
1.44452
1.37962
1.31448
1.32554
1.39862
1.43727
1.45095
1.4335
1.56966
1.51386
1.44218
1.37721
1.31574
1.33602
1.42082
1.44807
1.45181
1.43449
1.57509
1.51544
1.43808
1.374
1.31797
1.34858
1.44157
1.45692
1.45467
1.436
1.58078
1.51577
1.43259
1.36967
1.31994
1.36185
1.45951
1.46379
1.45987
1.43883
1.58578
1.51394
1.42628
1.36332
1.32323
1.37565
1.47421
1.4704
1.46536
1.4425
1.58981
1.50894
1.41933
1.3519
1.3292
1.38989
1.48624
1.47815
1.47061
1.44617
1.59277
1.50054
1.41203
1.33757
1.33489
1.40593
1.49744
1.48758
1.47585
1.44968
1.59459
1.48918
1.40388
1.32541
1.33371
1.42355
1.50837
1.49838
1.48055
1.45279
1.59524
1.47639
1.39703
1.31719
1.33029
1.44182
1.51866
1.51009
1.48632
1.45681
1.5946
1.46427
1.39314
1.31142
1.32705
1.4603
1.52813
1.52264
1.4942
1.46157
1.59201
1.45693
1.39452
1.30846
1.32735
1.47867
1.53847
1.53636
1.50394
1.46738
1.58764
1.45488
1.40015
1.30856
1.33061
1.49559
1.55033
1.5529
1.51627
1.47463
1.58275
1.46346
1.41337
1.31042
1.3378
1.50943
1.56443
1.57551
1.53309
1.48384
1.57792
1.48865
1.44271
1.31863
1.35122
1.5197
1.58337
1.6073
1.55669
1.49512
1.57711
1.54114
1.49626
1.33606
1.3713
1.52628
1.60834
1.65077
1.5905
1.50899
1.60024
1.62253
1.57716
1.36541
1.39697
1.53403
1.63992
1.70503
1.6353
1.52853
1.6715
1.70165
1.6459
1.39472
1.42176
1.54502
1.67642
1.76514
1.69022
1.55398
1.82772
1.78602
1.73579
1.67514
1.61167
1.5399
1.4588
1.37095
1.25009
1.17775
1.82772
1.78498
1.73443
1.67452
1.61041
1.53856
1.45747
1.3693
1.24931
1.17982
1.82692
1.78332
1.73272
1.67326
1.60804
1.53607
1.45489
1.36622
1.2476
1.18121
1.82555
1.78083
1.73001
1.671
1.60478
1.53236
1.45084
1.36156
1.24501
1.18418
1.82354
1.77747
1.7266
1.6681
1.60046
1.52712
1.44487
1.35494
1.24106
1.1894
1.81991
1.77343
1.7227
1.66403
1.59505
1.52034
1.43684
1.34605
1.23576
1.19794
1.81452
1.77027
1.71863
1.65862
1.58846
1.51171
1.42657
1.33508
1.23004
1.21065
1.81013
1.76714
1.71373
1.65171
1.58026
1.5012
1.41407
1.32165
1.2265
1.22634
1.80611
1.76174
1.70758
1.64287
1.56997
1.48856
1.39973
1.30656
1.22889
1.24316
1.80038
1.75579
1.69909
1.63105
1.55655
1.47343
1.38332
1.28968
1.23536
1.26292
1.7958
1.7479
1.68565
1.61474
1.53907
1.45539
1.36521
1.27359
1.2464
1.28476
1.79076
1.73436
1.66509
1.59267
1.51651
1.43292
1.34384
1.26316
1.25904
1.30454
1.77862
1.71272
1.6382
1.56482
1.48858
1.41039
1.32169
1.26348
1.27043
1.32193
1.76143
1.68547
1.6072
1.53057
1.45405
1.37723
1.2997
1.26684
1.28769
1.33813
1.73936
1.65273
1.56952
1.49382
1.42124
1.3486
1.2843
1.27381
1.30906
1.3556
1.70497
1.61334
1.53107
1.45088
1.38414
1.32178
1.27851
1.28363
1.33463
1.37152
1.66161
1.5733
1.49292
1.421
1.35896
1.30072
1.28256
1.29782
1.36279
1.38405
1.62277
1.5422
1.46843
1.40223
1.34065
1.28901
1.29052
1.32292
1.392
1.39431
1.59342
1.51676
1.45301
1.39066
1.3279
1.28984
1.29875
1.35591
1.41842
1.40805
1.573
1.50505
1.44557
1.38481
1.31998
1.29395
1.31309
1.38794
1.43821
1.42131
1.57191
1.49939
1.44273
1.39169
1.34177
1.28915
1.29301
1.35245
1.43032
1.42175
1.59315
1.51341
1.45094
1.39495
1.34424
1.28481
1.28174
1.31302
1.39835
1.40716
1.62281
1.54074
1.46679
1.40432
1.35174
1.29031
1.27038
1.28626
1.36565
1.39249
1.66189
1.57241
1.49139
1.42172
1.36544
1.30428
1.26431
1.2738
1.33775
1.37822
1.70535
1.61292
1.53028
1.45367
1.38817
1.32573
1.26436
1.26875
1.31388
1.36268
1.73977
1.65278
1.56925
1.49118
1.41862
1.35046
1.2762
1.26716
1.29415
1.34473
1.76205
1.6859
1.60688
1.53104
1.4544
1.37949
1.29841
1.2645
1.27844
1.32757
1.77936
1.71353
1.63838
1.56555
1.48879
1.41058
1.32384
1.26363
1.2672
1.31289
1.79139
1.73539
1.66574
1.59408
1.51823
1.43524
1.34645
1.26434
1.25975
1.29846
1.79639
1.74892
1.68663
1.61657
1.54182
1.4583
1.368
1.2758
1.25074
1.28271
1.80093
1.75672
1.70004
1.63328
1.55974
1.4764
1.38528
1.29025
1.24181
1.26546
1.80652
1.76256
1.70851
1.64498
1.57281
1.49122
1.40114
1.3067
1.2354
1.24906
1.81042
1.76766
1.71461
1.65345
1.58238
1.50309
1.41447
1.32157
1.23199
1.23454
1.81476
1.77046
1.71936
1.65984
1.58976
1.51269
1.42613
1.33424
1.23302
1.22062
1.81995
1.77342
1.72316
1.66473
1.59565
1.52059
1.43603
1.34437
1.23762
1.20775
1.82335
1.77726
1.72673
1.66836
1.60064
1.52695
1.44393
1.35273
1.24212
1.19704
1.8252
1.7805
1.72977
1.67091
1.60476
1.53209
1.45011
1.35943
1.24442
1.1893
1.82644
1.78292
1.73224
1.67296
1.60795
1.53581
1.45444
1.36444
1.2452
1.18326
1.82713
1.78451
1.7338
1.6741
1.61023
1.53831
1.45722
1.3679
1.24551
1.18007
1.82705
1.78546
1.73505
1.67468
1.61143
1.53965
1.45866
1.36984
1.24545
1.17724
1.05631
1.06069
1.06705
1.07264
1.1206
1.463
1.65074
1.64619
1.63783
1.62203
1.0449
1.04785
1.0517
1.05664
1.06214
1.17095
1.59008
1.69981
1.6833
1.65638
1.03665
1.03872
1.04166
1.04522
1.04852
1.05842
1.45392
1.74929
1.72703
1.69434
1.03086
1.03239
1.03461
1.03708
1.04063
1.04269
1.21046
1.71932
1.75619
1.73205
1.02713
1.02822
1.02965
1.03145
1.03403
1.03593
1.05541
1.66114
1.79893
1.7704
1.02472
1.0255
1.02643
1.02771
1.02925
1.03138
1.03285
1.52667
1.81443
1.79058
1.02318
1.02377
1.02445
1.02536
1.02636
1.02804
1.02899
1.33376
1.78397
1.80072
1.02217
1.02264
1.02319
1.02385
1.02458
1.02573
1.02656
1.12919
1.71677
1.81508
1.02144
1.02185
1.02233
1.02289
1.02349
1.0243
1.02498
1.03514
1.65448
1.82269
1.02095
1.0213
1.02171
1.02216
1.0227
1.02332
1.02405
1.02443
1.57408
1.82928
1.02064
1.02096
1.02132
1.02171
1.02218
1.02266
1.0234
1.02377
1.46578
1.8255
1.02043
1.02072
1.02105
1.02141
1.02182
1.02227
1.02286
1.02328
1.35905
1.80642
1.02028
1.02055
1.02086
1.02121
1.02158
1.02199
1.02251
1.02289
1.26284
1.77363
1.02018
1.02044
1.02074
1.02106
1.02142
1.0218
1.02227
1.02262
1.17217
1.73772
1.02012
1.02037
1.02066
1.02097
1.02131
1.02167
1.02212
1.02245
1.08515
1.70766
1.02008
1.02033
1.0206
1.0209
1.02123
1.02159
1.02202
1.02233
1.03724
1.67784
1.02005
1.0203
1.02057
1.02086
1.02119
1.02153
1.02195
1.02226
1.02685
1.65302
1.02003
1.02027
1.02054
1.02083
1.02115
1.02149
1.02191
1.02222
1.02442
1.633
1.02002
1.02026
1.02053
1.02082
1.02114
1.02148
1.02189
1.0222
1.02369
1.61911
1.02
1.02024
1.02051
1.02081
1.02113
1.02147
1.02188
1.02219
1.02351
1.61173
1.00059
1.00184
1.00321
1.00473
1.00642
1.0083
1.01036
1.01288
1.01485
1.03929
1.00059
1.00184
1.00321
1.00473
1.00642
1.0083
1.01036
1.01287
1.01487
1.03297
1.00059
1.00184
1.00321
1.00473
1.00642
1.0083
1.01036
1.01287
1.01491
1.02767
1.00059
1.00184
1.00321
1.00473
1.00642
1.0083
1.01036
1.01285
1.01495
1.02429
1.00059
1.00184
1.00321
1.00473
1.00642
1.0083
1.01036
1.01284
1.015
1.02234
1.00059
1.00184
1.00321
1.00473
1.00642
1.0083
1.01036
1.01283
1.01504
1.02102
1.00059
1.00184
1.00321
1.00473
1.00642
1.0083
1.01036
1.01282
1.01509
1.02014
1.00059
1.00184
1.00321
1.00473
1.00642
1.0083
1.01037
1.01281
1.01514
1.01953
1.00059
1.00184
1.00321
1.00473
1.00641
1.0083
1.01037
1.01279
1.01518
1.01911
1.00059
1.00184
1.00321
1.00473
1.00641
1.0083
1.01037
1.01278
1.01522
1.01884
1.00059
1.00184
1.00321
1.00473
1.00641
1.0083
1.01037
1.01278
1.01525
1.01866
1.00059
1.00184
1.00321
1.00473
1.00641
1.0083
1.01037
1.01277
1.01528
1.01854
1.00059
1.00184
1.00321
1.00473
1.00641
1.0083
1.01037
1.01277
1.0153
1.01847
1.00059
1.00184
1.00321
1.00473
1.00641
1.0083
1.01037
1.01276
1.01532
1.01842
1.00059
1.00184
1.00321
1.00473
1.00641
1.0083
1.01037
1.01276
1.01534
1.01839
1.00059
1.00184
1.00321
1.00473
1.00641
1.0083
1.01037
1.01276
1.01535
1.01837
1.00059
1.00184
1.00321
1.00473
1.00641
1.0083
1.01037
1.01276
1.01536
1.01836
1.00059
1.00184
1.00321
1.00473
1.00641
1.0083
1.01037
1.01276
1.01537
1.01835
1.00059
1.00184
1.00321
1.00473
1.00641
1.0083
1.01037
1.01276
1.01538
1.01835
1.00059
1.00184
1.00321
1.00473
1.00641
1.00831
1.01037
1.01276
1.01539
1.01834
1.00059
1.00184
1.00321
1.00473
1.00641
1.00831
1.01037
1.01276
1.01539
1.01834
1.00059
1.00184
1.00321
1.00473
1.00641
1.0083
1.01037
1.01276
1.01538
1.01835
1.00059
1.00184
1.00321
1.00473
1.00641
1.0083
1.01037
1.01276
1.01537
1.01835
1.00059
1.00184
1.00321
1.00473
1.00641
1.0083
1.01037
1.01276
1.01536
1.01836
1.00059
1.00184
1.00321
1.00473
1.00641
1.0083
1.01037
1.01276
1.01535
1.01837
1.00059
1.00184
1.00321
1.00473
1.00641
1.0083
1.01037
1.01276
1.01534
1.01839
1.00059
1.00184
1.00321
1.00473
1.00641
1.0083
1.01037
1.01276
1.01532
1.01842
1.00059
1.00184
1.00321
1.00473
1.00641
1.0083
1.01037
1.01277
1.0153
1.01847
1.00059
1.00184
1.00321
1.00473
1.00641
1.0083
1.01037
1.01277
1.01528
1.01854
1.00059
1.00184
1.00321
1.00473
1.00641
1.0083
1.01037
1.01278
1.01525
1.01866
1.00059
1.00184
1.00321
1.00473
1.00641
1.0083
1.01037
1.01278
1.01522
1.01884
1.00059
1.00184
1.00321
1.00473
1.00641
1.0083
1.01037
1.01279
1.01518
1.01911
1.00059
1.00184
1.00321
1.00473
1.00642
1.0083
1.01037
1.01281
1.01514
1.01954
1.00059
1.00184
1.00321
1.00473
1.00642
1.0083
1.01036
1.01282
1.01509
1.02015
1.00059
1.00184
1.00321
1.00473
1.00642
1.0083
1.01036
1.01283
1.01504
1.02102
1.00059
1.00184
1.00321
1.00473
1.00642
1.0083
1.01036
1.01284
1.015
1.02235
1.00059
1.00184
1.00321
1.00473
1.00642
1.0083
1.01036
1.01285
1.01495
1.0243
1.00059
1.00184
1.00321
1.00473
1.00642
1.0083
1.01036
1.01287
1.01491
1.02769
1.00059
1.00184
1.00321
1.00473
1.00642
1.0083
1.01036
1.01287
1.01487
1.033
1.00059
1.00184
1.00321
1.00473
1.00642
1.0083
1.01036
1.01288
1.01485
1.03931
1.02
1.02024
1.02051
1.02081
1.02113
1.02147
1.02188
1.02219
1.02349
1.6123
1.02002
1.02026
1.02053
1.02082
1.02114
1.02148
1.02189
1.0222
1.02367
1.61984
1.02003
1.02027
1.02054
1.02083
1.02115
1.02149
1.02191
1.02222
1.02441
1.63382
1.02005
1.0203
1.02057
1.02086
1.02119
1.02153
1.02195
1.02226
1.02694
1.65396
1.02008
1.02033
1.0206
1.0209
1.02123
1.02159
1.02202
1.02233
1.0379
1.67882
1.02012
1.02037
1.02066
1.02097
1.02131
1.02167
1.02212
1.02245
1.08799
1.70865
1.02018
1.02044
1.02074
1.02106
1.02142
1.0218
1.02227
1.02262
1.17551
1.73867
1.02028
1.02055
1.02086
1.02121
1.02158
1.02199
1.02251
1.02289
1.26609
1.77467
1.02043
1.02072
1.02105
1.02141
1.02182
1.02227
1.02286
1.02328
1.36209
1.80701
1.02064
1.02096
1.02132
1.02171
1.02218
1.02266
1.0234
1.02377
1.46845
1.82541
1.02095
1.0213
1.02171
1.02217
1.0227
1.02333
1.02405
1.02443
1.57577
1.82888
1.02144
1.02186
1.02233
1.02289
1.0235
1.0243
1.02498
1.03546
1.65478
1.82228
1.02218
1.02265
1.02319
1.02386
1.02459
1.02573
1.02657
1.13088
1.71692
1.81452
1.02319
1.02378
1.02445
1.02537
1.02637
1.02806
1.02901
1.3343
1.78384
1.80023
1.02473
1.02551
1.02645
1.02773
1.02927
1.03141
1.03287
1.52604
1.81382
1.78991
1.02715
1.02824
1.02967
1.03147
1.03406
1.03597
1.0553
1.66025
1.79824
1.76969
1.03088
1.03242
1.03465
1.03712
1.04067
1.04274
1.2093
1.7184
1.75553
1.7314
1.03668
1.03876
1.0417
1.04527
1.04857
1.05845
1.45238
1.74856
1.72633
1.6937
1.04493
1.0479
1.05175
1.0567
1.0622
1.17059
1.58899
1.69918
1.68262
1.6558
1.05634
1.06073
1.0671
1.07269
1.1205
1.46213
1.65008
1.6456
1.63723
1.62165
)
;

boundaryField
{
    inlet
    {
        type            fixedValue;
        value           uniform 1;
    }
    outlet
    {
        type            inletOutlet;
        inletValue      uniform 1;
        value           nonuniform List<scalar> 
100
(
1.42163
1.40696
1.39237
1.37826
1.36282
1.34489
1.32773
1.31307
1.29861
1.28283
1.26553
1.24909
1.23454
1.22065
1.20775
1.19701
1.18923
1.18317
1.17996
1.17712
1.58842
1.5593
1.5349
1.5162
1.5022
1.49185
1.48438
1.47885
1.4739
1.46931
1.46534
1.46163
1.45794
1.45389
1.44987
1.446
1.44237
1.43898
1.43534
1.43106
1.57804
1.5976
1.61237
1.62337
1.63285
1.64267
1.65485
1.67029
1.68898
1.70677
1.71849
1.72393
1.72378
1.72036
1.71235
1.70097
1.68542
1.66599
1.64301
1.61728
1.42911
1.43145
1.4328
1.43364
1.4346
1.43606
1.43887
1.44253
1.44621
1.44977
1.45286
1.45685
1.46157
1.46736
1.47456
1.48374
1.49502
1.50884
1.5282
1.55348
1.1777
1.17978
1.18117
1.18414
1.18936
1.1979
1.2106
1.22627
1.24309
1.2629
1.28482
1.30465
1.32206
1.33824
1.35572
1.37163
1.38409
1.39422
1.40791
1.42128
)
;
    }
    triangle
    {
        type            zeroGradient;
    }
    top
    {
        type            symmetryPlane;
    }
    bottom
    {
        type            symmetryPlane;
    }
    defaultFaces
    {
        type            empty;
    }
}


// ************************************************************************* //
