/*--------------------------------*- C++ -*----------------------------------*\
  =========                 |
  \\      /  F ield         | OpenFOAM: The Open Source CFD Toolbox
   \\    /   O peration     | Website:  https://openfoam.org
    \\  /    A nd           | Version:  8
     \\/     M anipulation  |
\*---------------------------------------------------------------------------*/
FoamFile
{
    version     2.0;
    format      ascii;
    class       volVectorField;
    location    "4.4";
    object      U;
}
// * * * * * * * * * * * * * * * * * * * * * * * * * * * * * * * * * * * * * //

dimensions      [0 1 -1 0 0 0 0];

internalField   nonuniform List<vector> 
2600
(
(0.788362 0.00196098 0)
(0.830478 -0.0212281 0)
(1.19704 0.00144078 0)
(1.72727 0.403598 0)
(1.81594 0.486206 0)
(1.2687 0.276413 0)
(1.16396 0.0734774 0)
(1.17052 -0.0674399 0)
(1.38686 -0.00534403 0)
(1.53365 0.0445461 0)
(0.206651 -0.109739 0)
(0.424965 -0.0356447 0)
(0.82888 -0.0499576 0)
(1.5418 0.317238 0)
(1.79675 0.468369 0)
(1.25533 0.275002 0)
(1.11213 0.0763042 0)
(1.04908 -0.0636304 0)
(1.27976 -0.0141032 0)
(1.49256 0.0444128 0)
(-0.0255031 -0.101012 0)
(0.156929 -0.0831166 0)
(0.512494 -0.11852 0)
(1.30306 0.217994 0)
(1.7453 0.444239 0)
(1.23673 0.282216 0)
(1.04472 0.0857874 0)
(0.920498 -0.0695699 0)
(1.16135 -0.0435153 0)
(1.4401 0.0379585 0)
(-0.111557 -0.0998219 0)
(-0.00540754 -0.11148 0)
(0.241564 -0.185306 0)
(1.03836 0.11147 0)
(1.65682 0.405321 0)
(1.20443 0.290071 0)
(0.961401 0.104341 0)
(0.808475 -0.0566583 0)
(1.05203 -0.052423 0)
(1.38097 0.0316389 0)
(-0.158248 -0.077057 0)
(-0.125265 -0.145335 0)
(-0.0108099 -0.242313 0)
(0.761636 0.0136775 0)
(1.53449 0.356678 0)
(1.1506 0.301904 0)
(0.864186 0.124787 0)
(0.726569 -0.0620089 0)
(0.972109 -0.0833452 0)
(1.32022 0.0206089 0)
(-0.202648 -0.0618961 0)
(-0.246812 -0.152055 0)
(-0.246752 -0.27108 0)
(0.49791 -0.116119 0)
(1.38413 0.295096 0)
(1.07233 0.316842 0)
(0.760319 0.145777 0)
(0.678469 -0.0557739 0)
(0.91614 -0.0991123 0)
(1.258 0.0121661 0)
(-0.23944 -0.0349309 0)
(-0.371721 -0.162581 0)
(-0.437307 -0.30332 0)
(0.22109 -0.216009 0)
(1.19812 0.254499 0)
(0.971728 0.330903 0)
(0.659633 0.166252 0)
(0.65994 -0.0583043 0)
(0.891782 -0.121374 0)
(1.19556 0.00125547 0)
(-0.269703 -0.00204358 0)
(-0.478165 -0.139384 0)
(-0.567499 -0.323768 0)
(-0.0481535 -0.338666 0)
(0.978846 0.210396 0)
(0.853533 0.349076 0)
(0.572572 0.17067 0)
(0.66068 -0.0655013 0)
(0.884894 -0.140464 0)
(1.13329 -0.00563741 0)
(-0.284578 0.0400878 0)
(-0.552564 -0.124893 0)
(-0.640101 -0.341149 0)
(-0.30775 -0.389911 0)
(0.722189 0.180606 0)
(0.720588 0.353919 0)
(0.511908 0.185208 0)
(0.69873 -0.0719423 0)
(0.894857 -0.156249 0)
(1.07847 -0.0127481 0)
(-0.298063 0.0834146 0)
(-0.592363 -0.0920648 0)
(-0.669961 -0.356691 0)
(-0.482345 -0.459093 0)
(0.447654 0.107285 0)
(0.574365 0.370691 0)
(0.481385 0.183183 0)
(0.782651 -0.0961403 0)
(0.917738 -0.157699 0)
(1.04377 -0.0171462 0)
(-0.295 0.130091 0)
(-0.603751 -0.0567239 0)
(-0.673318 -0.379632 0)
(-0.573052 -0.461335 0)
(0.16546 0.0831202 0)
(0.422727 0.36533 0)
(0.482101 0.163198 0)
(0.893869 -0.105625 0)
(0.952899 -0.157968 0)
(1.03507 -0.0227524 0)
(-0.27092 0.167136 0)
(-0.577508 -0.0237154 0)
(-0.633047 -0.387074 0)
(-0.580858 -0.469868 0)
(-0.062283 0.0145076 0)
(0.288316 0.365894 0)
(0.526775 0.136626 0)
(1.00274 -0.12901 0)
(1.00455 -0.158959 0)
(1.03982 -0.0249051 0)
(-0.247412 0.203264 0)
(-0.501442 0.0157451 0)
(-0.49586 -0.369725 0)
(-0.540365 -0.468408 0)
(-0.200222 -0.00493564 0)
(0.204708 0.350445 0)
(0.63302 0.104448 0)
(1.10245 -0.141776 0)
(1.07117 -0.152405 0)
(1.05178 -0.0236828 0)
(-0.21484 0.225177 0)
(-0.361541 0.0346736 0)
(-0.228184 -0.353969 0)
(-0.367297 -0.437884 0)
(-0.228235 -0.0482638 0)
(0.182929 0.303318 0)
(0.776431 0.0631543 0)
(1.18806 -0.159561 0)
(1.14096 -0.149173 0)
(1.07346 -0.0215072 0)
(-0.179159 0.23995 0)
(-0.171861 0.0623976 0)
(0.163716 -0.321931 0)
(-0.0671124 -0.41072 0)
(-0.187052 -0.0745371 0)
(0.206115 0.247104 0)
(0.925007 0.0151708 0)
(1.25908 -0.169926 0)
(1.20367 -0.142238 0)
(1.1043 -0.014131 0)
(-0.13645 0.238276 0)
(0.0436232 0.0202926 0)
(0.652074 -0.327161 0)
(0.302995 -0.35413 0)
(-0.0372671 -0.0586902 0)
(0.294759 0.19533 0)
(1.07171 -0.0346027 0)
(1.3144 -0.178027 0)
(1.25614 -0.135763 0)
(1.14581 -0.00883221 0)
(-0.0824096 0.238541 0)
(0.294147 0.000332014 0)
(1.12645 -0.341863 0)
(0.709763 -0.307634 0)
(0.245866 -0.0729967 0)
(0.479111 0.143632 0)
(1.21606 -0.0805301 0)
(1.35635 -0.180422 0)
(1.29853 -0.130487 0)
(1.19745 -0.00129635 0)
(-0.0074439 0.201684 0)
(0.599548 -0.115689 0)
(1.4786 -0.372182 0)
(1.07991 -0.253311 0)
(0.609836 -0.0332744 0)
(0.762893 0.111403 0)
(1.34866 -0.118554 0)
(1.38764 -0.17819 0)
(1.33178 -0.12339 0)
(1.25649 0.00434751 0)
(0.183596 0.185499 0)
(1.04369 -0.176914 0)
(1.68253 -0.422924 0)
(1.35637 -0.260113 0)
(0.959892 -0.0272271 0)
(1.08248 0.0785571 0)
(1.45426 -0.146443 0)
(1.41143 -0.176564 0)
(1.35763 -0.117887 0)
(1.31683 0.00894361 0)
(0.689827 0.00961083 0)
(1.49872 -0.259239 0)
(1.796 -0.449972 0)
(1.5083 -0.237058 0)
(1.21801 -0.00130531 0)
(1.34286 0.0601122 0)
(1.52174 -0.153136 0)
(1.43039 -0.177706 0)
(1.37769 -0.114394 0)
(1.37183 0.0109818 0)
(1.44631 0.0718708 0)
(1.81954 -0.287467 0)
(1.85788 -0.460097 0)
(1.58532 -0.253791 0)
(1.38502 -0.000439309 0)
(1.5157 0.0248003 0)
(1.5566 -0.145298 0)
(1.44778 -0.172986 0)
(1.39527 -0.112016 0)
(1.42188 0.0126523 0)
(1.67347 0.250856 0)
(1.94218 -0.242789 0)
(1.89548 -0.445971 0)
(1.62934 -0.269837 0)
(1.4837 -0.00309935 0)
(1.61429 0.00482061 0)
(1.57305 -0.131329 0)
(1.46262 -0.162692 0)
(1.41146 -0.107284 0)
(1.46476 0.0117914 0)
(1.71175 0.281613 0)
(1.94978 -0.198138 0)
(1.89738 -0.435852 0)
(1.65037 -0.291607 0)
(1.53288 -0.0145795 0)
(1.65353 -0.0208415 0)
(1.58219 -0.132474 0)
(1.47125 -0.151585 0)
(1.42756 -0.102844 0)
(1.49668 0.0111099 0)
(1.66582 0.330567 0)
(1.91842 -0.131912 0)
(1.87264 -0.403088 0)
(1.66599 -0.297683 0)
(1.55735 -0.0445622 0)
(1.65719 -0.0596846 0)
(1.58555 -0.143623 0)
(1.47777 -0.144988 0)
(1.44514 -0.0985392 0)
(1.52091 0.0109838 0)
(1.62062 0.343783 0)
(1.91001 -0.108425 0)
(1.83214 -0.373829 0)
(1.67694 -0.308734 0)
(1.56693 -0.0804308 0)
(1.64672 -0.0911585 0)
(1.58705 -0.152501 0)
(1.4838 -0.143094 0)
(1.46387 -0.0967959 0)
(1.54081 0.0104983 0)
(1.57205 0.354417 0)
(1.88626 -0.0551702 0)
(1.80216 -0.326194 0)
(1.69457 -0.308737 0)
(1.59128 -0.109296 0)
(1.65681 -0.128427 0)
(1.5933 -0.162457 0)
(1.48981 -0.144512 0)
(1.48205 -0.0963961 0)
(1.55854 0.0102768 0)
(1.53029 0.355053 0)
(1.84267 -0.0246296 0)
(1.80059 -0.305309 0)
(1.71023 -0.315101 0)
(1.61417 -0.140416 0)
(1.6619 -0.157544 0)
(1.59965 -0.167723 0)
(1.49532 -0.146096 0)
(1.49829 -0.0958971 0)
(1.57514 0.0104498 0)
(1.49368 0.355252 0)
(1.7893 0.00936402 0)
(1.78586 -0.264472 0)
(1.71957 -0.308527 0)
(1.63799 -0.171843 0)
(1.66675 -0.178584 0)
(1.60708 -0.168577 0)
(1.50012 -0.147198 0)
(1.5114 -0.0949955 0)
(1.59083 0.0113644 0)
(1.46246 0.35347 0)
(1.74098 0.0342243 0)
(1.7641 -0.235619 0)
(1.71905 -0.308757 0)
(1.65295 -0.204504 0)
(1.66941 -0.197278 0)
(1.61679 -0.16744 0)
(1.5039 -0.146424 0)
(1.52112 -0.0945307 0)
(1.60439 0.00986134 0)
(1.43569 0.351596 0)
(1.69578 0.058734 0)
(1.74728 -0.209104 0)
(1.70498 -0.293697 0)
(1.6681 -0.234642 0)
(1.68352 -0.219444 0)
(1.62935 -0.16502 0)
(1.5067 -0.143446 0)
(1.52802 -0.0937312 0)
(1.61496 0.00866862 0)
(1.4131 0.349684 0)
(1.65824 0.0749237 0)
(1.73105 -0.181078 0)
(1.69048 -0.283497 0)
(1.67904 -0.257143 0)
(1.69537 -0.245119 0)
(1.64243 -0.165323 0)
(1.50834 -0.13855 0)
(1.53244 -0.0919886 0)
(1.6226 0.00782737 0)
(1.39552 0.347486 0)
(1.62502 0.0908996 0)
(1.70721 -0.151681 0)
(1.68247 -0.267669 0)
(1.68496 -0.267125 0)
(1.70447 -0.270602 0)
(1.65592 -0.171444 0)
(1.50896 -0.133883 0)
(1.53477 -0.089691 0)
(1.62733 0.0071678 0)
(1.38385 0.347545 0)
(1.59707 0.104354 0)
(1.68507 -0.127903 0)
(1.67588 -0.255858 0)
(1.68693 -0.272261 0)
(1.71102 -0.292489 0)
(1.67018 -0.183934 0)
(1.50872 -0.12991 0)
(1.53609 -0.0885927 0)
(1.62952 0.00656269 0)
(1.38057 0.35006 0)
(1.57337 0.118474 0)
(1.66499 -0.103046 0)
(1.663 -0.23862 0)
(1.68865 -0.273293 0)
(1.72139 -0.310277 0)
(1.68395 -0.201609 0)
(1.50792 -0.128675 0)
(1.53766 -0.0885542 0)
(1.62968 0.0055168 0)
(1.38782 0.355966 0)
(1.55698 0.131069 0)
(1.64705 -0.0783034 0)
(1.64972 -0.224862 0)
(1.69401 -0.279781 0)
(1.7277 -0.32386 0)
(1.69289 -0.220891 0)
(1.50958 -0.128788 0)
(1.54062 -0.0888035 0)
(1.62882 0.00455192 0)
(1.40652 0.365917 0)
(1.54708 0.145943 0)
(1.63333 -0.0574019 0)
(1.63967 -0.207376 0)
(1.7009 -0.284701 0)
(1.73149 -0.337189 0)
(1.70154 -0.24016 0)
(1.51916 -0.130795 0)
(1.54626 -0.0889275 0)
(1.62741 0.00400986 0)
(1.43463 0.376118 0)
(1.54622 0.160437 0)
(1.62163 -0.0336493 0)
(1.63831 -0.19169 0)
(1.70538 -0.290767 0)
(1.74341 -0.349051 0)
(1.71931 -0.264382 0)
(1.54031 -0.133399 0)
(1.55436 -0.0884727 0)
(1.62669 0.0038906 0)
(1.4642 0.391365 0)
(1.55514 0.177698 0)
(1.62006 -0.0161076 0)
(1.64559 -0.174058 0)
(1.71144 -0.289207 0)
(1.76475 -0.355736 0)
(1.74107 -0.29209 0)
(1.57051 -0.142099 0)
(1.56234 -0.0877578 0)
(1.628 0.00403721 0)
(1.49273 0.400161 0)
(1.57609 0.194281 0)
(1.62882 0.00426013 0)
(1.66254 -0.158877 0)
(1.72316 -0.284898 0)
(1.7885 -0.363382 0)
(1.7599 -0.323158 0)
(1.60406 -0.159648 0)
(1.57114 -0.0880029 0)
(1.63004 0.00421961 0)
(1.51063 0.407297 0)
(1.60147 0.212771 0)
(1.64877 0.0204644 0)
(1.68592 -0.143633 0)
(1.74089 -0.274996 0)
(1.81059 -0.364596 0)
(1.77436 -0.349006 0)
(1.63545 -0.185753 0)
(1.58199 -0.0917138 0)
(1.63288 0.0031284 0)
(0.516116 0.17264 0)
(0.597419 0.218859 0)
(0.655789 0.289621 0)
(0.714759 0.346175 0)
(0.765805 0.392325 0)
(0.81483 0.429601 0)
(0.864503 0.463513 0)
(0.921442 0.495756 0)
(0.997292 0.534786 0)
(1.13515 0.569262 0)
(0.558962 0.216419 0)
(0.611935 0.249273 0)
(0.651329 0.305555 0)
(0.704245 0.35508 0)
(0.754425 0.398759 0)
(0.805346 0.435323 0)
(0.857246 0.469258 0)
(0.916377 0.501457 0)
(0.99671 0.540204 0)
(1.13553 0.569796 0)
(0.638822 0.221853 0)
(0.670412 0.246202 0)
(0.693716 0.288562 0)
(0.73337 0.330069 0)
(0.772479 0.37274 0)
(0.817198 0.41156 0)
(0.865688 0.448091 0)
(0.924568 0.481718 0)
(1.00868 0.518916 0)
(1.15414 0.539921 0)
(0.716746 0.253417 0)
(0.734402 0.279663 0)
(0.750977 0.315101 0)
(0.779299 0.347317 0)
(0.807335 0.381072 0)
(0.843732 0.413229 0)
(0.885704 0.444891 0)
(0.941455 0.472426 0)
(1.02592 0.506593 0)
(1.16664 0.512405 0)
(0.79204 0.265941 0)
(0.79007 0.294194 0)
(0.809735 0.325638 0)
(0.829914 0.357785 0)
(0.850933 0.388693 0)
(0.879507 0.416415 0)
(0.914461 0.443082 0)
(0.965697 0.464969 0)
(1.04566 0.491904 0)
(1.18742 0.496064 0)
(0.854538 0.290832 0)
(0.833646 0.319161 0)
(0.856565 0.346785 0)
(0.869546 0.375349 0)
(0.886796 0.402809 0)
(0.910072 0.426338 0)
(0.94213 0.446933 0)
(0.991058 0.462938 0)
(1.06693 0.481727 0)
(1.20169 0.480942 0)
(0.910963 0.317494 0)
(0.880178 0.340809 0)
(0.899907 0.364536 0)
(0.905752 0.38762 0)
(0.917449 0.40959 0)
(0.935644 0.427296 0)
(0.965294 0.443436 0)
(1.01308 0.456351 0)
(1.08525 0.469554 0)
(1.21027 0.466177 0)
(0.97074 0.351086 0)
(0.928968 0.369849 0)
(0.93698 0.389308 0)
(0.936774 0.407769 0)
(0.94067 0.422167 0)
(0.955919 0.431247 0)
(0.984603 0.440572 0)
(1.03171 0.450172 0)
(1.10045 0.458896 0)
(1.21586 0.454709 0)
(1.04664 0.395719 0)
(0.985378 0.410859 0)
(0.977548 0.418017 0)
(0.968453 0.428667 0)
(0.967637 0.42841 0)
(0.978335 0.429032 0)
(1.00534 0.435064 0)
(1.0501 0.44247 0)
(1.11384 0.447957 0)
(1.21919 0.443438 0)
(1.16282 0.461339 0)
(1.05527 0.466254 0)
(1.03479 0.458445 0)
(1.01379 0.452318 0)
(1.00661 0.442624 0)
(1.01046 0.438043 0)
(1.03219 0.437703 0)
(1.07221 0.440421 0)
(1.1288 0.441545 0)
(1.22377 0.436228 0)
(1.3389 0.532536 0)
(1.15099 0.531133 0)
(1.11855 0.506779 0)
(1.08773 0.48642 0)
(1.0697 0.46812 0)
(1.06398 0.454794 0)
(1.07421 0.448651 0)
(1.10369 0.443965 0)
(1.14913 0.440361 0)
(1.23208 0.432862 0)
(1.59968 0.535799 0)
(1.27666 0.592442 0)
(1.20398 0.563704 0)
(1.17279 0.543866 0)
(1.14916 0.519409 0)
(1.13569 0.496373 0)
(1.13414 0.478272 0)
(1.14963 0.46177 0)
(1.17963 0.449789 0)
(1.2473 0.435936 0)
(1.86224 0.465392 0)
(1.50833 0.611177 0)
(1.27505 0.609522 0)
(1.25651 0.593347 0)
(1.23982 0.564805 0)
(1.22394 0.536428 0)
(1.21188 0.512794 0)
(1.21263 0.488977 0)
(1.22599 0.469698 0)
(1.27298 0.447758 0)
(2.03417 0.374006 0)
(1.80885 0.524984 0)
(1.37814 0.63841 0)
(1.32407 0.616703 0)
(1.31248 0.600899 0)
(1.29612 0.582164 0)
(1.28189 0.560988 0)
(1.27947 0.531951 0)
(1.28515 0.502714 0)
(1.31116 0.468307 0)
(2.13341 0.295371 0)
(2.0602 0.36598 0)
(1.5818 0.605703 0)
(1.3394 0.643465 0)
(1.34167 0.632869 0)
(1.34294 0.617261 0)
(1.34517 0.596229 0)
(1.35104 0.56389 0)
(1.35022 0.535721 0)
(1.35734 0.493948 0)
(2.19823 0.229724 0)
(2.17076 0.26022 0)
(1.92276 0.462371 0)
(1.41583 0.650703 0)
(1.35548 0.637664 0)
(1.37273 0.629773 0)
(1.39115 0.615313 0)
(1.40211 0.596314 0)
(1.39857 0.573445 0)
(1.40066 0.522183 0)
(2.24177 0.17978 0)
(2.22392 0.2028 0)
(2.17614 0.263308 0)
(1.61605 0.58263 0)
(1.37069 0.636317 0)
(1.3778 0.637038 0)
(1.40039 0.634591 0)
(1.42683 0.617564 0)
(1.43007 0.592203 0)
(1.43555 0.537647 0)
(2.26819 0.151537 0)
(2.25555 0.166193 0)
(2.24017 0.186872 0)
(1.97285 0.413414 0)
(1.41175 0.627009 0)
(1.37389 0.644235 0)
(1.39464 0.639318 0)
(1.42074 0.627432 0)
(1.43267 0.604217 0)
(1.44993 0.549881 0)
(2.28828 0.130274 0)
(2.28033 0.137903 0)
(2.26574 0.15714 0)
(2.23241 0.208372 0)
(1.58982 0.562523 0)
(1.38122 0.637689 0)
(1.38879 0.631347 0)
(1.40915 0.620277 0)
(1.42297 0.592297 0)
(1.45005 0.54085 0)
(2.31201 0.0981816 0)
(2.30385 0.107334 0)
(2.2912 0.122193 0)
(2.28093 0.137907 0)
(1.97821 0.391345 0)
(1.40604 0.64758 0)
(1.36991 0.623348 0)
(1.38899 0.602332 0)
(1.39958 0.567578 0)
(1.43413 0.524584 0)
(2.48967 -9.23807e-08 0)
(2.48198 3.31256e-07 0)
(2.47359 -8.44185e-07 0)
(2.46444 1.33575e-06 0)
(2.4544 -2.51852e-06 0)
(2.44338 3.42686e-06 0)
(2.43153 -4.48128e-06 0)
(2.41706 8.13515e-06 0)
(2.40744 -8.91696e-06 0)
(1.15369 0.0343604 0)
(2.48967 -2.72493e-07 0)
(2.48198 9.54198e-07 0)
(2.47359 -2.4084e-06 0)
(2.46444 3.79911e-06 0)
(2.4544 -7.10111e-06 0)
(2.44338 1.03279e-05 0)
(2.43153 -1.89961e-05 0)
(2.41707 2.74562e-05 0)
(2.40745 -3.79331e-05 0)
(1.1956 0.107993 0)
(2.48967 -4.48366e-07 0)
(2.48198 1.56962e-06 0)
(2.47359 -3.94862e-06 0)
(2.46444 6.24374e-06 0)
(2.4544 -1.15499e-05 0)
(2.44338 1.6529e-05 0)
(2.43153 -2.98602e-05 0)
(2.41708 4.45875e-05 0)
(2.40749 -5.53938e-05 0)
(1.26947 0.160374 0)
(2.48967 -6.15562e-07 0)
(2.48198 2.15865e-06 0)
(2.47359 -5.41266e-06 0)
(2.46444 8.61534e-06 0)
(2.4544 -1.57899e-05 0)
(2.44338 2.24866e-05 0)
(2.43153 -4.07781e-05 0)
(2.41709 5.90863e-05 0)
(2.40754 -0.000101302 0)
(1.34907 0.206236 0)
(2.48967 -7.71095e-07 0)
(2.48198 2.71136e-06 0)
(2.47359 -6.77207e-06 0)
(2.46444 1.08662e-05 0)
(2.4544 -1.96723e-05 0)
(2.44338 2.77919e-05 0)
(2.43153 -4.9806e-05 0)
(2.41711 6.90073e-05 0)
(2.40758 -0.000126211 0)
(1.43196 0.241947 0)
(2.48967 -9.12628e-07 0)
(2.48198 3.21868e-06 0)
(2.47359 -8.00433e-06 0)
(2.46444 1.29675e-05 0)
(2.4544 -2.31928e-05 0)
(2.44338 3.25816e-05 0)
(2.43153 -5.84361e-05 0)
(2.41712 7.84832e-05 0)
(2.40755 -0.000227571 0)
(1.51715 0.27006 0)
(2.48967 -1.03892e-06 0)
(2.48198 3.67477e-06 0)
(2.47359 -9.09732e-06 0)
(2.46443 1.48909e-05 0)
(2.45441 -2.63034e-05 0)
(2.44338 3.66967e-05 0)
(2.43153 -6.55024e-05 0)
(2.41713 8.82406e-05 0)
(2.40744 -0.000290097 0)
(1.60509 0.291334 0)
(2.48967 -1.15002e-06 0)
(2.48198 4.07839e-06 0)
(2.47359 -1.00526e-05 0)
(2.46443 1.6632e-05 0)
(2.45441 -2.90629e-05 0)
(2.44338 4.04014e-05 0)
(2.43153 -7.19721e-05 0)
(2.41713 9.81987e-05 0)
(2.40729 -0.000313066 0)
(1.69777 0.307205 0)
(2.48967 -1.24734e-06 0)
(2.48198 4.43269e-06 0)
(2.47359 -1.08812e-05 0)
(2.46443 1.81965e-05 0)
(2.45441 -3.14988e-05 0)
(2.44338 4.36896e-05 0)
(2.43154 -7.80675e-05 0)
(2.41713 0.000112217 0)
(2.40715 -0.000353341 0)
(1.79942 0.315132 0)
(2.48967 -1.33292e-06 0)
(2.48198 4.7439e-06 0)
(2.47359 -1.16001e-05 0)
(2.46443 1.96009e-05 0)
(2.45441 -3.36827e-05 0)
(2.44338 4.67464e-05 0)
(2.43154 -8.35598e-05 0)
(2.41714 0.000125295 0)
(2.40703 -0.000363316 0)
(1.9121 0.316384 0)
(2.48967 -1.40914e-06 0)
(2.48198 5.0193e-06 0)
(2.4736 -1.22273e-05 0)
(2.46443 2.08666e-05 0)
(2.45441 -3.56724e-05 0)
(2.44338 4.97125e-05 0)
(2.43154 -8.8927e-05 0)
(2.41715 0.000140196 0)
(2.40693 -0.000371913 0)
(2.02254 0.297999 0)
(2.48967 -1.47837e-06 0)
(2.48198 5.26525e-06 0)
(2.4736 -1.27766e-05 0)
(2.46443 2.20114e-05 0)
(2.45441 -3.74988e-05 0)
(2.44338 5.26308e-05 0)
(2.43154 -9.38019e-05 0)
(2.41716 0.000152786 0)
(2.40686 -0.000364308 0)
(2.11134 0.264567 0)
(2.48967 -1.54238e-06 0)
(2.48198 5.48584e-06 0)
(2.4736 -1.32566e-05 0)
(2.46443 2.30489e-05 0)
(2.45441 -3.91708e-05 0)
(2.44338 5.55648e-05 0)
(2.43154 -9.85477e-05 0)
(2.41717 0.000164828 0)
(2.40683 -0.000363583 0)
(2.17323 0.232004 0)
(2.48967 -1.60109e-06 0)
(2.48198 5.68272e-06 0)
(2.4736 -1.36703e-05 0)
(2.46443 2.39794e-05 0)
(2.45442 -4.06594e-05 0)
(2.44338 5.84153e-05 0)
(2.43154 -0.000102576 0)
(2.41718 0.000174901 0)
(2.4068 -0.000358479 0)
(2.2179 0.200285 0)
(2.48967 -1.6542e-06 0)
(2.48198 5.85545e-06 0)
(2.4736 -1.40179e-05 0)
(2.46443 2.47982e-05 0)
(2.45442 -4.19498e-05 0)
(2.44338 6.12371e-05 0)
(2.43155 -0.000106318 0)
(2.41719 0.000182222 0)
(2.40676 -0.000353483 0)
(2.25539 0.166356 0)
(2.48967 -1.70116e-06 0)
(2.48198 6.00277e-06 0)
(2.4736 -1.42992e-05 0)
(2.46443 2.54975e-05 0)
(2.45442 -4.301e-05 0)
(2.44338 6.37948e-05 0)
(2.43155 -0.000109372 0)
(2.4172 0.000189269 0)
(2.40673 -0.000351512 0)
(2.28097 0.139464 0)
(2.48967 -1.74163e-06 0)
(2.48198 6.12384e-06 0)
(2.4736 -1.45166e-05 0)
(2.46443 2.60767e-05 0)
(2.45442 -4.38639e-05 0)
(2.44338 6.62083e-05 0)
(2.43155 -0.000111962 0)
(2.41722 0.000195693 0)
(2.4067 -0.000349014 0)
(2.29986 0.115042 0)
(2.48967 -1.77557e-06 0)
(2.48198 6.2198e-06 0)
(2.4736 -1.46778e-05 0)
(2.46443 2.65333e-05 0)
(2.45442 -4.45252e-05 0)
(2.44338 6.82226e-05 0)
(2.43155 -0.000114595 0)
(2.41723 0.000203518 0)
(2.40665 -0.000348125 0)
(2.32119 0.0895295 0)
(2.48967 -1.80371e-06 0)
(2.48198 6.29411e-06 0)
(2.4736 -1.47821e-05 0)
(2.46443 2.68907e-05 0)
(2.45442 -4.50312e-05 0)
(2.44338 7.00071e-05 0)
(2.43155 -0.000117018 0)
(2.41725 0.000210151 0)
(2.40659 -0.000353795 0)
(2.33904 0.0712185 0)
(2.48967 -1.8269e-06 0)
(2.48198 6.34578e-06 0)
(2.4736 -1.48574e-05 0)
(2.46443 2.71448e-05 0)
(2.45442 -4.54338e-05 0)
(2.44339 7.15885e-05 0)
(2.43154 -0.000119391 0)
(2.41728 0.000217607 0)
(2.40654 -0.00035707 0)
(2.34913 0.0590553 0)
(2.48967 1.82739e-06 0)
(2.48198 -6.34596e-06 0)
(2.4736 1.48564e-05 0)
(2.46443 -2.71427e-05 0)
(2.45442 4.54336e-05 0)
(2.44339 -7.1594e-05 0)
(2.43154 0.000119417 0)
(2.41728 -0.000217619 0)
(2.40654 0.000356944 0)
(2.34909 -0.0590835 0)
(2.48967 1.80415e-06 0)
(2.48198 -6.294e-06 0)
(2.4736 1.47803e-05 0)
(2.46443 -2.68853e-05 0)
(2.45442 4.50258e-05 0)
(2.44338 -7.00015e-05 0)
(2.43155 0.000117071 0)
(2.41725 -0.000210222 0)
(2.40659 0.000353551 0)
(2.33898 -0.0712242 0)
(2.48967 1.77593e-06 0)
(2.48198 -6.21924e-06 0)
(2.4736 1.46748e-05 0)
(2.46443 -2.65218e-05 0)
(2.45442 4.45105e-05 0)
(2.44338 -6.81943e-05 0)
(2.43155 0.000114674 0)
(2.41723 -0.000203615 0)
(2.40665 0.000347834 0)
(2.32111 -0.0895292 0)
(2.48967 1.74189e-06 0)
(2.48198 -6.12271e-06 0)
(2.4736 1.45119e-05 0)
(2.46443 -2.60594e-05 0)
(2.45442 4.38396e-05 0)
(2.44338 -6.61632e-05 0)
(2.43155 0.000112059 0)
(2.41722 -0.000195994 0)
(2.4067 0.000348679 0)
(2.2998 -0.115003 0)
(2.48967 1.70136e-06 0)
(2.48198 -6.0012e-06 0)
(2.4736 1.4293e-05 0)
(2.46443 -2.54777e-05 0)
(2.45442 4.2978e-05 0)
(2.44338 -6.37317e-05 0)
(2.43155 0.000109432 0)
(2.4172 -0.000189473 0)
(2.40673 0.000351291 0)
(2.28088 -0.139398 0)
(2.48967 1.65438e-06 0)
(2.48198 -5.85372e-06 0)
(2.4736 1.40112e-05 0)
(2.46443 -2.47809e-05 0)
(2.45442 4.19179e-05 0)
(2.44338 -6.11774e-05 0)
(2.43155 0.000106314 0)
(2.41719 -0.000182376 0)
(2.40676 0.000353372 0)
(2.25529 -0.166244 0)
(2.48967 1.60134e-06 0)
(2.48198 -5.68128e-06 0)
(2.4736 1.36644e-05 0)
(2.46443 -2.39692e-05 0)
(2.45442 4.06364e-05 0)
(2.44338 -5.83735e-05 0)
(2.43154 0.000102496 0)
(2.41718 -0.000174897 0)
(2.4068 0.000358589 0)
(2.21781 -0.200125 0)
(2.48967 1.54278e-06 0)
(2.48198 -5.48514e-06 0)
(2.4736 1.32528e-05 0)
(2.46443 -2.30478e-05 0)
(2.45441 3.91635e-05 0)
(2.44338 -5.55568e-05 0)
(2.43154 9.84656e-05 0)
(2.41717 -0.000164687 0)
(2.40683 0.000363877 0)
(2.1732 -0.231812 0)
(2.48967 1.47901e-06 0)
(2.48198 -5.26557e-06 0)
(2.4736 1.27753e-05 0)
(2.46443 -2.2018e-05 0)
(2.45441 3.75075e-05 0)
(2.44338 -5.26493e-05 0)
(2.43154 9.36869e-05 0)
(2.41716 -0.000152518 0)
(2.40686 0.000364669 0)
(2.11143 -0.264314 0)
(2.48967 1.41006e-06 0)
(2.48198 -5.02065e-06 0)
(2.4736 1.22283e-05 0)
(2.46443 -2.08773e-05 0)
(2.45441 3.5692e-05 0)
(2.44338 -4.97425e-05 0)
(2.43154 8.88083e-05 0)
(2.41715 -0.000139956 0)
(2.40693 0.000372456 0)
(2.02278 -0.29773 0)
(2.48967 1.33407e-06 0)
(2.48198 -4.746e-06 0)
(2.47359 1.16027e-05 0)
(2.46443 -1.96124e-05 0)
(2.45441 3.37052e-05 0)
(2.44338 -4.67666e-05 0)
(2.43154 8.34046e-05 0)
(2.41714 -0.000125104 0)
(2.40703 0.000363363 0)
(1.91253 -0.316211 0)
(2.48967 1.24862e-06 0)
(2.48198 -4.43507e-06 0)
(2.47359 1.08841e-05 0)
(2.46443 -1.82056e-05 0)
(2.45441 3.15161e-05 0)
(2.44338 -4.36872e-05 0)
(2.43154 7.78966e-05 0)
(2.41713 -0.000112148 0)
(2.40715 0.000353388 0)
(1.79988 -0.315015 0)
(2.48967 1.15135e-06 0)
(2.48198 -4.08067e-06 0)
(2.47359 1.00553e-05 0)
(2.46443 -1.66395e-05 0)
(2.45441 2.9078e-05 0)
(2.44338 -4.03937e-05 0)
(2.43153 7.1806e-05 0)
(2.41713 -9.82429e-05 0)
(2.40729 0.000313107 0)
(1.69818 -0.307155 0)
(2.48967 1.04021e-06 0)
(2.48198 -3.67682e-06 0)
(2.47359 9.09976e-06 0)
(2.46443 -1.48967e-05 0)
(2.45441 2.6311e-05 0)
(2.44338 -3.66715e-05 0)
(2.43153 6.5393e-05 0)
(2.41713 -8.83427e-05 0)
(2.40744 0.000289941 0)
(1.60543 -0.29132 0)
(2.48967 9.13893e-07 0)
(2.48198 -3.2206e-06 0)
(2.47359 8.00676e-06 0)
(2.46444 -1.29727e-05 0)
(2.4544 2.32008e-05 0)
(2.44338 -3.25747e-05 0)
(2.43153 5.83634e-05 0)
(2.41712 -7.85999e-05 0)
(2.40755 0.000227863 0)
(1.51743 -0.270085 0)
(2.48967 7.72379e-07 0)
(2.48198 -2.71341e-06 0)
(2.47359 6.77525e-06 0)
(2.46444 -1.08741e-05 0)
(2.4544 1.96991e-05 0)
(2.44338 -2.78359e-05 0)
(2.43153 4.97433e-05 0)
(2.41711 -6.88993e-05 0)
(2.40758 0.000126422 0)
(1.43219 -0.241994 0)
(2.48967 6.16914e-07 0)
(2.48198 -2.1609e-06 0)
(2.47359 5.41624e-06 0)
(2.46444 -8.62157e-06 0)
(2.4544 1.57954e-05 0)
(2.44338 -2.24776e-05 0)
(2.43153 4.03607e-05 0)
(2.41709 -5.91336e-05 0)
(2.40754 0.000101219 0)
(1.34925 -0.206302 0)
(2.48967 4.49806e-07 0)
(2.48198 -1.57214e-06 0)
(2.47359 3.95295e-06 0)
(2.46444 -6.25339e-06 0)
(2.4544 1.15972e-05 0)
(2.44338 -1.67646e-05 0)
(2.43153 3.06226e-05 0)
(2.41708 -4.41041e-05 0)
(2.40749 5.70581e-05 0)
(1.26961 -0.160454 0)
(2.48967 2.73994e-07 0)
(2.48198 -9.56867e-07 0)
(2.47359 2.41354e-06 0)
(2.46444 -3.81208e-06 0)
(2.4544 7.14796e-06 0)
(2.44338 -1.03886e-05 0)
(2.43153 1.76904e-05 0)
(2.41707 -2.6998e-05 0)
(2.40746 3.46962e-05 0)
(1.19573 -0.108084 0)
(2.48967 9.39236e-08 0)
(2.48198 -3.34079e-07 0)
(2.47359 8.49847e-07 0)
(2.46444 -1.34825e-06 0)
(2.4544 2.5454e-06 0)
(2.44338 -3.49709e-06 0)
(2.43153 6.60662e-06 0)
(2.41706 -9.35561e-06 0)
(2.40744 1.08863e-05 0)
(1.15377 -0.0344874 0)
(2.31192 -0.0982265 0)
(2.30375 -0.107398 0)
(2.29109 -0.122243 0)
(2.28078 -0.137989 0)
(1.97904 -0.390766 0)
(1.40706 -0.647488 0)
(1.37049 -0.623157 0)
(1.38938 -0.602226 0)
(1.40039 -0.567502 0)
(1.4341 -0.525301 0)
(2.28817 -0.1303 0)
(2.28022 -0.137923 0)
(2.26561 -0.157179 0)
(2.23212 -0.208212 0)
(1.59069 -0.562171 0)
(1.3817 -0.637708 0)
(1.38943 -0.631287 0)
(1.40928 -0.620248 0)
(1.4239 -0.592617 0)
(1.44935 -0.541895 0)
(2.26809 -0.151509 0)
(2.25541 -0.166209 0)
(2.24007 -0.186814 0)
(1.9722 -0.413066 0)
(1.41362 -0.626056 0)
(1.37426 -0.644051 0)
(1.39534 -0.639174 0)
(1.42046 -0.627632 0)
(1.43359 -0.604571 0)
(1.44841 -0.550875 0)
(2.24165 -0.179738 0)
(2.22379 -0.202758 0)
(2.17601 -0.263155 0)
(1.61651 -0.582228 0)
(1.37131 -0.636054 0)
(1.37802 -0.636874 0)
(1.401 -0.634349 0)
(1.42627 -0.618004 0)
(1.43079 -0.59244 0)
(1.43304 -0.538837 0)
(2.19811 -0.229612 0)
(2.17064 -0.260082 0)
(1.92291 -0.461878 0)
(1.4162 -0.650295 0)
(1.35582 -0.637491 0)
(1.37262 -0.629789 0)
(1.39159 -0.615023 0)
(1.40146 -0.596841 0)
(1.39921 -0.573556 0)
(1.3972 -0.523633 0)
(2.13331 -0.295149 0)
(2.06018 -0.365613 0)
(1.58224 -0.605204 0)
(1.33962 -0.64317 0)
(1.34199 -0.632567 0)
(1.3427 -0.617333 0)
(1.34561 -0.595834 0)
(1.35035 -0.564458 0)
(1.35062 -0.535818 0)
(1.35293 -0.496005 0)
(2.03418 -0.373646 0)
(1.80922 -0.524403 0)
(1.3785 -0.638154 0)
(1.32408 -0.61649 0)
(1.31284 -0.600489 0)
(1.2959 -0.582346 0)
(1.28228 -0.560724 0)
(1.27856 -0.53266 0)
(1.28564 -0.502842 0)
(1.30594 -0.470672 0)
(1.86259 -0.464921 0)
(1.50885 -0.610654 0)
(1.27537 -0.609346 0)
(1.25661 -0.593287 0)
(1.2402 -0.564643 0)
(1.22378 -0.536676 0)
(1.21237 -0.512512 0)
(1.2114 -0.490119 0)
(1.22658 -0.4698 0)
(1.2667 -0.45039 0)
(1.60037 -0.535411 0)
(1.27716 -0.592158 0)
(1.20454 -0.563454 0)
(1.17297 -0.543961 0)
(1.14983 -0.519085 0)
(1.13555 -0.496846 0)
(1.13475 -0.478011 0)
(1.14835 -0.462996 0)
(1.17958 -0.450342 0)
(1.24013 -0.438437 0)
(1.33971 -0.532489 0)
(1.15133 -0.531046 0)
(1.11911 -0.506696 0)
(1.08806 -0.486591 0)
(1.07023 -0.467906 0)
(1.06406 -0.455283 0)
(1.0747 -0.448549 0)
(1.10234 -0.444832 0)
(1.148 -0.441557 0)
(1.22408 -0.435554 0)
(1.16343 -0.461476 0)
(1.05561 -0.466342 0)
(1.03529 -0.458277 0)
(1.01415 -0.452457 0)
(1.00701 -0.442427 0)
(1.01061 -0.438284 0)
(1.03222 -0.437993 0)
(1.07079 -0.440787 0)
(1.127 -0.44306 0)
(1.21498 -0.439355 0)
(1.04713 -0.395776 0)
(0.985748 -0.410875 0)
(0.97789 -0.41799 0)
(0.968768 -0.428735 0)
(0.967863 -0.428351 0)
(0.978436 -0.429106 0)
(1.00505 -0.435354 0)
(1.04849 -0.442686 0)
(1.11143 -0.4495 0)
(1.2098 -0.446929 0)
(0.971089 -0.351129 0)
(0.929263 -0.369874 0)
(0.937251 -0.389319 0)
(0.937018 -0.407781 0)
(0.940806 -0.422127 0)
(0.955884 -0.431329 0)
(0.984155 -0.440836 0)
(1.02999 -0.450277 0)
(1.09745 -0.4602 0)
(1.20611 -0.458354 0)
(0.911228 -0.317513 0)
(0.880418 -0.340818 0)
(0.90012 -0.36456 0)
(0.905902 -0.387639 0)
(0.917557 -0.409606 0)
(0.935548 -0.427355 0)
(0.964705 -0.443577 0)
(1.01131 -0.456418 0)
(1.08177 -0.470447 0)
(1.20046 -0.469476 0)
(0.854737 -0.290861 0)
(0.833838 -0.319177 0)
(0.856744 -0.346804 0)
(0.869662 -0.375366 0)
(0.886866 -0.402819 0)
(0.909948 -0.426375 0)
(0.941474 -0.446997 0)
(0.989286 -0.462921 0)
(1.06318 -0.482157 0)
(1.19233 -0.483521 0)
(0.792205 -0.265978 0)
(0.790209 -0.294231 0)
(0.809879 -0.325664 0)
(0.830009 -0.35781 0)
(0.850958 -0.388705 0)
(0.879371 -0.416411 0)
(0.913811 -0.443059 0)
(0.964017 -0.464883 0)
(1.04192 -0.491891 0)
(1.179 -0.497261 0)
(0.716891 -0.253464 0)
(0.734526 -0.279712 0)
(0.751094 -0.315141 0)
(0.779383 -0.347339 0)
(0.807338 -0.381077 0)
(0.843586 -0.413188 0)
(0.885106 -0.444812 0)
(0.93995 -0.472251 0)
(1.02227 -0.506082 0)
(1.15944 -0.512456 0)
(0.638947 -0.221923 0)
(0.670522 -0.246266 0)
(0.693812 -0.288609 0)
(0.733451 -0.33008 0)
(0.772482 -0.372737 0)
(0.817083 -0.4115 0)
(0.86518 -0.448003 0)
(0.92328 -0.481357 0)
(1.00552 -0.518272 0)
(1.14772 -0.538685 0)
(0.559076 -0.216483 0)
(0.61204 -0.249331 0)
(0.651414 -0.305602 0)
(0.704318 -0.355111 0)
(0.75443 -0.398786 0)
(0.805255 -0.435291 0)
(0.856806 -0.469182 0)
(0.915265 -0.501106 0)
(0.993955 -0.539489 0)
(1.12969 -0.567916 0)
(0.51621 -0.172706 0)
(0.597512 -0.218912 0)
(0.655863 -0.289669 0)
(0.714839 -0.346204 0)
(0.765811 -0.392369 0)
(0.814761 -0.429581 0)
(0.864106 -0.463482 0)
(0.920435 -0.495435 0)
(0.994781 -0.534258 0)
(1.12888 -0.56682 0)
(1.50981 -0.409395 0)
(1.59267 -0.22341 0)
(1.64585 -0.038867 0)
(1.7219 0.150173 0)
(1.78851 0.33715 0)
(1.7579 0.381903 0)
(1.72076 0.297787 0)
(1.59648 0.129924 0)
(1.62059 0.0566382 0)
(1.66392 0.0106866 0)
(1.49231 -0.40217 0)
(1.56406 -0.208885 0)
(1.62528 -0.0263794 0)
(1.70775 0.165602 0)
(1.76468 0.351837 0)
(1.74827 0.389808 0)
(1.68749 0.276772 0)
(1.56812 0.123135 0)
(1.61183 0.0572902 0)
(1.66329 0.0137265 0)
(1.46416 -0.394378 0)
(1.54007 -0.192643 0)
(1.61687 -0.011052 0)
(1.70171 0.18013 0)
(1.747 0.365366 0)
(1.73236 0.388199 0)
(1.653 0.254111 0)
(1.54815 0.113867 0)
(1.60243 0.0576395 0)
(1.66156 0.0174857 0)
(1.43539 -0.379235 0)
(1.52619 -0.179844 0)
(1.62053 0.00227187 0)
(1.70585 0.195598 0)
(1.73678 0.380382 0)
(1.70834 0.386367 0)
(1.61327 0.231962 0)
(1.54215 0.106327 0)
(1.5956 0.0586886 0)
(1.6589 0.0200543 0)
(1.40739 -0.369725 0)
(1.52301 -0.16704 0)
(1.6334 0.0169768 0)
(1.71932 0.21082 0)
(1.73048 0.389219 0)
(1.68478 0.383281 0)
(1.57245 0.21173 0)
(1.5391 0.102539 0)
(1.59384 0.0600593 0)
(1.65815 0.0229914 0)
(1.38863 -0.359861 0)
(1.52727 -0.157208 0)
(1.65314 0.034767 0)
(1.7411 0.229988 0)
(1.72723 0.402937 0)
(1.67388 0.371641 0)
(1.54857 0.190123 0)
(1.54217 0.100739 0)
(1.59676 0.0595728 0)
(1.65963 0.0248724 0)
(1.38077 -0.354773 0)
(1.53922 -0.147964 0)
(1.67503 0.0514584 0)
(1.76496 0.248329 0)
(1.72424 0.409209 0)
(1.65345 0.360197 0)
(1.51997 0.173433 0)
(1.5455 0.0986781 0)
(1.60182 0.057695 0)
(1.66312 0.0247453 0)
(1.38368 -0.352543 0)
(1.55663 -0.1395 0)
(1.70237 0.0721929 0)
(1.78411 0.272609 0)
(1.73008 0.421169 0)
(1.62939 0.348266 0)
(1.48954 0.159377 0)
(1.54617 0.0949809 0)
(1.60737 0.0560087 0)
(1.66748 0.025361 0)
(1.39491 -0.353365 0)
(1.57849 -0.129466 0)
(1.73076 0.0909285 0)
(1.78976 0.289824 0)
(1.74487 0.430229 0)
(1.60517 0.33781 0)
(1.45945 0.146167 0)
(1.54195 0.0885771 0)
(1.61122 0.0544081 0)
(1.67053 0.0255385 0)
(1.41228 -0.354745 0)
(1.60171 -0.119226 0)
(1.76131 0.114404 0)
(1.79311 0.31516 0)
(1.76457 0.446986 0)
(1.582 0.331815 0)
(1.43032 0.135688 0)
(1.53308 0.0794914 0)
(1.61332 0.0534353 0)
(1.67162 0.0272734 0)