/*--------------------------------*- C++ -*----------------------------------*\
  =========                 |
  \\      /  F ield         | OpenFOAM: The Open Source CFD Toolbox
   \\    /   O peration     | Website:  https://openfoam.org
    \\  /    A nd           | Version:  7
     \\/     M anipulation  |
\*---------------------------------------------------------------------------*/
FoamFile
{
    version     2.0;
    format      ascii;
    class       volVectorField;
    location    "1";
    object      U;
}
// * * * * * * * * * * * * * * * * * * * * * * * * * * * * * * * * * * * * * //

dimensions      [0 1 -1 0 0 0 0];

internalField   nonuniform List<vector> 
325
(
(2.64184 0.106425 0)
(1.53372 0.38384 0)
(3 -2.31777e-08 0)
(2.97093 0.00121106 0)
(3 -5.63361e-08 0)
(3 1.08888e-07 0)
(2.99978 -0.00042376 0)
(3 1.10298e-07 0)
(2.9997 -0.000574119 0)
(3 1.11682e-07 0)
(2.9996 -0.000772154 0)
(3 1.12381e-07 0)
(2.99945 -0.00107853 0)
(3 1.12969e-07 0)
(2.99928 -0.00127177 0)
(3 1.12808e-07 0)
(2.99901 -0.00177933 0)
(3 1.12554e-07 0)
(2.99887 -0.00233128 0)
(3 1.1157e-07 0)
(2.99854 -0.00256748 0)
(3 1.10635e-07 0)
(2.9976 -0.00380384 0)
(3 1.08858e-07 0)
(2.99736 -0.00457241 0)
(3 1.07468e-07 0)
(2.99692 -0.00481483 0)
(3 1.04724e-07 0)
(2.99531 -0.00662505 0)
(3 1.03333e-07 0)
(2.99379 -0.00653608 0)
(3 9.77347e-08 0)
(2.99173 -0.007084 0)
(3 9.0623e-08 0)
(2.99052 -0.00682793 0)
(3 7.86897e-08 0)
(2.98929 -0.00576149 0)
(3 6.88928e-08 0)
(2.98649 -0.00489611 0)
(3 3.92387e-08 0)
(2.98114 -0.00416975 0)
(3 5.63753e-08 0)
(2.97543 -0.00251068 0)
(3 2.31083e-08 0)
(2.97092 -0.00120736 0)
(2.99963 -0.000738009 0)
(2.9996 -0.000794963 0)
(2.99954 -0.000914703 0)
(2.99949 -0.000993715 0)
(2.99938 -0.00122825 0)
(2.99933 -0.00129924 0)
(2.9995 -0.00097033 0)
(2.99945 -0.0010668 0)
(2.99938 -0.00121528 0)
(2.99931 -0.0013565 0)
(2.99918 -0.00162545 0)
(2.99908 -0.00178601 0)
(2.99934 -0.00126337 0)
(2.99929 -0.00134853 0)
(2.99918 -0.0015762 0)
(2.99912 -0.00167739 0)
(2.99894 -0.00205638 0)
(2.99882 -0.00223855 0)
(2.99906 -0.00185697 0)
(2.99899 -0.00194645 0)
(2.99886 -0.00219686 0)
(2.99874 -0.00238078 0)
(2.99858 -0.00268465 0)
(2.9984 -0.00298563 0)
(2.9988 -0.00219803 0)
(2.99867 -0.00247314 0)
(2.99855 -0.00270575 0)
(2.99837 -0.0030532 0)
(2.99815 -0.00345176 0)
(2.99795 -0.0038352 0)
(2.9984 -0.00283415 0)
(2.99831 -0.00296827 0)
(2.99812 -0.00336679 0)
(2.998 -0.00354608 0)
(2.99766 -0.00426903 0)
(2.99746 -0.00455865 0)
(2.99804 -0.0039349 0)
(2.99785 -0.00415685 0)
(2.99758 -0.00457834 0)
(2.99727 -0.00499774 0)
(2.99701 -0.00534179 0)
(2.99656 -0.00615357 0)
(2.99758 -0.00460298 0)
(2.99735 -0.00511019 0)
(2.99717 -0.00544221 0)
(2.9968 -0.0061007 0)
(2.99649 -0.00650609 0)
(2.996 -0.00734962 0)
(2.99653 -0.00546374 0)
(2.99638 -0.00587174 0)
(2.99624 -0.00630232 0)
(2.99604 -0.00687455 0)
(2.9957 -0.00766915 0)
(2.99536 -0.00833346 0)
(2.99563 -0.00724289 0)
(2.9953 -0.00760636 0)
(2.9949 -0.00826399 0)
(2.99456 -0.00873645 0)
(2.99417 -0.0095885 0)
(2.99393 -0.0101213 0)
(2.99476 -0.00875703 0)
(2.99437 -0.00936241 0)
(2.99403 -0.00979796 0)
(2.99335 -0.0110446 0)
(2.99294 -0.0114008 0)
(2.99198 -0.0136944 0)
(2.99365 -0.00865973 0)
(2.99325 -0.00963197 0)
(2.99307 -0.0100068 0)
(2.99235 -0.01136 0)
(2.99177 -0.0128688 0)
(2.99595 -0.0233208 0)
(2.99087 -0.0116924 0)
(2.99088 -0.0120382 0)
(2.99042 -0.0141541 0)
(2.99054 -0.0139259 0)
(2.98891 -0.0174607 0)
(2.67465 -0.407804 0)
(2.98811 -0.0113485 0)
(2.98765 -0.0126328 0)
(2.98742 -0.0137721 0)
(2.98686 -0.0159609 0)
(2.94264 -0.092992 0)
(1.75123 -0.811472 0)
(2.98485 -0.0117521 0)
(2.98418 -0.0126817 0)
(2.98374 -0.0151309 0)
(2.98171 -0.0163072 0)
(2.05546 -0.666016 0)
(1.41532 -0.875543 0)
(2.98345 -0.0109559 0)
(2.98243 -0.0120785 0)
(2.9806 -0.0147144 0)
(2.74836 -0.309278 0)
(1.54043 -0.805628 0)
(1.40703 -0.856844 0)
(2.98071 -0.00836548 0)
(2.97932 -0.00990798 0)
(2.92896 -0.101803 0)
(1.68648 -0.795083 0)
(1.36323 -0.828872 0)
(1.37886 -0.825717 0)
(2.9736 -0.00640828 0)
(2.96923 -0.0182909 0)
(1.92544 -0.717219 0)
(1.31662 -0.801442 0)
(1.33036 -0.768849 0)
(1.32474 -0.77064 0)
(2.95532 -0.0119467 0)
(2.07955 -0.57028 0)
(1.18175 -0.837268 0)
(1.2226 -0.794373 0)
(1.25971 -0.778473 0)
(1.27286 -0.763451 0)
(2.64154 -0.106517 0)
(1.53337 -0.383857 0)
(1.2394 -0.562981 0)
(1.30114 -0.673052 0)
(1.30074 -0.740047 0)
(1.29452 -0.749442 0)
(3 1.89102e-09 0)
(3 -3.24208e-08 0)
(3 5.61443e-09 0)
(3 -8.41252e-09 0)
(3 1.01475e-08 0)
(3 -2.42508e-08 0)
(3 1.45411e-08 0)
(3 -4.78232e-08 0)
(3 1.9365e-08 0)
(3 -1.1736e-07 0)
(3 2.45986e-08 0)
(3 -2.21858e-07 0)
(3 3.02977e-08 0)
(3 -3.98196e-07 0)
(3 3.6297e-08 0)
(3 -7.05102e-07 0)
(3 4.266e-08 0)
(3 -1.23173e-06 0)
(3 4.91454e-08 0)
(3 -2.02522e-06 0)
(3 5.59525e-08 0)
(3 -3.68583e-06 0)
(3 6.26612e-08 0)
(3 -5.43516e-06 0)
(3 6.95508e-08 0)
(2.99999 -1.02619e-05 0)
(3 7.60344e-08 0)
(2.99999 -1.51413e-05 0)
(3 8.25461e-08 0)
(2.99999 -2.65443e-05 0)
(3 8.83196e-08 0)
(2.99998 -4.23954e-05 0)
(3 9.40286e-08 0)
(2.99996 -7.15544e-05 0)
(3 9.87055e-08 0)
(2.99994 -0.000113591 0)
(3 1.0317e-07 0)
(2.99991 -0.000197215 0)
(3 1.06378e-07 0)
(2.99986 -0.00026729 0)
(3 3.73333e-08 0)
(3 3.39286e-08 0)
(3 5.24313e-08 0)
(3 4.72994e-08 0)
(3 6.73046e-08 0)
(3 6.08655e-08 0)
(3 4.92322e-08 0)
(3 4.24253e-08 0)
(3 7.5622e-08 0)
(3 5.86221e-08 0)
(3 1.01304e-07 0)
(3 7.73387e-08 0)
(3 2.18427e-08 0)
(3 8.798e-09 0)
(3 4.23573e-08 0)
(3 1.48755e-08 0)
(3 7.02812e-08 0)
(3 2.7824e-08 0)
(3 -2.18098e-08 0)
(3 -4.15129e-08 0)
(3 -1.4113e-08 0)
(3 -5.49971e-08 0)
(3 -4.69311e-09 0)
(3 -8.07944e-08 0)
(3 -1.39377e-07 0)
(3 -1.77607e-07 0)
(3 -1.63579e-07 0)
(3 -2.39501e-07 0)
(3 -2.07363e-07 0)
(3 -3.41748e-07 0)
(3 -3.11265e-07 0)
(3 -3.73993e-07 0)
(3 -3.81695e-07 0)
(3 -4.99265e-07 0)
(3 -5.06256e-07 0)
(3 -7.04902e-07 0)
(3 -6.23822e-07 0)
(3 -7.19124e-07 0)
(3 -7.81381e-07 0)
(3 -9.49563e-07 0)
(3 -1.05078e-06 0)
(3 -1.32215e-06 0)
(3 -1.17978e-06 0)
(3 -1.32527e-06 0)
(3 -1.49075e-06 0)
(3 -1.73772e-06 0)
(3 -2.00697e-06 0)
(3 -2.39556e-06 0)
(3 -2.10591e-06 0)
(3 -2.34353e-06 0)
(3 -2.65646e-06 0)
(3 -3.05585e-06 0)
(3 -3.54888e-06 0)
(3 -4.19113e-06 0)
(3 -3.5614e-06 0)
(3 -3.95828e-06 0)
(3 -4.51625e-06 0)
(3 -5.19442e-06 0)
(3 -6.07447e-06 0)
(3 -7.15364e-06 0)
(3 -6.1403e-06 0)
(3 -6.84173e-06 0)
(3 -7.70155e-06 0)
(3 -8.85563e-06 0)
(2.99999 -1.02193e-05 0)
(2.99999 -1.20388e-05 0)
(2.99999 -1.00942e-05 0)
(2.99999 -1.10601e-05 0)
(2.99999 -1.27619e-05 0)
(2.99999 -1.44692e-05 0)
(2.99999 -1.70489e-05 0)
(2.99999 -1.99413e-05 0)
(2.99999 -1.61794e-05 0)
(2.99999 -1.8452e-05 0)
(2.99999 -2.02643e-05 0)
(2.99999 -2.41147e-05 0)
(2.99999 -2.7229e-05 0)
(2.99998 -3.29682e-05 0)
(2.99999 -2.80318e-05 0)
(2.99998 -3.01046e-05 0)
(2.99998 -3.56879e-05 0)
(2.99998 -3.87731e-05 0)
(2.99998 -4.73723e-05 0)
(2.99997 -5.25458e-05 0)
(2.99998 -4.52158e-05 0)
(2.99997 -5.0562e-05 0)
(2.99997 -5.60092e-05 0)
(2.99997 -6.55451e-05 0)
(2.99996 -7.29054e-05 0)
(2.99996 -8.87865e-05 0)
(2.99996 -7.02669e-05 0)
(2.99996 -7.98589e-05 0)
(2.99996 -8.69093e-05 0)
(2.99995 -0.000104299 0)
(2.99994 -0.000113836 0)
(2.99993 -0.00014304 0)
(2.99994 -0.000113588 0)
(2.99993 -0.000129245 0)
(2.99993 -0.000139726 0)
(2.99991 -0.000168648 0)
(2.99991 -0.000182348 0)
(2.99988 -0.000234021 0)
(2.99991 -0.000180367 0)
(2.99989 -0.000209672 0)
(2.99988 -0.000223954 0)
(2.99986 -0.000280422 0)
(2.99985 -0.000300228 0)
(2.99981 -0.000396053 0)
(2.99985 -0.000299337 0)
(2.99983 -0.000341346 0)
(2.9998 -0.000377743 0)
(2.99977 -0.000445085 0)
(2.99973 -0.000518103 0)
(2.99969 -0.000598984 0)
(2.99974 -0.000518141 0)
(2.99972 -0.000549574 0)
(2.99967 -0.00066393 0)
(2.99964 -0.00070152 0)
(2.99956 -0.000882448 0)
(2.99952 -0.000942295 0)
)
;

boundaryField
{
    inlet
    {
        type            fixedValue;
        value           nonuniform 0();
    }
    outlet
    {
        type            inletOutlet;
        inletValue      nonuniform 0();
        value           nonuniform 0();
    }
    triangle
    {
        type            slip;
    }
    top
    {
        type            symmetryPlane;
    }
    bottom
    {
        type            symmetryPlane;
    }
    defaultFaces
    {
        type            empty;
    }
    procBoundary1to0
    {
        type            processor;
        value           nonuniform List<vector> 
40
(
(3 -6.10708e-10 0)
(3 -6.02838e-10 0)
(3 -5.89981e-10 0)
(3 -5.74418e-10 0)
(3 -5.56089e-10 0)
(3 -5.33e-10 0)
(3 -5.05674e-10 0)
(3 -4.74918e-10 0)
(3 -4.40018e-10 0)
(3 -4.03743e-10 0)
(3 -3.6533e-10 0)
(3 -3.23044e-10 0)
(3 -2.82071e-10 0)
(3 -2.35392e-10 0)
(3 -1.89188e-10 0)
(3 -1.48595e-10 0)
(3 -1.03744e-10 0)
(3 -7.11034e-11 0)
(3 -3.90964e-11 0)
(3 -1.30919e-11 0)
(3 -1.78451e-11 0)
(3 -2.73443e-11 0)
(3 -5.24913e-11 0)
(3 -1.01704e-10 0)
(3 -1.58394e-10 0)
(3 -2.1873e-10 0)
(3 -2.74228e-10 0)
(3 -3.3296e-10 0)
(3 -3.88326e-10 0)
(3 -4.347e-10 0)
(3 -4.75249e-10 0)
(3 -5.01803e-10 0)
(3 -5.32243e-10 0)
(3 -5.49682e-10 0)
(3 -5.73165e-10 0)
(3 -5.87303e-10 0)
(3 -6.03869e-10 0)
(3 -6.13703e-10 0)
(3 -6.20428e-10 0)
(3 -6.17519e-10 0)
)
;
    }
    procBoundary1to2
    {
        type            processor;
        value           nonuniform List<vector> 
40
(
(2.99912 -0.00176093 0)
(2.99888 -0.00219536 0)
(2.99855 -0.00280458 0)
(2.99818 -0.00343305 0)
(2.99756 -0.00468921 0)
(2.99703 -0.00538035 0)
(2.99636 -0.00633216 0)
(2.99562 -0.00781812 0)
(2.99437 -0.0104325 0)
(2.99292 -0.0189954 0)
(2.85194 -0.242157 0)
(1.93991 -0.776166 0)
(1.62098 -0.872468 0)
(1.49538 -0.894549 0)
(1.45089 -0.884176 0)
(1.41113 -0.86312 0)
(1.36727 -0.8346 0)
(1.3247 -0.778951 0)
(1.28382 -0.766994 0)
(1.29136 -0.747623 0)
(3 8.3999e-08 0)
(3 1.25252e-07 0)
(3 1.11385e-07 0)
(3 1.00801e-08 0)
(3 -2.68374e-07 0)
(3 -6.98035e-07 0)
(3 -1.48196e-06 0)
(3 -2.84148e-06 0)
(3 -4.96703e-06 0)
(3 -8.56674e-06 0)
(2.99999 -1.4236e-05 0)
(2.99999 -2.39199e-05 0)
(2.99998 -3.85656e-05 0)
(2.99997 -6.49224e-05 0)
(2.99995 -9.93119e-05 0)
(2.99992 -0.000155144 0)
(2.99987 -0.00025092 0)
(2.99979 -0.00042425 0)
(2.99962 -0.000755019 0)
(2.99937 -0.00125174 0)
)
;
    }
    procBoundary1to4
    {
        type            processor;
        value           nonuniform List<vector> 2((3 8.70761e-12 0) (3 3.67165e-11 0));
    }
    procBoundary1to5
    {
        type            processor;
        value           nonuniform List<vector> 6((2.95539 0.0118966 0) (1.23942 0.562947 0) (2.08001 0.570093 0) (2.97544 0.00250475 0) (2.97544 0.00250475 0) (3 -3.92688e-08 0));
    }
}


// ************************************************************************* //
