/*--------------------------------*- C++ -*----------------------------------*\
  =========                 |
  \\      /  F ield         | OpenFOAM: The Open Source CFD Toolbox
   \\    /   O peration     | Website:  https://openfoam.org
    \\  /    A nd           | Version:  8
     \\/     M anipulation  |
\*---------------------------------------------------------------------------*/
FoamFile
{
    version     2.0;
    format      ascii;
    class       volVectorField;
    location    "1";
    object      U;
}
// * * * * * * * * * * * * * * * * * * * * * * * * * * * * * * * * * * * * * //

dimensions      [0 1 -1 0 0 0 0];

internalField   nonuniform List<vector> 
325
(
(2.64186 0.10642 0)
(1.53373 0.383839 0)
(3 -2.31402e-08 0)
(2.97093 0.00121072 0)
(3 -5.63124e-08 0)
(3 1.08886e-07 0)
(2.99978 -0.000423752 0)
(3 1.10299e-07 0)
(2.9997 -0.000574112 0)
(3 1.11686e-07 0)
(2.9996 -0.000772141 0)
(3 1.12387e-07 0)
(2.99945 -0.00107851 0)
(3 1.12977e-07 0)
(2.99928 -0.00127176 0)
(3 1.12818e-07 0)
(2.99901 -0.00177926 0)
(3 1.12567e-07 0)
(2.99887 -0.00233123 0)
(3 1.11586e-07 0)
(2.99854 -0.00256744 0)
(3 1.10654e-07 0)
(2.9976 -0.00380368 0)
(3 1.08878e-07 0)
(2.99736 -0.00457226 0)
(3 1.0749e-07 0)
(2.99692 -0.00481462 0)
(3 1.04747e-07 0)
(2.99531 -0.00662466 0)
(3 1.03359e-07 0)
(2.99379 -0.00653575 0)
(3 9.77633e-08 0)
(2.99173 -0.00708351 0)
(3 9.06548e-08 0)
(2.99052 -0.0068274 0)
(3 7.87218e-08 0)
(2.98929 -0.00576106 0)
(3 6.89266e-08 0)
(2.98649 -0.00489534 0)
(3 3.92694e-08 0)
(2.98114 -0.00417039 0)
(3 5.64122e-08 0)
(2.97543 -0.00251015 0)
(3 2.31491e-08 0)
(2.97092 -0.00120749 0)
(2.99963 -0.000738013 0)
(2.9996 -0.000794952 0)
(2.99954 -0.000914712 0)
(2.99949 -0.000993681 0)
(2.99938 -0.00122825 0)
(2.99933 -0.0012992 0)
(2.9995 -0.000970325 0)
(2.99945 -0.00106678 0)
(2.99938 -0.00121527 0)
(2.99931 -0.00135647 0)
(2.99918 -0.00162543 0)
(2.99908 -0.001786 0)
(2.99934 -0.00126336 0)
(2.99929 -0.0013485 0)
(2.99918 -0.00157617 0)
(2.99912 -0.00167736 0)
(2.99894 -0.00205632 0)
(2.99882 -0.00223849 0)
(2.99906 -0.00185695 0)
(2.99899 -0.00194643 0)
(2.99886 -0.00219682 0)
(2.99874 -0.00238074 0)
(2.99858 -0.00268462 0)
(2.9984 -0.00298559 0)
(2.9988 -0.00219796 0)
(2.99867 -0.00247306 0)
(2.99855 -0.00270571 0)
(2.99837 -0.00305312 0)
(2.99815 -0.00345171 0)
(2.99795 -0.00383508 0)
(2.9984 -0.00283407 0)
(2.99831 -0.00296819 0)
(2.99812 -0.0033667 0)
(2.998 -0.00354596 0)
(2.99766 -0.00426892 0)
(2.99746 -0.00455857 0)
(2.99804 -0.00393477 0)
(2.99785 -0.00415671 0)
(2.99758 -0.00457818 0)
(2.99727 -0.00499759 0)
(2.99701 -0.00534164 0)
(2.99656 -0.00615338 0)
(2.99758 -0.00460285 0)
(2.99735 -0.00511004 0)
(2.99717 -0.0054421 0)
(2.9968 -0.00610056 0)
(2.99649 -0.00650594 0)
(2.996 -0.00734951 0)
(2.99653 -0.00546354 0)
(2.99638 -0.00587159 0)
(2.99624 -0.00630214 0)
(2.99604 -0.00687441 0)
(2.9957 -0.00766895 0)
(2.99536 -0.00833333 0)
(2.99563 -0.00724257 0)
(2.9953 -0.00760605 0)
(2.9949 -0.00826372 0)
(2.99456 -0.0087361 0)
(2.99417 -0.00958826 0)
(2.99393 -0.010121 0)
(2.99476 -0.00875688 0)
(2.99437 -0.00936224 0)
(2.99403 -0.00979773 0)
(2.99335 -0.0110442 0)
(2.99294 -0.0114005 0)
(2.99198 -0.013694 0)
(2.99365 -0.00865934 0)
(2.99325 -0.00963161 0)
(2.99307 -0.0100063 0)
(2.99235 -0.0113595 0)
(2.99177 -0.0128684 0)
(2.99594 -0.0233181 0)
(2.99087 -0.0116917 0)
(2.99088 -0.0120374 0)
(2.99042 -0.0141533 0)
(2.99054 -0.0139252 0)
(2.98891 -0.0174599 0)
(2.67468 -0.407768 0)
(2.98811 -0.0113479 0)
(2.98765 -0.012632 0)
(2.98742 -0.0137714 0)
(2.98686 -0.01596 0)
(2.94265 -0.0929741 0)
(1.75124 -0.811465 0)
(2.98485 -0.0117512 0)
(2.98418 -0.0126808 0)
(2.98374 -0.0151298 0)
(2.98171 -0.0163064 0)
(2.05552 -0.665996 0)
(1.41532 -0.875544 0)
(2.98346 -0.0109551 0)
(2.98243 -0.0120776 0)
(2.9806 -0.0147133 0)
(2.74839 -0.309233 0)
(1.54046 -0.805625 0)
(1.40703 -0.85684 0)
(2.98071 -0.00836455 0)
(2.97932 -0.00990717 0)
(2.92898 -0.101788 0)
(1.6865 -0.795077 0)
(1.36324 -0.828873 0)
(1.37887 -0.825714 0)
(2.9736 -0.00640837 0)
(2.96923 -0.0182834 0)
(1.92548 -0.717209 0)
(1.31663 -0.801446 0)
(1.33036 -0.768853 0)
(1.32474 -0.77064 0)
(2.95534 -0.0119369 0)
(2.07964 -0.570243 0)
(1.18176 -0.837271 0)
(1.22261 -0.794383 0)
(1.25971 -0.77848 0)
(1.27287 -0.763455 0)
(2.6416 -0.106498 0)
(1.53344 -0.383853 0)
(1.23941 -0.562974 0)
(1.30115 -0.673054 0)
(1.30075 -0.740054 0)
(1.29453 -0.749446 0)
(3 1.89304e-09 0)
(3 -3.2408e-08 0)
(3 5.61848e-09 0)
(3 -8.39931e-09 0)
(3 1.01516e-08 0)
(3 -2.42366e-08 0)
(3 1.4542e-08 0)
(3 -4.78171e-08 0)
(3 1.93609e-08 0)
(3 -1.17381e-07 0)
(3 2.45899e-08 0)
(3 -2.21904e-07 0)
(3 3.02854e-08 0)
(3 -3.98269e-07 0)
(3 3.62824e-08 0)
(3 -7.05195e-07 0)
(3 4.26428e-08 0)
(3 -1.23186e-06 0)
(3 4.91275e-08 0)
(3 -2.02534e-06 0)
(3 5.59334e-08 0)
(3 -3.68601e-06 0)
(3 6.26425e-08 0)
(3 -5.43528e-06 0)
(3 6.95321e-08 0)
(2.99999 -1.02621e-05 0)
(3 7.60169e-08 0)
(2.99999 -1.51415e-05 0)
(3 8.25297e-08 0)
(2.99999 -2.65443e-05 0)
(3 8.83051e-08 0)
(2.99998 -4.23957e-05 0)
(3 9.40158e-08 0)
(2.99996 -7.1554e-05 0)
(3 9.86949e-08 0)
(2.99994 -0.000113589 0)
(3 1.03163e-07 0)
(2.99991 -0.000197215 0)
(3 1.06373e-07 0)
(2.99986 -0.000267288 0)
(3 3.73417e-08 0)
(3 3.39396e-08 0)
(3 5.24388e-08 0)
(3 4.73104e-08 0)
(3 6.73114e-08 0)
(3 6.0878e-08 0)
(3 4.92482e-08 0)
(3 4.24423e-08 0)
(3 7.56405e-08 0)
(3 5.86443e-08 0)
(3 1.01327e-07 0)
(3 7.73662e-08 0)
(3 2.18651e-08 0)
(3 8.82289e-09 0)
(3 4.23816e-08 0)
(3 1.49012e-08 0)
(3 7.03063e-08 0)
(3 2.78581e-08 0)
(3 -2.18094e-08 0)
(3 -4.15135e-08 0)
(3 -1.41128e-08 0)
(3 -5.49957e-08 0)
(3 -4.69267e-09 0)
(3 -8.07981e-08 0)
(3 -1.3941e-07 0)
(3 -1.77645e-07 0)
(3 -1.6362e-07 0)
(3 -2.39549e-07 0)
(3 -2.07415e-07 0)
(3 -3.41811e-07 0)
(3 -3.11335e-07 0)
(3 -3.74072e-07 0)
(3 -3.81777e-07 0)
(3 -4.99372e-07 0)
(3 -5.06347e-07 0)
(3 -7.05067e-07 0)
(3 -6.23928e-07 0)
(3 -7.19246e-07 0)
(3 -7.81502e-07 0)
(3 -9.49728e-07 0)
(3 -1.05092e-06 0)
(3 -1.32239e-06 0)
(3 -1.17992e-06 0)
(3 -1.32542e-06 0)
(3 -1.49092e-06 0)
(3 -1.73792e-06 0)
(3 -2.00717e-06 0)
(3 -2.39584e-06 0)
(3 -2.10611e-06 0)
(3 -2.34375e-06 0)
(3 -2.65671e-06 0)
(3 -3.05613e-06 0)
(3 -3.54918e-06 0)
(3 -4.19151e-06 0)
(3 -3.56161e-06 0)
(3 -3.95849e-06 0)
(3 -4.51649e-06 0)
(3 -5.19469e-06 0)
(3 -6.07479e-06 0)
(3 -7.15401e-06 0)
(3 -6.14057e-06 0)
(3 -6.84203e-06 0)
(3 -7.70191e-06 0)
(3 -8.85604e-06 0)
(2.99999 -1.02198e-05 0)
(2.99999 -1.20394e-05 0)
(2.99999 -1.00944e-05 0)
(2.99999 -1.10604e-05 0)
(2.99999 -1.27622e-05 0)
(2.99999 -1.44695e-05 0)
(2.99999 -1.70492e-05 0)
(2.99999 -1.99417e-05 0)
(2.99999 -1.61797e-05 0)
(2.99999 -1.84523e-05 0)
(2.99999 -2.02647e-05 0)
(2.99999 -2.4115e-05 0)
(2.99999 -2.72295e-05 0)
(2.99998 -3.29686e-05 0)
(2.99999 -2.80319e-05 0)
(2.99998 -3.01048e-05 0)
(2.99998 -3.5688e-05 0)
(2.99998 -3.87735e-05 0)
(2.99998 -4.73722e-05 0)
(2.99997 -5.25467e-05 0)
(2.99998 -4.52161e-05 0)
(2.99997 -5.0562e-05 0)
(2.99997 -5.60097e-05 0)
(2.99997 -6.55448e-05 0)
(2.99996 -7.29065e-05 0)
(2.99996 -8.87848e-05 0)
(2.99996 -7.02668e-05 0)
(2.99996 -7.98588e-05 0)
(2.99996 -8.69092e-05 0)
(2.99995 -0.000104298 0)
(2.99994 -0.000113835 0)
(2.99993 -0.000143039 0)
(2.99994 -0.000113589 0)
(2.99993 -0.000129245 0)
(2.99993 -0.000139726 0)
(2.99991 -0.000168647 0)
(2.99991 -0.000182348 0)
(2.99988 -0.00023402 0)
(2.99991 -0.000180363 0)
(2.99989 -0.000209668 0)
(2.99988 -0.00022395 0)
(2.99986 -0.000280417 0)
(2.99985 -0.000300222 0)
(2.99981 -0.000396047 0)
(2.99985 -0.000299334 0)
(2.99983 -0.000341342 0)
(2.9998 -0.000377738 0)
(2.99977 -0.000445079 0)
(2.99973 -0.000518096 0)
(2.99969 -0.000598976 0)
(2.99974 -0.000518128 0)
(2.99972 -0.000549565 0)
(2.99967 -0.000663913 0)
(2.99964 -0.000701514 0)
(2.99956 -0.000882421 0)
(2.99952 -0.000942285 0)
)
;

boundaryField
{
    inlet
    {
        type            fixedValue;
        value           nonuniform List<vector> 0();
    }
    outlet
    {
        type            inletOutlet;
        inletValue      nonuniform List<vector> 0();
        value           nonuniform List<vector> 0();
    }
    triangle
    {
        type            slip;
    }
    top
    {
        type            symmetryPlane;
    }
    bottom
    {
        type            symmetryPlane;
    }
    defaultFaces
    {
        type            empty;
    }
    procBoundary1to0
    {
        type            processor;
        value           nonuniform List<vector> 
40
(
(3 -6.10033e-10 0)
(3 -6.01862e-10 0)
(3 -5.89108e-10 0)
(3 -5.73779e-10 0)
(3 -5.55747e-10 0)
(3 -5.32257e-10 0)
(3 -5.04761e-10 0)
(3 -4.74029e-10 0)
(3 -4.39383e-10 0)
(3 -4.03136e-10 0)
(3 -3.6489e-10 0)
(3 -3.22573e-10 0)
(3 -2.81398e-10 0)
(3 -2.34747e-10 0)
(3 -1.88672e-10 0)
(3 -1.48008e-10 0)
(3 -1.03469e-10 0)
(3 -7.10771e-11 0)
(3 -3.88172e-11 0)
(3 -1.30946e-11 0)
(3 -1.8095e-11 0)
(3 -2.75313e-11 0)
(3 -5.26468e-11 0)
(3 -1.01697e-10 0)
(3 -1.57807e-10 0)
(3 -2.18534e-10 0)
(3 -2.74069e-10 0)
(3 -3.3256e-10 0)
(3 -3.8824e-10 0)
(3 -4.34806e-10 0)
(3 -4.75224e-10 0)
(3 -5.01828e-10 0)
(3 -5.32123e-10 0)
(3 -5.49478e-10 0)
(3 -5.72707e-10 0)
(3 -5.86975e-10 0)
(3 -6.03669e-10 0)
(3 -6.13365e-10 0)
(3 -6.19655e-10 0)
(3 -6.16971e-10 0)
)
;
    }
    procBoundary1to2
    {
        type            processor;
        value           nonuniform List<vector> 
40
(
(2.99912 -0.00176089 0)
(2.99888 -0.00219531 0)
(2.99855 -0.00280452 0)
(2.99818 -0.00343302 0)
(2.99756 -0.0046891 0)
(2.99703 -0.00538027 0)
(2.99636 -0.00633201 0)
(2.99562 -0.00781794 0)
(2.99438 -0.0104321 0)
(2.99292 -0.0189945 0)
(2.85196 -0.24213 0)
(1.93994 -0.776155 0)
(1.62101 -0.87246 0)
(1.49538 -0.894547 0)
(1.45088 -0.884177 0)
(1.41113 -0.863119 0)
(1.36728 -0.8346 0)
(1.32471 -0.778949 0)
(1.28383 -0.766995 0)
(1.29137 -0.747627 0)
(3 8.40072e-08 0)
(3 1.2528e-07 0)
(3 1.11421e-07 0)
(3 1.00779e-08 0)
(3 -2.68446e-07 0)
(3 -6.98125e-07 0)
(3 -1.48212e-06 0)
(3 -2.84176e-06 0)
(3 -4.96743e-06 0)
(3 -8.56718e-06 0)
(2.99999 -1.42366e-05 0)
(2.99999 -2.39203e-05 0)
(2.99998 -3.85664e-05 0)
(2.99997 -6.49219e-05 0)
(2.99995 -9.93152e-05 0)
(2.99992 -0.000155144 0)
(2.99987 -0.000250919 0)
(2.99979 -0.000424241 0)
(2.99962 -0.000755003 0)
(2.99937 -0.00125172 0)
)
;
    }
    procBoundary1to4
    {
        type            processor;
        value           nonuniform List<vector> 2((3 8.50573e-12 0) (3 3.62769e-11 0));
    }
    procBoundary1to5
    {
        type            processor;
        value           nonuniform List<vector> 6((2.9554 0.0118942 0) (1.23942 0.562946 0) (2.08003 0.570084 0) (2.97544 0.0025051 0) (2.97544 0.0025051 0) (3 -3.92432e-08 0));
    }
}


// ************************************************************************* //
