/*--------------------------------*- C++ -*----------------------------------*\
  =========                 |
  \\      /  F ield         | OpenFOAM: The Open Source CFD Toolbox
   \\    /   O peration     | Website:  https://openfoam.org
    \\  /    A nd           | Version:  8
     \\/     M anipulation  |
\*---------------------------------------------------------------------------*/
FoamFile
{
    version     2.0;
    format      ascii;
    class       volScalarField;
    location    "0.4";
    object      p;
}
// * * * * * * * * * * * * * * * * * * * * * * * * * * * * * * * * * * * * * //

dimensions      [1 -1 -2 0 0 0 0];

internalField   nonuniform List<scalar> 
2600
(
0.782071
0.624017
0.475772
0.695098
1.61586
1.77128
1.31243
1.0263
0.971421
0.963122
0.836194
0.864168
0.787246
0.948647
1.69585
1.77998
1.29311
1.02562
0.972265
0.963507
0.86377
1.02618
1.10288
1.36416
1.92128
1.80963
1.27171
1.02419
0.972747
0.963729
0.829663
0.993549
1.25675
1.59186
2.07543
1.85531
1.25314
1.02239
0.973497
0.964106
0.860334
0.951522
1.18197
1.76758
2.17435
1.89891
1.23826
1.02123
0.973874
0.964485
0.833483
0.971729
1.16422
1.78083
2.23968
1.93172
1.22485
1.02073
0.974289
0.964864
0.811969
0.947463
1.17012
1.70756
2.32517
1.95128
1.20974
1.02107
0.974489
0.965198
0.885415
0.907435
1.07893
1.69191
2.4775
1.96765
1.20028
1.02324
0.974587
0.965575
1.02536
0.964222
0.992854
1.69313
2.52396
1.99659
1.20595
1.02517
0.974574
0.965905
1.12516
1.02094
0.960632
1.74069
2.56039
2.02088
1.21048
1.02567
0.974431
0.966149
1.12516
1.02094
0.960632
1.74069
2.56039
2.02088
1.21048
1.02567
0.974431
0.966149
1.02536
0.964221
0.992854
1.69313
2.52396
1.99659
1.20595
1.02517
0.974574
0.965905
0.885417
0.907435
1.07893
1.69191
2.4775
1.96765
1.20028
1.02324
0.974587
0.965575
0.811971
0.947464
1.17012
1.70756
2.32517
1.95128
1.20974
1.02107
0.974489
0.965198
0.833483
0.97173
1.16422
1.78083
2.23968
1.93172
1.22485
1.02073
0.974289
0.964864
0.860332
0.951522
1.18197
1.76758
2.17435
1.89891
1.23826
1.02123
0.973874
0.964485
0.829661
0.993549
1.25675
1.59186
2.07543
1.85531
1.25314
1.02239
0.973497
0.964106
0.86377
1.02618
1.10288
1.36416
1.92128
1.80963
1.27171
1.02419
0.972746
0.963729
0.836196
0.864168
0.787246
0.948648
1.69586
1.77998
1.29311
1.02562
0.972265
0.963507
0.782072
0.624018
0.475773
0.695098
1.61586
1.77128
1.31243
1.0263
0.971421
0.963122
1.92635
0.82837
0.594219
0.715328
1.55429
1.78129
1.33517
1.02684
0.970455
0.963007
2.78264
1.14562
0.700757
0.767423
1.50931
1.79642
1.3565
1.02727
0.969196
0.96251
3.42045
1.47896
0.831826
0.842838
1.47227
1.80899
1.37547
1.02752
0.967917
0.962212
3.89636
1.88085
1.00888
0.958036
1.45167
1.81686
1.39135
1.02731
0.966687
0.961703
4.29052
2.22037
1.18501
1.05899
1.45574
1.83356
1.40728
1.02634
0.965432
0.961215
4.64042
2.53051
1.39995
1.14211
1.47767
1.85344
1.42213
1.02454
0.964155
0.960704
4.93911
2.83332
1.63611
1.23417
1.51831
1.87674
1.43416
1.02246
0.962909
0.960171
5.20497
3.10674
1.87177
1.33216
1.57144
1.89212
1.43859
1.02052
0.961723
0.959674
5.44942
3.36613
2.0933
1.45716
1.64077
1.90489
1.43884
1.01878
0.960541
0.959209
5.66589
3.61625
2.31836
1.5916
1.69952
1.90438
1.43979
1.01724
0.959242
0.958763
5.86315
3.85213
2.52581
1.74097
1.77357
1.91594
1.44033
1.0151
0.957733
0.958326
6.04212
4.07478
2.73133
1.89298
1.84776
1.93377
1.4441
1.01218
0.95603
0.957891
6.19748
4.2857
2.92374
2.05176
1.92802
1.96262
1.44733
1.00879
0.95422
0.957434
6.32831
4.48028
3.10743
2.21087
2.01674
2.00703
1.45511
1.00405
0.952395
0.956954
6.43949
4.66254
3.28396
2.36273
2.10942
2.0558
1.45445
0.998788
0.950524
0.956439
6.5273
4.82823
3.44694
2.51471
2.2168
2.114
1.45482
0.993917
0.948484
0.955863
6.57468
4.96799
3.60514
2.66306
2.32089
2.16602
1.45063
0.989169
0.946233
0.955527
6.5903
5.08958
3.7529
2.80734
2.43975
2.23305
1.45042
0.98411
0.944049
0.955464
6.59567
5.19889
3.89141
2.9421
2.55519
2.29961
1.44771
0.979335
0.942429
0.955506
6.55496
5.33034
4.03807
3.07667
2.67628
2.37456
1.44441
0.975226
0.941658
0.955472
11.0815
10.8117
10.4936
10.2182
9.96937
9.73637
9.50495
9.24883
8.79616
8.24723
10.3136
10.1476
9.92616
9.76596
9.59823
9.4358
9.25667
9.00955
8.552
7.7978
10.0528
10.1593
9.94568
9.79823
9.6403
9.48874
9.30652
9.03964
8.58326
7.79565
9.55025
9.90257
9.69554
9.57042
9.44176
9.32263
9.15998
8.90894
8.49269
7.7123
8.93749
9.58566
9.52884
9.50063
9.39762
9.29421
9.12092
8.8861
8.45993
7.71034
8.19395
9.2433
9.35226
9.41035
9.31106
9.18673
9.00502
8.80492
8.43324
7.73474
6.89035
8.9133
9.30233
9.30345
9.18379
9.06398
8.89906
8.72539
8.39964
7.78577
5.41123
7.94561
9.24457
9.18588
9.07362
8.96009
8.81482
8.67755
8.38114
7.83421
4.4887
5.99509
8.73072
9.09997
8.97855
8.85736
8.71482
8.60827
8.34769
7.86466
4.10496
4.41879
7.0952
8.89822
8.88909
8.74374
8.61335
8.52997
8.30024
7.87318
3.95282
3.97334
4.81438
7.85058
8.73387
8.5854
8.5205
8.44883
8.24842
7.87068
3.86353
3.83761
3.8932
5.55054
8.29532
8.4814
8.43787
8.3595
8.1902
7.85999
3.74905
3.72513
3.69828
3.95819
6.50751
8.22799
8.31875
8.18852
8.09637
7.82564
3.66953
3.65214
3.62641
3.62856
4.40521
7.1999
8.22426
8.0399
7.983
7.76362
3.61001
3.59304
3.57622
3.56111
3.63207
5.14788
7.71513
7.89096
7.84124
7.69723
3.56259
3.54599
3.53179
3.52281
3.51945
3.81173
6.18762
7.7852
7.80811
7.63011
3.52312
3.50789
3.49255
3.4876
3.48155
3.50355
4.42946
7.02239
7.66097
7.56999
3.49016
3.47602
3.46064
3.4549
3.45425
3.45098
3.60569
5.51302
7.3693
7.48201
3.46232
3.44894
3.43379
3.42624
3.42742
3.42492
3.44229
4.1296
6.57523
7.37503
3.43942
3.42677
3.41149
3.4025
3.40098
3.40318
3.40739
3.53166
5.15935
7.09224
1
1
1
1
1.00002
1.00106
1.03638
1.55984
2.74291
5.11301
1
1
1
1
1.00002
1.00106
1.03643
1.55979
2.74864
5.01406
1
1
1
1
1.00002
1.00105
1.03651
1.55976
2.76002
4.86954
1
1
1
1
1.00002
1.00104
1.03663
1.55927
2.78003
4.66548
1
1
1
1
1.00002
1.00103
1.03682
1.55868
2.76823
4.51273
1
1
1
1
1.00002
1.00103
1.03696
1.56096
2.73065
4.28552
1
1
1
1
1.00002
1.00102
1.03698
1.56593
2.70361
4.08154
1
1
1
1
1.00002
1.00102
1.03689
1.57199
2.69204
3.88928
1
1
1
1
1.00002
1.00102
1.03669
1.578
2.69466
3.73963
1
1
1
1
1.00002
1.00103
1.03644
1.58301
2.70342
3.61924
1
1
1
1
1.00002
1.00103
1.03621
1.58553
2.71453
3.53576
1
1
1
1
1.00002
1.00104
1.03605
1.5862
2.72653
3.48115
1
1
1
1
1.00002
1.00104
1.03594
1.58614
2.73896
3.4466
1
1
1
1
1.00002
1.00104
1.03588
1.58541
2.75076
3.41495
1
1
1
1
1.00002
1.00104
1.03586
1.58447
2.76356
3.38259
1
1
1
1
1.00002
1.00104
1.03585
1.5829
2.77765
3.35425
1
1
1
1
1.00002
1.00104
1.03587
1.58093
2.79052
3.33154
1
1
1
1
1.00002
1.00104
1.03591
1.57816
2.80385
3.31332
1
1
1
1
1.00002
1.00105
1.03591
1.57639
2.81499
3.29758
1
1
1
1
1.00002
1.00105
1.03591
1.57429
2.82759
3.28424
1
1
1
1
1.00002
1.00105
1.03591
1.57429
2.82759
3.28424
1
1
1
1
1.00002
1.00105
1.03591
1.57639
2.81499
3.29758
1
1
1
1
1.00002
1.00104
1.03591
1.57816
2.80385
3.31332
1
1
1
1
1.00002
1.00104
1.03587
1.58093
2.79052
3.33154
1
1
1
1
1.00002
1.00104
1.03585
1.5829
2.77765
3.35425
1
1
1
1
1.00002
1.00104
1.03586
1.58447
2.76356
3.38259
1
1
1
1
1.00002
1.00104
1.03588
1.58541
2.75076
3.41495
1
1
1
1
1.00002
1.00104
1.03594
1.58614
2.73896
3.4466
1
1
1
1
1.00002
1.00104
1.03605
1.5862
2.72653
3.48115
1
1
1
1
1.00002
1.00103
1.03621
1.58553
2.71453
3.53576
1
1
1
1
1.00002
1.00103
1.03644
1.58301
2.70342
3.61924
1
1
1
1
1.00002
1.00102
1.03669
1.578
2.69466
3.73963
1
1
1
1
1.00002
1.00102
1.03689
1.57199
2.69204
3.88928
1
1
1
1
1.00002
1.00102
1.03698
1.56593
2.70361
4.08154
1
1
1
1
1.00002
1.00103
1.03696
1.56096
2.73065
4.28552
1
1
1
1
1.00002
1.00103
1.03682
1.55868
2.76823
4.51273
1
1
1
1
1.00002
1.00104
1.03663
1.55927
2.78003
4.66548
1
1
1
1
1.00002
1.00105
1.03651
1.55976
2.76002
4.86954
1
1
1
1
1.00002
1.00106
1.03643
1.55979
2.74864
5.01406
1
1
1
1
1.00002
1.00106
1.03638
1.55984
2.74291
5.11301
3.43942
3.42677
3.41149
3.4025
3.40098
3.40318
3.40739
3.53166
5.15934
7.09223
3.46232
3.44895
3.43379
3.42624
3.42742
3.42492
3.44229
4.1296
6.57522
7.37502
3.49016
3.47602
3.46064
3.4549
3.45425
3.45098
3.60569
5.51301
7.36929
7.48201
3.52313
3.50789
3.49255
3.4876
3.48155
3.50355
4.42946
7.02238
7.66097
7.56998
3.56259
3.546
3.53179
3.52281
3.51945
3.81174
6.18762
7.78519
7.80811
7.63011
3.61001
3.59304
3.57622
3.56111
3.63207
5.14788
7.71513
7.89096
7.84124
7.69723
3.66953
3.65214
3.62641
3.62856
4.40521
7.19991
8.22426
8.0399
7.983
7.76362
3.74905
3.72514
3.69828
3.95819
6.50751
8.228
8.31875
8.18852
8.09637
7.82564
3.86354
3.83761
3.8932
5.55055
8.29533
8.4814
8.43787
8.35951
8.1902
7.85999
3.95282
3.97334
4.81438
7.85058
8.73388
8.58541
8.52051
8.44884
8.24842
7.87067
4.10496
4.41879
7.0952
8.89822
8.88909
8.74374
8.61335
8.52997
8.30024
7.87318
4.4887
5.99509
8.73072
9.09998
8.97855
8.85736
8.71482
8.60827
8.34769
7.86466
5.41123
7.94561
9.24457
9.18588
9.07362
8.9601
8.81482
8.67755
8.38113
7.83421
6.89036
8.9133
9.30233
9.30346
9.18379
9.06399
8.89906
8.72539
8.39964
7.78577
8.19395
9.24331
9.35226
9.41035
9.31106
9.18673
9.00502
8.80492
8.43324
7.73474
8.93749
9.58566
9.52884
9.50064
9.39762
9.29421
9.12092
8.8861
8.45993
7.71034
9.55025
9.90257
9.69554
9.57043
9.44177
9.32264
9.15998
8.90894
8.49269
7.7123
10.0528
10.1593
9.94569
9.79824
9.6403
9.48874
9.30652
9.03965
8.58326
7.79565
10.3136
10.1476
9.92617
9.76597
9.59824
9.43581
9.25667
9.00955
8.55201
7.7978
11.0815
10.8117
10.4936
10.2182
9.96937
9.73637
9.50496
9.24884
8.79616
8.24723
6.55496
5.33034
4.03808
3.07668
2.67628
2.37456
1.44441
0.975226
0.941658
0.955472
6.59566
5.19889
3.89141
2.9421
2.55519
2.29961
1.44771
0.979335
0.942429
0.955506
6.59029
5.08958
3.7529
2.80734
2.43975
2.23306
1.45042
0.98411
0.944049
0.955464
6.57467
4.96799
3.60514
2.66306
2.32089
2.16602
1.45063
0.989169
0.946233
0.955527
6.52729
4.82823
3.44694
2.51471
2.2168
2.114
1.45482
0.993917
0.948484
0.955863
6.43949
4.66254
3.28396
2.36273
2.10942
2.0558
1.45445
0.998788
0.950524
0.956439
6.32831
4.48028
3.10743
2.21087
2.01674
2.00703
1.45511
1.00405
0.952395
0.956954
6.19748
4.2857
2.92373
2.05176
1.92802
1.96262
1.44733
1.00879
0.95422
0.957434
6.04212
4.07477
2.73133
1.89298
1.84776
1.93377
1.4441
1.01218
0.95603
0.957891
5.86315
3.85213
2.52581
1.74097
1.77357
1.91594
1.44033
1.0151
0.957733
0.958326
5.66589
3.61625
2.31836
1.5916
1.69952
1.90438
1.43979
1.01724
0.959242
0.958763
5.44942
3.36613
2.09329
1.45716
1.64077
1.90489
1.43884
1.01878
0.960541
0.959209
5.20497
3.10673
1.87176
1.33216
1.57144
1.89212
1.43859
1.02052
0.961723
0.959674
4.93911
2.83332
1.6361
1.23417
1.51831
1.87674
1.43416
1.02246
0.962909
0.960172
4.64042
2.53051
1.39995
1.14211
1.47767
1.85344
1.42213
1.02454
0.964155
0.960704
4.29052
2.22037
1.18501
1.05899
1.45574
1.83356
1.40728
1.02634
0.965432
0.961215
3.89636
1.88085
1.00888
0.958036
1.45167
1.81686
1.39135
1.02731
0.966687
0.961703
3.42045
1.47896
0.831826
0.842838
1.47227
1.80899
1.37547
1.02752
0.967917
0.962212
2.78263
1.14562
0.700756
0.767422
1.50931
1.79642
1.3565
1.02727
0.969196
0.96251
1.92635
0.828369
0.594219
0.715327
1.55429
1.78129
1.33517
1.02684
0.970455
0.963007
3.33804
3.31804
3.2857
3.29446
3.27899
2.74095
1.56061
1.05358
1.00245
1.00177
3.33698
3.31891
3.30492
3.35554
3.31623
2.726
1.56534
1.07532
1.01094
1.00265
3.33626
3.32182
3.34879
3.43622
3.35952
2.70846
1.55892
1.08919
1.02219
1.00473
3.33647
3.33335
3.42686
3.52462
3.40093
2.70412
1.55798
1.09411
1.03106
1.00797
3.33768
3.3576
3.53256
3.59679
3.42395
2.6726
1.53112
1.09251
1.03466
1.01122
3.3385
3.39774
3.63776
3.64479
3.42745
2.61994
1.48042
1.07611
1.03478
1.01354
3.33954
3.45745
3.71469
3.67437
3.40381
2.5684
1.43853
1.04654
1.0268
1.01426
3.33982
3.54533
3.76098
3.68557
3.35661
2.51819
1.41014
1.02033
1.00982
1.01196
3.34153
3.6607
3.7938
3.66566
3.28268
2.4619
1.38687
1.00024
0.992698
1.00506
3.36153
3.7901
3.81484
3.61931
3.18964
2.39753
1.36394
0.981665
0.97686
0.998
3.41344
3.89794
3.83926
3.56975
3.09939
2.33255
1.33933
0.96347
0.962731
0.991568
3.51096
3.96637
3.8561
3.50951
3.00847
2.26859
1.31298
0.944558
0.94822
0.984734
3.66282
4.00893
3.841
3.43803
2.91504
2.20137
1.28106
0.925102
0.934623
0.97816
3.84539
4.02822
3.81968
3.37215
2.82751
2.12932
1.2477
0.908911
0.923101
0.971613
4.01065
4.10718
3.82761
3.33094
2.76941
2.07124
1.21753
0.896833
0.915059
0.965151
4.16526
4.32468
3.99638
3.41308
2.75435
2.04485
1.20741
0.897753
0.914474
0.959506
4.43125
4.79385
4.37456
3.6436
2.85281
2.05065
1.20333
0.902727
0.916946
0.954478
5.07054
5.20545
4.58433
3.74302
2.97937
2.16319
1.24725
0.926772
0.92615
0.951951
5.85366
5.42061
4.55064
3.67265
2.99373
2.34714
1.35228
0.951941
0.935688
0.952608
6.3615
5.46239
4.30046
3.35668
2.88418
2.41698
1.41979
0.967441
0.940013
0.954618
6.3615
5.46239
4.30046
3.35668
2.88418
2.41698
1.41979
0.967441
0.940013
0.954618
5.85366
5.42061
4.55064
3.67264
2.99373
2.34714
1.35228
0.951941
0.935688
0.952608
5.07055
5.20545
4.58433
3.74301
2.97937
2.16319
1.24725
0.926772
0.92615
0.951951
4.43125
4.79385
4.37456
3.64359
2.85281
2.05065
1.20333
0.902727
0.916946
0.954478
4.16526
4.32468
3.99638
3.41308
2.75436
2.04485
1.20741
0.897753
0.914474
0.959506
4.01065
4.10717
3.8276
3.33094
2.76942
2.07124
1.21753
0.896833
0.915058
0.965151
3.84539
4.02821
3.81968
3.37215
2.82751
2.12932
1.2477
0.908911
0.923101
0.971613
3.66282
4.00893
3.841
3.43803
2.91504
2.20137
1.28106
0.925102
0.934623
0.97816
3.51096
3.96636
3.8561
3.50951
3.00848
2.26859
1.31298
0.944558
0.94822
0.984734
3.41344
3.89794
3.83926
3.56975
3.09939
2.33255
1.33933
0.96347
0.962731
0.991568
3.36153
3.7901
3.81484
3.61931
3.18964
2.39753
1.36394
0.981665
0.97686
0.998
3.34152
3.66069
3.7938
3.66566
3.28268
2.4619
1.38687
1.00024
0.992698
1.00506
3.33982
3.54533
3.76098
3.68557
3.35661
2.51819
1.41014
1.02033
1.00982
1.01196
3.33954
3.45745
3.7147
3.67437
3.40381
2.5684
1.43853
1.04654
1.0268
1.01426
3.3385
3.39774
3.63776
3.64479
3.42745
2.61994
1.48042
1.07611
1.03478
1.01354
3.33768
3.3576
3.53257
3.59679
3.42395
2.6726
1.53112
1.09251
1.03466
1.01122
3.33647
3.33336
3.42686
3.52462
3.40093
2.70412
1.55798
1.09411
1.03106
1.00797
3.33626
3.32182
3.34879
3.43622
3.35953
2.70846
1.55892
1.08919
1.02219
1.00473
3.33699
3.31891
3.30492
3.35554
3.31623
2.726
1.56534
1.07532
1.01094
1.00265
3.33804
3.31805
3.2857
3.29446
3.27899
2.74095
1.56061
1.05358
1.00245
1.00177
3.41698
3.40494
3.38947
3.37926
3.37591
3.37926
3.3843
3.40986
3.81912
5.74469
3.3934
3.38209
3.36652
3.35581
3.35374
3.35641
3.36363
3.37596
3.4319
4.09229
3.37115
3.36059
3.34538
3.33725
3.33747
3.33965
3.34772
3.35927
3.38306
3.55972
3.34833
3.33907
3.32746
3.32355
3.32455
3.32653
3.33389
3.34413
3.36134
3.43663
3.3221
3.31705
3.31298
3.31252
3.31363
3.31546
3.32003
3.32701
3.34004
3.37683
3.30207
3.30385
3.30412
3.30394
3.3042
3.30499
3.30701
3.31037
3.31698
3.33594
3.29966
3.30318
3.30387
3.30222
3.29996
3.29895
3.29841
3.29904
3.30071
3.30938
3.29934
3.30337
3.30433
3.30278
3.29942
3.29681
3.2959
3.29448
3.29319
3.29431
3.30142
3.30544
3.30651
3.3051
3.30155
3.29793
3.29686
3.29583
3.29357
3.29208
3.30398
3.30806
3.30961
3.30867
3.30566
3.30188
3.29963
3.29836
3.29648
3.29527
3.30699
3.3106
3.31248
3.31221
3.30969
3.30601
3.30343
3.30209
3.30038
3.30033
3.31204
3.31327
3.31329
3.31284
3.31114
3.30905
3.30753
3.30612
3.30586
3.30829
3.31552
3.31526
3.31428
3.31395
3.31288
3.31175
3.31109
3.31075
3.31206
3.31683
3.31532
3.31533
3.31477
3.31496
3.31425
3.31358
3.31349
3.31387
3.31613
3.3227
3.31348
3.31453
3.3152
3.31594
3.31537
3.31471
3.31468
3.31522
3.31742
3.32515
3.3118
3.31397
3.3156
3.31663
3.31614
3.3154
3.31525
3.31573
3.31768
3.32629
3.31148
3.31393
3.31577
3.31687
3.31644
3.31575
3.31558
3.31605
3.31786
3.32697
3.31198
3.31421
3.31585
3.31689
3.31639
3.3157
3.31554
3.31601
3.31782
3.32695
3.31268
3.31454
3.31586
3.31678
3.31628
3.31563
3.3155
3.316
3.31781
3.32669
3.31303
3.31472
3.3159
3.31676
3.31623
3.3156
3.31549
3.31599
3.31781
3.32639
1
1
1
1
1.00002
1.00105
1.03584
1.5743
2.83363
3.2702
1
1
1
1
1.00002
1.00106
1.03565
1.57647
2.83882
3.25558
1
1
1
1
1.00002
1.00106
1.03554
1.57715
2.84444
3.24325
1
1
1
1
1.00002
1.00107
1.03551
1.5772
2.85205
3.23291
1
1
1
1
1.00002
1.00107
1.03554
1.57577
2.86246
3.22223
1
1
1
1
1.00002
1.00107
1.03563
1.57245
2.87493
3.21546
1
1
1
1
1.00002
1.00106
1.03577
1.56846
2.88366
3.21624
1
1
1
1
1.00002
1.00106
1.03592
1.5652
2.88631
3.2191
1
1
1
1
1.00002
1.00106
1.03602
1.56343
2.88675
3.22181
1
1
1
1
1.00002
1.00106
1.03606
1.56303
2.88673
3.22447
1
1
1
1
1.00002
1.00105
1.03608
1.56305
2.88615
3.22658
1
1
1
1
1.00002
1.00105
1.03608
1.56311
2.88548
3.22809
1
1
1
1
1.00002
1.00105
1.03609
1.5632
2.88485
3.2292
1
1
1
1
1.00002
1.00105
1.0361
1.56324
2.88482
3.2294
1
1
1
1
1.00002
1.00105
1.03611
1.56324
2.88487
3.22948
1
1
1
1
1.00002
1.00105
1.03612
1.56321
2.88493
3.22956
1
1
1
1
1.00002
1.00105
1.03612
1.56315
2.88493
3.22968
1
1
1
1
1.00002
1.00105
1.03612
1.56309
2.88488
3.22982
1
1
1
1
1.00002
1.00105
1.03612
1.56308
2.88483
3.22996
1
1
1
1
1.00002
1.00105
1.03612
1.56308
2.8848
3.23003
1
1
1
1
1.00002
1.00105
1.03612
1.56308
2.88479
3.23004
1
1
1
1
1.00002
1.00105
1.03612
1.56308
2.88482
3.22997
1
1
1
1
1.00002
1.00105
1.03612
1.56309
2.88487
3.22983
1
1
1
1
1.00002
1.00105
1.03612
1.56315
2.88493
3.22968
1
1
1
1
1.00002
1.00105
1.03612
1.56322
2.88493
3.22956
1
1
1
1
1.00002
1.00105
1.03611
1.56324
2.88487
3.22949
1
1
1
1
1.00002
1.00105
1.0361
1.56324
2.88481
3.22941
1
1
1
1
1.00002
1.00105
1.03609
1.5632
2.88485
3.22919
1
1
1
1
1.00002
1.00105
1.03608
1.56311
2.88548
3.22809
1
1
1
1
1.00002
1.00105
1.03608
1.56305
2.88615
3.22658
1
1
1
1
1.00002
1.00106
1.03606
1.56303
2.88673
3.22447
1
1
1
1
1.00002
1.00106
1.03602
1.56343
2.88675
3.22181
1
1
1
1
1.00002
1.00106
1.03592
1.5652
2.88631
3.2191
1
1
1
1
1.00002
1.00106
1.03577
1.56846
2.88366
3.21624
1
1
1
1
1.00002
1.00107
1.03563
1.57245
2.87493
3.21546
1
1
1
1
1.00002
1.00107
1.03554
1.57577
2.86246
3.22223
1
1
1
1
1.00002
1.00107
1.03551
1.5772
2.85205
3.23291
1
1
1
1
1.00002
1.00106
1.03554
1.57715
2.84444
3.24325
1
1
1
1
1.00002
1.00106
1.03565
1.57647
2.83882
3.25558
1
1
1
1
1.00002
1.00105
1.03584
1.5743
2.83363
3.2702
3.31308
3.31475
3.3159
3.31675
3.31622
3.31559
3.31548
3.31599
3.31781
3.32639
3.31273
3.31456
3.31586
3.31677
3.31627
3.31563
3.3155
3.316
3.31781
3.32669
3.31202
3.31422
3.31585
3.31688
3.31638
3.31569
3.31553
3.31601
3.31782
3.32695
3.31151
3.31395
3.31577
3.31686
3.31644
3.31575
3.31558
3.31605
3.31786
3.32698
3.31183
3.31398
3.3156
3.31662
3.31614
3.3154
3.31524
3.31573
3.31768
3.32629
3.3135
3.31454
3.31521
3.31594
3.31537
3.31471
3.31468
3.31521
3.31742
3.32515
3.31533
3.31533
3.31478
3.31497
3.31425
3.31358
3.31349
3.31387
3.31613
3.3227
3.31551
3.31525
3.31428
3.31396
3.31288
3.31176
3.31109
3.31075
3.31206
3.31683
3.31203
3.31326
3.31328
3.31284
3.31114
3.30905
3.30753
3.30612
3.30586
3.30829
3.30698
3.3106
3.31248
3.31221
3.30969
3.306
3.30343
3.30209
3.30038
3.30033
3.30398
3.30806
3.30961
3.30867
3.30566
3.30188
3.29963
3.29836
3.29648
3.29527
3.30142
3.30544
3.30651
3.3051
3.30155
3.29793
3.29686
3.29582
3.29357
3.29207
3.29934
3.30337
3.30433
3.30278
3.29942
3.29681
3.2959
3.29448
3.29319
3.29431
3.29966
3.30318
3.30387
3.30222
3.29995
3.29894
3.29841
3.29904
3.3007
3.30938
3.30207
3.30385
3.30412
3.30394
3.3042
3.30499
3.30701
3.31037
3.31698
3.33594
3.3221
3.31705
3.31298
3.31252
3.31363
3.31546
3.32003
3.32701
3.34004
3.37683
3.34833
3.33907
3.32746
3.32355
3.32455
3.32653
3.33389
3.34413
3.36134
3.43663
3.37115
3.36059
3.34538
3.33725
3.33747
3.33965
3.34772
3.35927
3.38306
3.55971
3.3934
3.38209
3.36652
3.35581
3.35374
3.35641
3.36363
3.37595
3.4319
4.09228
3.41698
3.40494
3.38947
3.37926
3.37591
3.37926
3.3843
3.40986
3.81912
5.74468
)
;

boundaryField
{
    inlet
    {
        type            fixedValue;
        value           uniform 1;
    }
    outlet
    {
        type            zeroGradient;
    }
    triangle
    {
        type            zeroGradient;
    }
    top
    {
        type            symmetryPlane;
    }
    bottom
    {
        type            symmetryPlane;
    }
    defaultFaces
    {
        type            empty;
    }
}


// ************************************************************************* //
