/*--------------------------------*- C++ -*----------------------------------*\
  =========                 |
  \\      /  F ield         | OpenFOAM: The Open Source CFD Toolbox
   \\    /   O peration     | Website:  https://openfoam.org
    \\  /    A nd           | Version:  8
     \\/     M anipulation  |
\*---------------------------------------------------------------------------*/
FoamFile
{
    version     2.0;
    format      ascii;
    class       volScalarField;
    location    "0.4";
    object      rho;
}
// * * * * * * * * * * * * * * * * * * * * * * * * * * * * * * * * * * * * * //

dimensions      [1 -3 0 0 0 0 0];

internalField   nonuniform List<scalar> 
2600
(
0.786919
0.730624
0.70304
0.956081
1.74719
1.92298
1.62146
1.4125
1.36915
1.36254
0.815703
0.890989
0.959061
1.16885
1.80554
1.91964
1.60118
1.40965
1.36983
1.36303
0.813417
0.953092
1.11943
1.45974
1.95771
1.92198
1.57752
1.40554
1.37015
1.36337
0.798013
0.915052
1.16273
1.53564
2.00856
1.92343
1.55376
1.40077
1.37069
1.3638
0.874684
0.902971
1.09619
1.55557
1.98233
1.91615
1.53451
1.39695
1.37078
1.36414
0.941302
0.959978
1.08039
1.48479
1.94289
1.90753
1.52002
1.39462
1.37084
1.36438
0.988777
0.99667
1.08911
1.40768
1.96628
1.91656
1.51004
1.39398
1.37058
1.36449
1.09573
1.01599
1.06765
1.43791
2.09814
1.95655
1.50793
1.39574
1.37012
1.36462
1.2544
1.1075
1.06893
1.54813
2.22415
2.03787
1.52035
1.39764
1.36969
1.36477
1.35647
1.18161
1.07502
1.65351
2.32371
2.0942
1.52929
1.39819
1.36938
1.36495
1.35647
1.18161
1.07502
1.65351
2.32371
2.0942
1.52929
1.39819
1.36938
1.36495
1.2544
1.1075
1.06893
1.54813
2.22415
2.03787
1.52035
1.39764
1.36969
1.36477
1.09573
1.01599
1.06765
1.43791
2.09814
1.95655
1.50793
1.39574
1.37012
1.36462
0.988778
0.99667
1.08911
1.40769
1.96628
1.91656
1.51004
1.39398
1.37057
1.36449
0.941303
0.959979
1.08039
1.48479
1.94289
1.90753
1.52002
1.39462
1.37084
1.36438
0.874683
0.902972
1.09619
1.55557
1.98233
1.91615
1.53451
1.39695
1.37078
1.36414
0.798012
0.915052
1.16273
1.53564
2.00856
1.92343
1.55376
1.40077
1.37069
1.3638
0.813417
0.953092
1.11943
1.45974
1.95771
1.92198
1.57752
1.40554
1.37015
1.36337
0.815704
0.890989
0.959061
1.16885
1.80554
1.91964
1.60118
1.40965
1.36983
1.36303
0.78692
0.730624
0.70304
0.956082
1.74719
1.92298
1.62146
1.4125
1.36915
1.36254
1.64737
0.978058
0.846823
0.986283
1.70693
1.9392
1.64284
1.41474
1.36836
1.36233
2.37944
1.2973
0.960766
1.0461
1.68783
1.95774
1.66202
1.41647
1.3673
1.36176
2.90367
1.60964
1.09482
1.13345
1.67436
1.97152
1.67796
1.41754
1.36623
1.36143
3.27425
1.95654
1.26616
1.25954
1.66847
1.97839
1.68997
1.41784
1.36521
1.36091
3.56287
2.23628
1.43669
1.36209
1.68235
1.98985
1.70149
1.41722
1.36417
1.36044
3.80158
2.47796
1.63758
1.44256
1.71115
2.00527
1.71282
1.41571
1.36307
1.35997
3.99235
2.70131
1.84563
1.52849
1.75531
2.02664
1.72298
1.41387
1.36195
1.35949
4.15142
2.89424
2.0414
1.61724
1.80879
2.04337
1.72705
1.41207
1.36083
1.35902
4.28976
3.0698
2.21581
1.72656
1.87211
2.05709
1.7275
1.41035
1.35968
1.35858
4.40788
3.23308
2.38495
1.8413
1.92407
2.05966
1.72713
1.40867
1.3584
1.35814
4.51395
3.38273
2.53453
1.96606
1.98489
2.06945
1.72507
1.40635
1.35691
1.35772
4.6104
3.52106
2.67783
2.09076
2.04285
2.08453
1.72609
1.40335
1.35523
1.3573
4.69563
3.6501
2.80838
2.21351
2.10935
2.11029
1.72844
1.4001
1.35344
1.35687
4.76858
3.76742
2.93027
2.33215
2.18529
2.15158
1.73593
1.39558
1.35163
1.35641
4.83079
3.87557
3.04507
2.44454
2.26455
2.19857
1.73841
1.39069
1.34976
1.35591
4.88018
3.97229
3.14951
2.5582
2.35523
2.25316
1.74253
1.38612
1.34772
1.35534
4.90881
4.05285
3.25059
2.67014
2.44334
2.30236
1.74186
1.38166
1.34546
1.35502
4.921
4.12202
3.3457
2.77936
2.54153
2.36117
1.74348
1.37693
1.34324
1.35497
4.92544
4.18461
3.43617
2.88056
2.63447
2.41679
1.74235
1.37255
1.34159
1.35503
4.90405
4.26051
3.5319
2.9784
2.72725
2.47489
1.74088
1.36885
1.34079
1.35502
6.26506
6.16248
6.05316
5.97599
5.92014
5.87691
5.8362
5.78371
5.64262
5.40022
6.04015
5.97938
5.90412
5.866
5.83357
5.80863
5.77852
5.71882
5.56266
5.25575
6.10902
6.18291
6.10449
6.0617
6.01882
5.98011
5.92779
5.83845
5.66105
5.35218
6.10535
6.291
6.21004
6.16593
6.1183
6.07505
6.01081
5.90511
5.72113
5.38979
6.02664
6.33749
6.3128
6.29293
6.23937
6.18783
6.10382
5.99136
5.78806
5.4415
5.7917
6.30459
6.32378
6.33283
6.27843
6.20694
6.10818
6.00399
5.81926
5.47847
5.15466
6.18515
6.32877
6.31911
6.24729
6.17259
6.07851
5.98436
5.81833
5.51149
4.34563
5.68355
6.30325
6.26384
6.19048
6.11689
6.03354
5.9596
5.80937
5.53376
3.80427
4.64558
6.05054
6.19638
6.12797
6.05391
5.97356
5.91659
5.78545
5.54165
3.56667
3.75054
5.20531
6.078
6.06554
5.98373
5.91202
5.8679
5.75302
5.53971
3.46951
3.4774
3.96508
5.55834
5.9722
5.8952
5.85959
5.8221
5.72173
5.53513
3.40938
3.389
3.42039
4.35834
5.75427
5.84017
5.81762
5.77686
5.69164
5.52917
3.33479
3.31719
3.2952
3.4519
4.8507
5.71709
5.75824
5.69213
5.64589
5.51383
3.28238
3.26897
3.24893
3.24713
3.70783
5.20801
5.7124
5.61862
5.59046
5.48544
3.24268
3.22956
3.21597
3.20168
3.24436
4.12219
5.46576
5.54307
5.52051
5.45492
3.21066
3.19794
3.18558
3.17662
3.17125
3.35093
4.68144
5.48085
5.50803
5.42478
3.1837
3.17188
3.15879
3.1529
3.14582
3.15843
3.71576
5.09599
5.43386
5.39562
3.16106
3.14998
3.13722
3.13072
3.12754
3.1236
3.22098
4.31216
5.27166
5.36061
3.14202
3.13146
3.11918
3.11137
3.10969
3.10653
3.11704
3.53884
4.86192
5.30822
3.12655
3.11648
3.10435
3.09561
3.09227
3.09241
3.09443
3.1732
4.11344
5.1571
1.40001
1.40001
1.40001
1.40001
1.40002
1.40107
1.43622
1.88141
2.79918
3.86505
1.40001
1.40001
1.40001
1.40001
1.40002
1.40106
1.43627
1.88187
2.80119
3.84319
1.40001
1.40001
1.40001
1.40001
1.40002
1.40106
1.43633
1.88322
2.80338
3.83038
1.40001
1.40001
1.40001
1.40001
1.40002
1.40105
1.43644
1.88476
2.81014
3.7983
1.40001
1.40001
1.40001
1.40001
1.40003
1.40104
1.43662
1.88617
2.79268
3.79424
1.40001
1.40001
1.40001
1.40001
1.40003
1.40103
1.43675
1.88966
2.75623
3.71548
1.40001
1.40001
1.40001
1.40001
1.40003
1.40103
1.43676
1.89491
2.73182
3.60672
1.40001
1.40001
1.40001
1.40001
1.40003
1.40103
1.43666
1.90048
2.72266
3.4815
1.40001
1.40001
1.40001
1.40001
1.40003
1.40103
1.43646
1.9058
2.72409
3.37787
1.40001
1.40001
1.40001
1.40001
1.40003
1.40103
1.43622
1.91036
2.72941
3.29622
1.40001
1.40001
1.40001
1.40001
1.40003
1.40104
1.43599
1.91282
2.73642
3.24098
1.40001
1.40001
1.40001
1.40001
1.40003
1.40104
1.43582
1.91365
2.7444
3.20478
1.40001
1.40001
1.40001
1.40001
1.40003
1.40105
1.43571
1.91389
2.75297
3.18135
1.40001
1.40001
1.40001
1.40001
1.40003
1.40105
1.43565
1.91366
2.76125
3.15958
1.40001
1.40001
1.40001
1.40001
1.40003
1.40105
1.43562
1.91335
2.77028
3.13716
1.40001
1.40001
1.40001
1.40001
1.40003
1.40105
1.4356
1.91255
2.78031
3.11729
1.40001
1.40001
1.40001
1.40001
1.40003
1.40105
1.43562
1.91148
2.78944
3.10115
1.40001
1.40001
1.40001
1.40001
1.40003
1.40105
1.43565
1.90978
2.79887
3.08808
1.40001
1.40001
1.40001
1.40001
1.40002
1.40105
1.43565
1.90898
2.80663
3.07683
1.40001
1.40001
1.40001
1.40001
1.40002
1.40106
1.43564
1.90771
2.81531
3.06732
1.40001
1.40001
1.40001
1.40001
1.40002
1.40106
1.43564
1.90771
2.81531
3.06732
1.40001
1.40001
1.40001
1.40001
1.40002
1.40105
1.43565
1.90898
2.80663
3.07683
1.40001
1.40001
1.40001
1.40001
1.40003
1.40105
1.43565
1.90978
2.79887
3.08808
1.40001
1.40001
1.40001
1.40001
1.40003
1.40105
1.43562
1.91148
2.78944
3.10115
1.40001
1.40001
1.40001
1.40001
1.40003
1.40105
1.4356
1.91255
2.78031
3.11729
1.40001
1.40001
1.40001
1.40001
1.40003
1.40105
1.43562
1.91335
2.77028
3.13716
1.40001
1.40001
1.40001
1.40001
1.40003
1.40105
1.43565
1.91366
2.76125
3.15958
1.40001
1.40001
1.40001
1.40001
1.40003
1.40105
1.43571
1.91389
2.75297
3.18135
1.40001
1.40001
1.40001
1.40001
1.40003
1.40104
1.43582
1.91365
2.7444
3.20478
1.40001
1.40001
1.40001
1.40001
1.40003
1.40104
1.43599
1.91282
2.73642
3.24098
1.40001
1.40001
1.40001
1.40001
1.40003
1.40103
1.43622
1.91036
2.72941
3.29622
1.40001
1.40001
1.40001
1.40001
1.40003
1.40103
1.43646
1.9058
2.72409
3.37787
1.40001
1.40001
1.40001
1.40001
1.40003
1.40103
1.43666
1.90048
2.72266
3.4815
1.40001
1.40001
1.40001
1.40001
1.40003
1.40103
1.43676
1.89491
2.73182
3.60673
1.40001
1.40001
1.40001
1.40001
1.40003
1.40103
1.43675
1.88966
2.75623
3.71548
1.40001
1.40001
1.40001
1.40001
1.40003
1.40104
1.43662
1.88617
2.79268
3.79424
1.40001
1.40001
1.40001
1.40001
1.40002
1.40105
1.43644
1.88476
2.81013
3.7983
1.40001
1.40001
1.40001
1.40001
1.40002
1.40106
1.43633
1.88322
2.80338
3.83038
1.40001
1.40001
1.40001
1.40001
1.40002
1.40106
1.43627
1.88187
2.80119
3.84319
1.40001
1.40001
1.40001
1.40001
1.40002
1.40107
1.43622
1.88141
2.79918
3.86505
3.12655
3.11648
3.10435
3.09561
3.09227
3.09241
3.09443
3.1732
4.11344
5.15709
3.14202
3.13146
3.11918
3.11137
3.10969
3.10654
3.11704
3.53884
4.86192
5.30822
3.16106
3.14998
3.13722
3.13072
3.12754
3.1236
3.22098
4.31216
5.27166
5.36061
3.1837
3.17188
3.15879
3.1529
3.14582
3.15843
3.71576
5.09599
5.43386
5.39562
3.21066
3.19794
3.18559
3.17662
3.17125
3.35093
4.68144
5.48085
5.50803
5.42478
3.24268
3.22956
3.21597
3.20168
3.24436
4.12219
5.46576
5.54307
5.52051
5.45492
3.28238
3.26897
3.24893
3.24713
3.70783
5.20802
5.7124
5.61862
5.59046
5.48544
3.33479
3.31719
3.2952
3.4519
4.8507
5.71709
5.75825
5.69213
5.64589
5.51383
3.40938
3.389
3.42039
4.35834
5.75427
5.84017
5.81762
5.77687
5.69164
5.52917
3.46951
3.4774
3.96508
5.55834
5.9722
5.89521
5.8596
5.82211
5.72173
5.53513
3.56667
3.75054
5.20532
6.078
6.06554
5.98373
5.91202
5.8679
5.75302
5.53971
3.80427
4.64558
6.05054
6.19639
6.12797
6.05392
5.97356
5.91659
5.78545
5.54164
4.34563
5.68355
6.30325
6.26384
6.19048
6.11689
6.03355
5.9596
5.80937
5.53376
5.15466
6.18515
6.32877
6.31911
6.24729
6.17259
6.07852
5.98436
5.81833
5.51149
5.7917
6.30459
6.32378
6.33283
6.27844
6.20694
6.10818
6.00399
5.81926
5.47847
6.02664
6.33749
6.3128
6.29293
6.23937
6.18783
6.10382
5.99136
5.78806
5.4415
6.10535
6.291
6.21004
6.16593
6.1183
6.07505
6.01081
5.90512
5.72113
5.38979
6.10902
6.18292
6.10449
6.0617
6.01883
5.98011
5.92779
5.83845
5.66105
5.35218
6.04015
5.97938
5.90413
5.86601
5.83358
5.80863
5.77852
5.71882
5.56266
5.25575
6.26506
6.16248
6.05316
5.97599
5.92014
5.87691
5.8362
5.78372
5.64262
5.40022
4.90405
4.26051
3.5319
2.9784
2.72725
2.47489
1.74088
1.36885
1.34079
1.35502
4.92544
4.18461
3.43618
2.88056
2.63447
2.41679
1.74235
1.37255
1.34159
1.35503
4.921
4.12202
3.3457
2.77936
2.54153
2.36117
1.74348
1.37693
1.34324
1.35497
4.90881
4.05285
3.25059
2.67014
2.44334
2.30236
1.74186
1.38166
1.34546
1.35502
4.88018
3.97229
3.14951
2.5582
2.35523
2.25316
1.74253
1.38612
1.34772
1.35534
4.83079
3.87557
3.04507
2.44454
2.26455
2.19857
1.73841
1.39069
1.34976
1.35591
4.76858
3.76742
2.93027
2.33215
2.18529
2.15158
1.73593
1.39558
1.35163
1.35641
4.69563
3.6501
2.80838
2.21351
2.10935
2.11029
1.72844
1.4001
1.35344
1.35687
4.6104
3.52106
2.67783
2.09076
2.04285
2.08453
1.72609
1.40335
1.35523
1.3573
4.51395
3.38273
2.53453
1.96606
1.98489
2.06945
1.72507
1.40635
1.35691
1.35772
4.40788
3.23308
2.38495
1.8413
1.92407
2.05966
1.72713
1.40867
1.3584
1.35814
4.28976
3.0698
2.21581
1.72656
1.87211
2.05709
1.7275
1.41035
1.35968
1.35858
4.15142
2.89424
2.04139
1.61724
1.80879
2.04337
1.72705
1.41207
1.36083
1.35902
3.99235
2.70131
1.84563
1.52849
1.75531
2.02664
1.72298
1.41387
1.36195
1.35949
3.80158
2.47796
1.63757
1.44256
1.71115
2.00527
1.71282
1.41571
1.36307
1.35997
3.56287
2.23628
1.43669
1.36209
1.68235
1.98985
1.70149
1.41722
1.36417
1.36044
3.27425
1.95654
1.26616
1.25954
1.66847
1.97839
1.68997
1.41784
1.36521
1.36091
2.90367
1.60964
1.09482
1.13345
1.67436
1.97152
1.67796
1.41754
1.36623
1.36143
2.37944
1.2973
0.960765
1.0461
1.68783
1.95774
1.66202
1.41647
1.3673
1.36176
1.64737
0.978057
0.846822
0.986282
1.70693
1.9392
1.64284
1.41474
1.36836
1.36233
3.05462
3.04763
3.04643
3.0935
3.12397
2.76047
1.86604
1.44963
1.40243
1.40186
3.05386
3.04815
3.05933
3.13563
3.14831
2.75053
1.87152
1.47099
1.41092
1.40275
3.05327
3.05049
3.08806
3.19085
3.17713
2.73895
1.86805
1.48471
1.42215
1.40483
3.05313
3.05945
3.13999
3.24921
3.20503
2.73645
1.86826
1.48965
1.431
1.40807
3.05363
3.07536
3.2123
3.29542
3.22077
2.71398
1.84572
1.48827
1.43457
1.41131
3.05415
3.10038
3.28602
3.32441
3.2234
2.67533
1.80126
1.47245
1.43467
1.41361
3.05448
3.13716
3.34111
3.34246
3.20815
2.63602
1.76257
1.44342
1.42669
1.41432
3.05445
3.1913
3.3732
3.35109
3.17687
2.59652
1.73498
1.41734
1.40971
1.412
3.05541
3.26762
3.39183
3.33978
3.12783
2.55243
1.71216
1.39712
1.39246
1.40513
3.06795
3.35753
3.40024
3.31164
3.06486
2.50194
1.68992
1.37827
1.37643
1.39811
3.09943
3.43111
3.41473
3.28053
3.00149
2.45006
1.66627
1.35973
1.36207
1.3917
3.15693
3.47618
3.42707
3.24139
2.93647
2.39879
1.64096
1.34038
1.34729
1.38486
3.24896
3.50344
3.41616
3.19334
2.87001
2.34572
1.61092
1.32043
1.33344
1.37824
3.36726
3.51174
3.39837
3.14933
2.80917
2.29009
1.5799
1.30373
1.32165
1.37163
3.47836
3.55336
3.39992
3.12391
2.77154
2.24562
1.55211
1.29117
1.31338
1.36508
3.57654
3.68325
3.50493
3.18158
2.7651
2.22568
1.54301
1.29197
1.31273
1.35936
3.7336
3.96627
3.74051
3.33919
2.83965
2.23004
1.53951
1.297
1.31522
1.35426
4.09983
4.20518
3.87088
3.41126
2.93557
2.3149
1.5793
1.32148
1.32457
1.3517
4.53853
4.3164
3.85271
3.37321
2.95086
2.45319
1.67069
1.34658
1.33449
1.35227
4.80869
4.33556
3.69809
3.16879
2.87613
2.50615
1.72439
1.36162
1.33906
1.35422
4.80869
4.33555
3.69809
3.16878
2.87613
2.50615
1.72439
1.36162
1.33906
1.35422
4.53854
4.3164
3.85271
3.37321
2.95086
2.45319
1.67069
1.34658
1.33449
1.35227
4.09983
4.20518
3.87088
3.41126
2.93557
2.3149
1.5793
1.32148
1.32457
1.3517
3.7336
3.96627
3.74051
3.33919
2.83965
2.23004
1.53951
1.297
1.31522
1.35426
3.57654
3.68325
3.50493
3.18158
2.7651
2.22568
1.54301
1.29197
1.31273
1.35936
3.47836
3.55336
3.39992
3.12391
2.77154
2.24562
1.55211
1.29117
1.31338
1.36508
3.36725
3.51174
3.39837
3.14933
2.80917
2.29009
1.5799
1.30373
1.32165
1.37163
3.24896
3.50344
3.41616
3.19334
2.87001
2.34572
1.61092
1.32043
1.33344
1.37824
3.15693
3.47618
3.42707
3.24139
2.93647
2.39879
1.64096
1.34038
1.34729
1.38486
3.09943
3.43111
3.41473
3.28053
3.00149
2.45006
1.66627
1.35973
1.36207
1.3917
3.06795
3.35753
3.40024
3.31164
3.06486
2.50194
1.68992
1.37827
1.37643
1.39811
3.05541
3.26762
3.39183
3.33978
3.12783
2.55243
1.71216
1.39712
1.39246
1.40513
3.05445
3.1913
3.3732
3.3511
3.17686
2.59652
1.73498
1.41734
1.40971
1.412
3.05448
3.13716
3.34111
3.34246
3.20815
2.63602
1.76257
1.44342
1.42668
1.41432
3.05415
3.10039
3.28603
3.32441
3.2234
2.67533
1.80126
1.47245
1.43467
1.41361
3.05364
3.07536
3.2123
3.29542
3.22077
2.71398
1.84572
1.48827
1.43457
1.41131
3.05313
3.05945
3.13999
3.24921
3.20503
2.73645
1.86826
1.48965
1.431
1.40807
3.05327
3.05049
3.08806
3.19085
3.17713
2.73895
1.86804
1.48471
1.42215
1.40483
3.05386
3.04815
3.05933
3.13563
3.14831
2.75053
1.87152
1.47099
1.41092
1.40275
3.05462
3.04763
3.04643
3.0935
3.12398
2.76047
1.86603
1.44963
1.40243
1.40186
3.11129
3.10167
3.08965
3.08012
3.07582
3.07694
3.07951
3.09555
3.3487
4.43606
3.09488
3.08582
3.07386
3.06398
3.06105
3.06189
3.06585
3.07361
3.11006
3.51431
3.0784
3.06992
3.05804
3.05012
3.04909
3.04975
3.05455
3.0626
3.07933
3.19538
3.06021
3.05272
3.04285
3.03828
3.03799
3.03885
3.04385
3.05262
3.06652
3.11892
3.03924
3.03424
3.02954
3.02773
3.02778
3.02906
3.03323
3.04138
3.05379
3.08145
3.02511
3.0231
3.02134
3.02021
3.02011
3.02091
3.02363
3.02939
3.03883
3.05417
3.02392
3.02269
3.02131
3.01969
3.01772
3.01731
3.01813
3.02088
3.02633
3.03442
3.02462
3.02394
3.02302
3.02159
3.01885
3.01692
3.01701
3.01752
3.01917
3.02288
3.02724
3.02658
3.02572
3.02439
3.02149
3.0186
3.01819
3.01835
3.01842
3.02006
3.02964
3.02908
3.02817
3.02709
3.02466
3.02176
3.02029
3.02007
3.02001
3.02144
3.03205
3.03132
3.03028
3.02943
3.02739
3.02456
3.02286
3.02272
3.02282
3.02472
3.03624
3.03415
3.03171
3.03019
3.02856
3.0267
3.0257
3.02556
3.02664
3.03
3.03903
3.03616
3.03303
3.03127
3.0298
3.02857
3.02817
3.02858
3.03075
3.03555
3.03898
3.03626
3.03332
3.03177
3.03051
3.02962
3.02965
3.03047
3.03334
3.03937
3.03748
3.0354
3.03315
3.0319
3.0309
3.03013
3.03023
3.03122
3.0341
3.04106
3.03594
3.03457
3.03297
3.03198
3.03119
3.03042
3.0305
3.03149
3.03425
3.04191
3.03557
3.03439
3.03296
3.03205
3.03134
3.03063
3.0307
3.03169
3.03436
3.04241
3.03594
3.03462
3.03307
3.03214
3.03137
3.03063
3.0307
3.03169
3.03435
3.04236
3.03652
3.03496
3.0332
3.03218
3.03136
3.03064
3.03071
3.0317
3.03436
3.04213
3.03682
3.03515
3.0333
3.03223
3.03136
3.03064
3.03072
3.0317
3.03437
3.04188
1.40001
1.40001
1.40001
1.40001
1.40002
1.40106
1.43556
1.90817
2.81927
3.05735
1.40001
1.40001
1.40001
1.40001
1.40002
1.40107
1.43537
1.9104
2.82275
3.04691
1.40001
1.40001
1.40001
1.40001
1.40002
1.40107
1.43526
1.91107
2.82696
3.03802
1.40001
1.40001
1.40001
1.40001
1.40002
1.40107
1.43523
1.91106
2.83324
3.03077
1.40001
1.40001
1.40001
1.40001
1.40002
1.40107
1.43525
1.90972
2.84177
3.02404
1.40001
1.40001
1.40001
1.40001
1.40002
1.40107
1.43534
1.90681
2.85126
3.02028
1.40001
1.40001
1.40001
1.40001
1.40002
1.40107
1.43548
1.90341
2.85717
3.02171
1.40001
1.40001
1.40001
1.40001
1.40002
1.40107
1.43564
1.90067
2.85833
3.02474
1.40001
1.40001
1.40001
1.40001
1.40002
1.40106
1.43574
1.89918
2.85806
3.02742
1.40001
1.40001
1.40001
1.40001
1.40002
1.40106
1.43578
1.89886
2.85774
3.02965
1.40001
1.40001
1.40001
1.40001
1.40002
1.40106
1.43579
1.89888
2.85726
3.03107
1.40001
1.40001
1.40001
1.40001
1.40002
1.40106
1.43579
1.89893
2.85684
3.03162
1.40001
1.40001
1.40001
1.40001
1.40002
1.40106
1.4358
1.89901
2.85645
3.03209
1.40001
1.40001
1.40001
1.40001
1.40002
1.40106
1.43581
1.89904
2.85641
3.03233
1.40001
1.40001
1.40001
1.40001
1.40002
1.40106
1.43582
1.89905
2.85641
3.03265
1.40001
1.40001
1.40001
1.40001
1.40002
1.40106
1.43583
1.89903
2.85641
3.03293
1.40001
1.40001
1.40001
1.40001
1.40002
1.40106
1.43583
1.89897
2.8564
3.03308
1.40001
1.40001
1.40001
1.40001
1.40002
1.40106
1.43584
1.89893
2.85637
3.03313
1.40001
1.40001
1.40001
1.40001
1.40002
1.40106
1.43584
1.89892
2.85635
3.03315
1.40001
1.40001
1.40001
1.40001
1.40002
1.40106
1.43584
1.89892
2.85633
3.03316
1.40001
1.40001
1.40001
1.40001
1.40002
1.40106
1.43584
1.89892
2.85633
3.03316
1.40001
1.40001
1.40001
1.40001
1.40002
1.40106
1.43584
1.89892
2.85634
3.03315
1.40001
1.40001
1.40001
1.40001
1.40002
1.40106
1.43584
1.89893
2.85637
3.03313
1.40001
1.40001
1.40001
1.40001
1.40002
1.40106
1.43583
1.89897
2.8564
3.03308
1.40001
1.40001
1.40001
1.40001
1.40002
1.40106
1.43583
1.89903
2.85641
3.03293
1.40001
1.40001
1.40001
1.40001
1.40002
1.40106
1.43582
1.89905
2.85641
3.03265
1.40001
1.40001
1.40001
1.40001
1.40002
1.40106
1.43581
1.89904
2.85641
3.03233
1.40001
1.40001
1.40001
1.40001
1.40002
1.40106
1.4358
1.89901
2.85645
3.03208
1.40001
1.40001
1.40001
1.40001
1.40002
1.40106
1.43579
1.89893
2.85685
3.03163
1.40001
1.40001
1.40001
1.40001
1.40002
1.40106
1.43579
1.89888
2.85726
3.03107
1.40001
1.40001
1.40001
1.40001
1.40002
1.40106
1.43578
1.89886
2.85774
3.02965
1.40001
1.40001
1.40001
1.40001
1.40002
1.40106
1.43574
1.89918
2.85806
3.02742
1.40001
1.40001
1.40001
1.40001
1.40002
1.40107
1.43564
1.90067
2.85833
3.02474
1.40001
1.40001
1.40001
1.40001
1.40002
1.40107
1.43548
1.90341
2.85717
3.0217
1.40001
1.40001
1.40001
1.40001
1.40002
1.40107
1.43534
1.90681
2.85126
3.02028
1.40001
1.40001
1.40001
1.40001
1.40002
1.40107
1.43525
1.90972
2.84177
3.02404
1.40001
1.40001
1.40001
1.40001
1.40002
1.40107
1.43523
1.91106
2.83324
3.03077
1.40001
1.40001
1.40001
1.40001
1.40002
1.40107
1.43526
1.91107
2.82696
3.03802
1.40001
1.40001
1.40001
1.40001
1.40002
1.40107
1.43537
1.9104
2.82275
3.04691
1.40001
1.40001
1.40001
1.40001
1.40002
1.40106
1.43556
1.90817
2.81927
3.05735
3.03686
3.03518
3.03331
3.03223
3.03136
3.03064
3.03072
3.0317
3.03437
3.04189
3.03656
3.03498
3.03321
3.03219
3.03136
3.03064
3.03071
3.0317
3.03436
3.04213
3.03597
3.03464
3.03308
3.03214
3.03136
3.03063
3.0307
3.03169
3.03435
3.04236
3.0356
3.03441
3.03296
3.03206
3.03134
3.03063
3.0307
3.03169
3.03437
3.04241
3.03596
3.03458
3.03298
3.03198
3.03119
3.03042
3.0305
3.03149
3.03425
3.04191
3.03749
3.0354
3.03315
3.0319
3.0309
3.03013
3.03023
3.03122
3.0341
3.04106
3.03898
3.03626
3.03332
3.03177
3.03051
3.02962
3.02965
3.03047
3.03334
3.03938
3.03902
3.03616
3.03303
3.03127
3.0298
3.02857
3.02817
3.02858
3.03075
3.03555
3.03623
3.03415
3.03171
3.03019
3.02856
3.0267
3.0257
3.02556
3.02663
3.03
3.03204
3.03132
3.03028
3.02943
3.02738
3.02456
3.02286
3.02272
3.02282
3.02472
3.02964
3.02908
3.02817
3.02709
3.02466
3.02176
3.02029
3.02007
3.02001
3.02144
3.02724
3.02658
3.02572
3.02439
3.02149
3.0186
3.01819
3.01835
3.01842
3.02006
3.02462
3.02394
3.02302
3.02159
3.01884
3.01692
3.01701
3.01752
3.01917
3.02288
3.02392
3.02269
3.02131
3.01969
3.01772
3.0173
3.01813
3.02088
3.02633
3.03442
3.02511
3.0231
3.02134
3.02021
3.0201
3.0209
3.02363
3.02939
3.03884
3.05417
3.03924
3.03424
3.02954
3.02773
3.02778
3.02906
3.03323
3.04138
3.05379
3.08145
3.06021
3.05272
3.04285
3.03828
3.03799
3.03885
3.04385
3.05262
3.06652
3.11892
3.0784
3.06992
3.05804
3.05012
3.04909
3.04975
3.05455
3.0626
3.07933
3.19538
3.09488
3.08582
3.07386
3.06398
3.06105
3.06189
3.06585
3.07361
3.11006
3.5143
3.11129
3.10167
3.08965
3.08012
3.07582
3.07694
3.07951
3.09555
3.3487
4.43605
)
;

boundaryField
{
    inlet
    {
        type            calculated;
        value           uniform 1.40001;
    }
    outlet
    {
        type            calculated;
        value           nonuniform List<scalar> 
100
(
1.35421
1.35225
1.35163
1.35412
1.35919
1.36489
1.37144
1.37806
1.38469
1.39156
1.39798
1.40502
1.41192
1.41434
1.41365
1.41137
1.40814
1.40488
1.40277
1.40187
1.36236
1.36179
1.36146
1.36094
1.36047
1.36
1.35951
1.35905
1.3586
1.35816
1.35774
1.35731
1.35687
1.3564
1.3559
1.35533
1.35501
1.35495
1.355
1.35499
1.36257
1.36307
1.3634
1.36383
1.36418
1.36442
1.36454
1.36467
1.36482
1.365
1.365
1.36482
1.36467
1.36454
1.36442
1.36418
1.36383
1.3634
1.36307
1.36257
1.35499
1.355
1.35495
1.35501
1.35533
1.3559
1.3564
1.35687
1.35731
1.35774
1.35816
1.3586
1.35905
1.35951
1.36
1.36047
1.36094
1.36146
1.36179
1.36236
1.40187
1.40277
1.40488
1.40814
1.41137
1.41365
1.41434
1.41192
1.40502
1.39798
1.39156
1.38469
1.37806
1.37144
1.36489
1.35919
1.35412
1.35163
1.35225
1.35421
)
;
    }
    triangle
    {
        type            calculated;
        value           nonuniform List<scalar> 
40
(
6.26506
6.16248
6.05316
5.97599
5.92014
5.87691
5.8362
5.78371
5.64262
5.40022
0.786919
0.815703
0.813417
0.798013
0.874684
0.941302
0.988777
1.09573
1.2544
1.35647
1.35647
1.2544
1.09573
0.988778
0.941303
0.874683
0.798012
0.813417
0.815704
0.78692
6.26506
6.16248
6.05316
5.97599
5.92014
5.87691
5.8362
5.78372
5.64262
5.40022
)
;
    }
    top
    {
        type            symmetryPlane;
    }
    bottom
    {
        type            symmetryPlane;
    }
    defaultFaces
    {
        type            empty;
    }
}


// ************************************************************************* //
