/*--------------------------------*- C++ -*----------------------------------*\
  =========                 |
  \\      /  F ield         | OpenFOAM: The Open Source CFD Toolbox
   \\    /   O peration     | Website:  https://openfoam.org
    \\  /    A nd           | Version:  8
     \\/     M anipulation  |
\*---------------------------------------------------------------------------*/
FoamFile
{
    version     2.0;
    format      ascii;
    class       volScalarField;
    location    "0.4";
    object      T;
}
// * * * * * * * * * * * * * * * * * * * * * * * * * * * * * * * * * * * * * //

dimensions      [0 0 0 1 0 0 0];

internalField   nonuniform List<scalar> 
2600
(
1.39138
1.19573
0.947433
1.01784
1.29477
1.28956
1.13318
1.01722
0.993315
0.989606
1.43517
1.35786
1.1492
1.13625
1.31496
1.29815
1.13064
1.0186
0.99368
0.989644
1.48667
1.50736
1.3793
1.30833
1.37395
1.31817
1.12861
1.02016
0.99394
0.989629
1.45553
1.5201
1.51322
1.45126
1.44662
1.35042
1.12913
1.02183
0.994317
0.989702
1.37704
1.47528
1.50955
1.59081
1.53562
1.38741
1.12973
1.02346
0.99464
0.989844
1.23964
1.41714
1.50863
1.67914
1.61386
1.41776
1.12814
1.02467
0.995016
0.990057
1.14966
1.33089
1.50413
1.69824
1.65554
1.42537
1.12159
1.02549
0.995414
0.990319
1.13129
1.25042
1.4148
1.64732
1.65314
1.40794
1.11438
1.02637
0.995843
0.990611
1.14438
1.21889
1.30037
1.53113
1.58872
1.37165
1.11049
1.0269
0.996146
0.990841
1.16127
1.20964
1.25104
1.47382
1.5426
1.35099
1.10814
1.02701
0.99622
0.990962
1.16127
1.20964
1.25104
1.47382
1.5426
1.35099
1.10814
1.02701
0.99622
0.990962
1.14438
1.21889
1.30037
1.53113
1.58872
1.37165
1.11049
1.0269
0.996146
0.990841
1.13129
1.25042
1.4148
1.64732
1.65314
1.40794
1.11438
1.02637
0.995843
0.990611
1.14966
1.33089
1.50413
1.69824
1.65554
1.42537
1.12159
1.02549
0.995414
0.990319
1.23964
1.41714
1.50863
1.67914
1.61386
1.41776
1.12814
1.02467
0.995016
0.990057
1.37703
1.47528
1.50955
1.59081
1.53562
1.38741
1.12973
1.02346
0.99464
0.989844
1.45553
1.5201
1.51322
1.45126
1.44662
1.35042
1.12913
1.02183
0.994317
0.989702
1.48667
1.50736
1.3793
1.30833
1.37395
1.31817
1.12861
1.02016
0.99394
0.989629
1.43517
1.35786
1.1492
1.13625
1.31496
1.29815
1.13064
1.0186
0.99368
0.989644
1.39138
1.19573
0.947433
1.01784
1.29477
1.28956
1.13318
1.01722
0.993315
0.989606
1.63709
1.18574
0.982389
1.01539
1.27482
1.286
1.13781
1.01614
0.992897
0.989641
1.63724
1.23632
1.02113
1.02705
1.25193
1.28465
1.14265
1.01533
0.992378
0.989545
1.64917
1.28635
1.0637
1.04105
1.23103
1.28459
1.14762
1.0148
0.991848
0.989477
1.66601
1.34584
1.11554
1.06487
1.21809
1.2857
1.15262
1.01438
0.991323
0.98933
1.68593
1.39004
1.15476
1.08847
1.21142
1.29004
1.15792
1.01387
0.990793
0.989168
1.70892
1.4297
1.19685
1.10842
1.20898
1.294
1.1624
1.01318
0.99028
0.988983
1.73201
1.46842
1.24107
1.13043
1.21098
1.29645
1.16533
1.01243
0.989816
0.988788
1.7553
1.50279
1.28367
1.15321
1.2163
1.29638
1.16617
1.0118
0.989409
0.988614
1.77847
1.53515
1.3226
1.18156
1.22701
1.29642
1.16606
1.01131
0.989029
0.988459
1.79957
1.56593
1.36092
1.21015
1.23662
1.29446
1.16709
1.01098
0.988621
0.988315
1.81846
1.59428
1.39519
1.23972
1.25096
1.29615
1.16893
1.01052
0.988148
0.988172
1.83477
1.62017
1.42797
1.26757
1.26631
1.29875
1.17129
1.00977
0.987614
0.988026
1.84778
1.64379
1.45751
1.2977
1.27965
1.30203
1.17231
1.00873
0.987048
0.987874
1.85793
1.66491
1.48465
1.3272
1.29202
1.30595
1.17353
1.00723
0.986481
0.987714
1.86622
1.68429
1.50984
1.35315
1.3041
1.30909
1.17132
1.00548
0.985904
0.987545
1.87252
1.70168
1.53222
1.3762
1.31771
1.31354
1.16885
1.00387
0.985277
0.987361
1.87511
1.71613
1.55271
1.39629
1.32984
1.3171
1.16593
1.0023
0.984594
0.987249
1.87491
1.72863
1.5704
1.4141
1.34394
1.32404
1.16468
1.0006
0.983941
0.987217
1.87475
1.73934
1.58548
1.42992
1.35788
1.33212
1.16326
0.998924
0.983465
0.98722
1.87131
1.75155
1.60065
1.4462
1.37384
1.34325
1.16159
0.997423
0.983244
0.987194
2.47629
2.45623
2.42701
2.39384
2.35757
2.31941
2.28008
2.23877
2.18244
2.13809
2.39052
2.37595
2.35372
2.33079
2.30349
2.27423
2.24268
2.2056
2.15236
2.07714
2.3038
2.30038
2.28095
2.26299
2.24238
2.22141
2.19798
2.16762
2.12268
2.03916
2.18995
2.20373
2.18578
2.17301
2.16049
2.14842
2.13349
2.11216
2.07823
2.00328
2.0762
2.11755
2.11323
2.11363
2.10866
2.10283
2.09202
2.07642
2.04627
1.98374
1.98069
2.05258
2.07047
2.08036
2.07624
2.07211
2.06396
2.05312
2.02888
1.97659
1.87142
2.01752
2.05779
2.06119
2.05807
2.0558
2.04963
2.04125
2.02112
1.97771
1.7433
1.95721
2.0533
2.0531
2.05204
2.05075
2.04536
2.03849
2.01978
1.982
1.65188
1.8067
2.02016
2.05604
2.05125
2.04832
2.04246
2.03692
2.02003
1.98688
1.6113
1.64945
1.9083
2.04961
2.05172
2.04576
2.0397
2.03514
2.01987
1.98973
1.59503
1.59967
1.69988
1.97736
2.0474
2.03888
2.03576
2.03164
2.01824
1.99074
1.58649
1.58533
1.59353
1.78297
2.01824
2.03316
2.03056
2.0259
2.01459
1.99018
1.57392
1.57218
1.57126
1.60534
1.87819
2.01488
2.02254
2.014
2.00765
1.98699
1.56513
1.56411
1.56267
1.56446
1.66332
1.93546
2.01562
2.00332
1.99916
1.98145
1.55859
1.55757
1.55683
1.55717
1.56731
1.74836
1.97616
1.99301
1.98855
1.9755
1.55346
1.55238
1.55215
1.55258
1.55372
1.59253
1.85043
1.98862
1.98463
1.96915
1.54927
1.54831
1.54793
1.54862
1.54942
1.55298
1.66891
1.92924
1.97381
1.96419
1.54576
1.54491
1.54434
1.54497
1.54625
1.54674
1.56722
1.78988
1.95708
1.95404
1.54272
1.54194
1.54121
1.54169
1.54305
1.54349
1.54609
1.63372
1.89336
1.94511
1.5401
1.5394
1.53852
1.5388
1.53977
1.5407
1.5416
1.55815
1.75598
1.92534
1
1
1
1
1.00001
1.0003
1.01025
1.16072
1.37186
1.85204
1
1
1
1
1.00001
1.0003
1.01027
1.1604
1.37374
1.82653
1
1
1
1
1.00001
1.0003
1.01029
1.15954
1.37835
1.77982
1
1
1
1
1.00001
1.0003
1.01033
1.15823
1.38501
1.71964
1
1
1
1
1.00001
1.00029
1.0104
1.15692
1.38775
1.66511
1
1
1
1
1.00001
1.00029
1.01044
1.15648
1.38701
1.6148
1
1
1
1
1.00001
1.00029
1.01045
1.15695
1.38555
1.58431
1
1
1
1
1.00001
1.00029
1.01043
1.15802
1.38426
1.56399
1
1
1
1
1.00001
1.00029
1.01038
1.1592
1.38488
1.54994
1
1
1
1
1.00001
1.00029
1.01031
1.16011
1.38668
1.5372
1
1
1
1
1.00001
1.00029
1.01025
1.16046
1.38881
1.52734
1
1
1
1
1.00001
1.0003
1.0102
1.16045
1.39089
1.52073
1
1
1
1
1.00001
1.0003
1.01018
1.16026
1.39288
1.51673
1
1
1
1
1.00001
1.0003
1.01016
1.15986
1.39469
1.51316
1
1
1
1
1.00001
1.0003
1.01016
1.15936
1.39661
1.50953
1
1
1
1
1.00001
1.0003
1.01016
1.1587
1.39867
1.50643
1
1
1
1
1.00001
1.0003
1.01017
1.15791
1.40055
1.50401
1
1
1
1
1.00001
1.0003
1.01019
1.1569
1.40249
1.50212
1
1
1
1
1.00001
1.0003
1.0102
1.15609
1.40417
1.50045
1
1
1
1
1.00001
1.0003
1.0102
1.15532
1.40611
1.49901
1
1
1
1
1.00001
1.0003
1.0102
1.15532
1.40611
1.49901
1
1
1
1
1.00001
1.0003
1.0102
1.15609
1.40417
1.50045
1
1
1
1
1.00001
1.0003
1.01019
1.1569
1.40249
1.50212
1
1
1
1
1.00001
1.0003
1.01017
1.15791
1.40055
1.50401
1
1
1
1
1.00001
1.0003
1.01016
1.1587
1.39867
1.50643
1
1
1
1
1.00001
1.0003
1.01016
1.15936
1.39661
1.50953
1
1
1
1
1.00001
1.0003
1.01016
1.15986
1.39469
1.51316
1
1
1
1
1.00001
1.0003
1.01018
1.16026
1.39288
1.51673
1
1
1
1
1.00001
1.0003
1.0102
1.16045
1.39089
1.52073
1
1
1
1
1.00001
1.00029
1.01025
1.16046
1.38881
1.52734
1
1
1
1
1.00001
1.00029
1.01031
1.16011
1.38668
1.5372
1
1
1
1
1.00001
1.00029
1.01038
1.1592
1.38488
1.54994
1
1
1
1
1.00001
1.00029
1.01043
1.15802
1.38426
1.56399
1
1
1
1
1.00001
1.00029
1.01045
1.15695
1.38555
1.58431
1
1
1
1
1.00001
1.00029
1.01044
1.15648
1.38701
1.6148
1
1
1
1
1.00001
1.00029
1.0104
1.15692
1.38775
1.66511
1
1
1
1
1.00001
1.0003
1.01033
1.15823
1.38501
1.71964
1
1
1
1
1.00001
1.0003
1.01029
1.15954
1.37835
1.77982
1
1
1
1
1.00001
1.0003
1.01027
1.1604
1.37374
1.82653
1
1
1
1
1.00001
1.0003
1.01025
1.16072
1.37186
1.85204
1.5401
1.5394
1.53852
1.5388
1.53977
1.5407
1.5416
1.55815
1.75598
1.92534
1.54272
1.54194
1.54121
1.54169
1.54305
1.54349
1.54609
1.63372
1.89336
1.94511
1.54576
1.54491
1.54434
1.54497
1.54625
1.54674
1.56722
1.78988
1.95708
1.95404
1.54927
1.54831
1.54793
1.54862
1.54942
1.55298
1.66891
1.92924
1.97381
1.96419
1.55346
1.55238
1.55215
1.55258
1.55372
1.59253
1.85043
1.98862
1.98463
1.96915
1.55859
1.55757
1.55683
1.55717
1.56731
1.74836
1.97616
1.99301
1.98855
1.9755
1.56513
1.56411
1.56267
1.56446
1.66332
1.93546
2.01562
2.00332
1.99916
1.98145
1.57392
1.57218
1.57126
1.60534
1.87819
2.01488
2.02254
2.014
2.00765
1.98699
1.5865
1.58533
1.59353
1.78297
2.01824
2.03316
2.03056
2.0259
2.01459
1.99018
1.59503
1.59967
1.69988
1.97736
2.0474
2.03888
2.03576
2.03164
2.01824
1.99074
1.6113
1.64945
1.9083
2.04961
2.05172
2.04576
2.0397
2.03514
2.01987
1.98972
1.65188
1.8067
2.02016
2.05604
2.05125
2.04832
2.04246
2.03692
2.02003
1.98688
1.7433
1.95721
2.0533
2.0531
2.05204
2.05075
2.04536
2.03849
2.01978
1.982
1.87142
2.01752
2.0578
2.06119
2.05807
2.0558
2.04963
2.04125
2.02112
1.97771
1.98069
2.05258
2.07047
2.08036
2.07624
2.07211
2.06396
2.05312
2.02888
1.97659
2.0762
2.11755
2.11323
2.11363
2.10866
2.10283
2.09202
2.07642
2.04627
1.98374
2.18995
2.20373
2.18578
2.17301
2.16049
2.14842
2.13349
2.11216
2.07823
2.00328
2.3038
2.30038
2.28095
2.26299
2.24238
2.22141
2.19798
2.16762
2.12268
2.03916
2.39052
2.37595
2.35372
2.33079
2.30349
2.27423
2.24268
2.2056
2.15236
2.07714
2.47629
2.45623
2.42701
2.39384
2.35757
2.31941
2.28008
2.23877
2.18244
2.13809
1.87131
1.75155
1.60065
1.4462
1.37384
1.34325
1.16159
0.997423
0.983244
0.987194
1.87475
1.73934
1.58548
1.42992
1.35788
1.33212
1.16326
0.998924
0.983465
0.98722
1.87491
1.72863
1.5704
1.4141
1.34394
1.32404
1.16468
1.0006
0.983941
0.987217
1.87511
1.71613
1.55271
1.39629
1.32984
1.3171
1.16593
1.0023
0.984594
0.987249
1.87252
1.70167
1.53222
1.3762
1.31771
1.31354
1.16885
1.00387
0.985277
0.987361
1.86622
1.68429
1.50984
1.35315
1.3041
1.30909
1.17132
1.00548
0.985904
0.987545
1.85792
1.66491
1.48465
1.3272
1.29202
1.30595
1.17353
1.00723
0.986481
0.987714
1.84778
1.64379
1.45751
1.2977
1.27965
1.30203
1.17231
1.00873
0.987048
0.987874
1.83477
1.62017
1.42797
1.26757
1.26631
1.29875
1.17129
1.00977
0.987614
0.988026
1.81846
1.59428
1.39519
1.23972
1.25096
1.29615
1.16893
1.01052
0.988148
0.988172
1.79957
1.56593
1.36092
1.21015
1.23662
1.29446
1.16709
1.01098
0.988621
0.988315
1.77847
1.53515
1.3226
1.18156
1.22701
1.29642
1.16606
1.01131
0.989029
0.988459
1.7553
1.50279
1.28367
1.15321
1.2163
1.29638
1.16617
1.0118
0.989409
0.988614
1.73201
1.46842
1.24107
1.13043
1.21098
1.29645
1.16533
1.01243
0.989816
0.988788
1.70892
1.4297
1.19685
1.10842
1.20898
1.294
1.1624
1.01318
0.99028
0.988983
1.68593
1.39004
1.15476
1.08847
1.21142
1.29004
1.15792
1.01387
0.990793
0.989168
1.66601
1.34584
1.11554
1.06487
1.21809
1.2857
1.15262
1.01438
0.991323
0.98933
1.64917
1.28635
1.0637
1.04105
1.23103
1.28459
1.14762
1.0148
0.991848
0.989477
1.63724
1.23632
1.02113
1.02705
1.25193
1.28465
1.14265
1.01533
0.992378
0.989545
1.63709
1.18574
0.982389
1.01539
1.27482
1.286
1.13781
1.01614
0.992897
0.989641
1.5299
1.52423
1.50996
1.49095
1.46948
1.39011
1.17086
1.01752
1.00072
1.00045
1.5298
1.52437
1.51239
1.49819
1.47468
1.38752
1.17097
1.02343
1.00312
1.00069
1.52976
1.52453
1.51821
1.50766
1.48038
1.38442
1.16833
1.02705
1.00627
1.00128
1.52993
1.52534
1.52791
1.51867
1.48558
1.38346
1.16749
1.02826
1.00873
1.0022
1.53023
1.52849
1.53958
1.52804
1.48832
1.37866
1.16137
1.02772
1.00973
1.00312
1.53035
1.53428
1.54986
1.53493
1.48863
1.37102
1.15064
1.02317
1.00978
1.00379
1.53066
1.54294
1.55655
1.53903
1.48539
1.36409
1.14262
1.01506
1.0076
1.00399
1.5308
1.55532
1.56095
1.53974
1.47922
1.35777
1.13788
1.00785
1.00287
1.00337
1.5311
1.56842
1.56592
1.53661
1.46932
1.35035
1.13402
1.0023
0.998077
1.0014
1.53398
1.58038
1.57071
1.53007
1.457
1.34158
1.12995
0.997146
0.99359
0.999355
1.54184
1.59049
1.57406
1.52343
1.44567
1.33286
1.12531
0.992006
0.989544
0.997483
1.55701
1.59742
1.57527
1.51581
1.43433
1.32402
1.12018
0.986574
0.985317
0.995502
1.57834
1.602
1.57411
1.50728
1.42197
1.31385
1.11333
0.980852
0.981279
0.993607
1.5988
1.60591
1.57357
1.49906
1.40915
1.30172
1.10563
0.976032
0.977825
0.991717
1.61424
1.6182
1.57612
1.49279
1.39893
1.29129
1.09821
0.972426
0.975412
0.989843
1.63046
1.64381
1.59631
1.50187
1.39456
1.28626
1.09551
0.972823
0.975271
0.988194
1.6616
1.69212
1.63732
1.52763
1.40649
1.28738
1.09429
0.974423
0.976057
0.98672
1.73149
1.73302
1.65804
1.53616
1.42089
1.30825
1.10565
0.981844
0.978892
0.985974
1.80568
1.75815
1.65362
1.52428
1.42035
1.33949
1.13318
0.989706
0.981624
0.986236
1.85209
1.76387
1.62805
1.48302
1.40393
1.35019
1.15271
0.994716
0.982794
0.986897
1.85209
1.76387
1.62805
1.48302
1.40393
1.35019
1.1527
0.994716
0.982794
0.986897
1.80568
1.75815
1.65362
1.52428
1.42035
1.33949
1.13318
0.989705
0.981624
0.986236
1.73149
1.73302
1.65804
1.53616
1.42089
1.30825
1.10565
0.981843
0.978892
0.985974
1.6616
1.69212
1.63732
1.52763
1.40649
1.28738
1.09429
0.974423
0.976057
0.98672
1.63046
1.64381
1.59631
1.50187
1.39456
1.28626
1.09551
0.972823
0.975271
0.988194
1.61424
1.6182
1.57612
1.49279
1.39893
1.29129
1.09821
0.972426
0.975412
0.989843
1.5988
1.60591
1.57357
1.49906
1.40915
1.30172
1.10563
0.976032
0.977825
0.991717
1.57834
1.602
1.57411
1.50728
1.42197
1.31385
1.11334
0.980852
0.981279
0.993607
1.55701
1.59742
1.57527
1.51581
1.43433
1.32402
1.12018
0.986574
0.985317
0.995502
1.54184
1.59049
1.57406
1.52343
1.44567
1.33286
1.12531
0.992006
0.989544
0.997483
1.53398
1.58038
1.57071
1.53007
1.457
1.34158
1.12995
0.997146
0.99359
0.999355
1.5311
1.56842
1.56592
1.53661
1.46932
1.35035
1.13402
1.0023
0.998077
1.0014
1.5308
1.55532
1.56095
1.53974
1.47922
1.35777
1.13788
1.00785
1.00287
1.00337
1.53066
1.54294
1.55655
1.53903
1.48539
1.36409
1.14262
1.01506
1.0076
1.00399
1.53035
1.53428
1.54986
1.53493
1.48863
1.37102
1.15064
1.02317
1.00978
1.00379
1.53023
1.52849
1.53958
1.52804
1.48832
1.37866
1.16137
1.02772
1.00973
1.00312
1.52993
1.52534
1.52791
1.51867
1.48558
1.38346
1.16749
1.02826
1.00873
1.0022
1.52976
1.52453
1.51821
1.50766
1.48038
1.38442
1.16833
1.02705
1.00627
1.00128
1.5298
1.52437
1.51239
1.49819
1.47468
1.38752
1.17097
1.02343
1.00312
1.00069
1.5299
1.52423
1.50997
1.49095
1.46948
1.39011
1.17086
1.01752
1.00072
1.00045
1.53756
1.53689
1.53586
1.53597
1.5366
1.53756
1.53857
1.54216
1.59668
1.81301
1.53505
1.53442
1.5333
1.53335
1.53387
1.53467
1.53598
1.53772
1.54488
1.63026
1.53314
1.53256
1.53155
1.5318
1.53242
1.53308
1.53437
1.53562
1.5381
1.55963
1.53182
1.53133
1.53096
1.53145
1.53206
1.53254
1.53341
1.5337
1.5346
1.54262
1.5303
1.5305
1.53098
1.53169
1.53218
1.53238
1.53238
1.53149
1.53124
1.53421
1.52818
1.53002
1.53104
1.53153
1.5317
1.53166
1.53122
1.52986
1.52815
1.52916
1.52767
1.52992
1.53093
1.53099
1.53094
1.53068
1.53002
1.52892
1.52694
1.52687
1.52716
1.52937
1.53028
1.53029
1.53012
1.52989
1.52942
1.5285
1.52707
1.52572
1.52681
1.529
1.52993
1.52995
1.52977
1.52956
1.52927
1.5287
1.52762
1.5261
1.52678
1.52895
1.53012
1.53023
1.53007
1.52979
1.52949
1.52901
1.52817
1.52689
1.52696
1.52899
1.53038
1.53069
1.53056
1.53028
1.52995
1.5294
1.52856
1.52757
1.52718
1.52879
1.53003
1.53059
1.53063
1.5306
1.53041
1.52983
1.52916
1.52859
1.52738
1.5287
1.52982
1.53056
1.53081
1.53091
1.53081
1.53044
1.52995
1.52973
1.52731
1.52868
1.52991
1.53078
1.53108
1.53122
1.53117
1.53093
1.53052
1.53051
1.52722
1.52875
1.53019
1.53116
1.5314
1.53149
1.53142
1.53117
1.53073
1.53079
1.52722
1.52891
1.53047
1.53144
1.53162
1.53166
1.53155
1.53127
1.53078
1.53089
1.52725
1.52898
1.53055
1.53151
1.53168
1.53172
1.5316
1.53132
1.5308
1.53095
1.5273
1.52899
1.53053
1.53148
1.53164
1.53169
1.53158
1.53131
1.53079
1.53096
1.52733
1.52897
1.53047
1.53141
1.53159
1.53166
1.53156
1.53129
1.53078
1.53096
1.52734
1.52896
1.53044
1.53138
1.53157
1.53164
1.53155
1.53129
1.53078
1.53095
1
1
1
1
1.00001
1.0003
1.01019
1.15504
1.40714
1.49747
1
1
1
1
1.00001
1.0003
1.01014
1.15529
1.40798
1.49589
1
1
1
1
1.00001
1.0003
1.01011
1.15538
1.40866
1.49458
1
1
1
1
1.00001
1.0003
1.0101
1.15543
1.4093
1.49338
1
1
1
1
1.00001
1.0003
1.01011
1.15519
1.4102
1.49176
1
1
1
1
1.00001
1.0003
1.01013
1.15452
1.41163
1.49048
1
1
1
1
1.00001
1.0003
1.01017
1.15364
1.41299
1.49014
1
1
1
1
1.00001
1.0003
1.01021
1.15291
1.41371
1.48996
1
1
1
1
1.00001
1.0003
1.01024
1.1525
1.41406
1.4899
1
1
1
1
1.00001
1.0003
1.01025
1.1524
1.4142
1.49003
1
1
1
1
1.00001
1.0003
1.01025
1.15241
1.41416
1.49031
1
1
1
1
1.00001
1.0003
1.01026
1.15242
1.41404
1.49073
1
1
1
1
1.00001
1.0003
1.01026
1.15244
1.41392
1.49102
1
1
1
1
1.00001
1.0003
1.01026
1.15245
1.41393
1.49099
1
1
1
1
1.00001
1.0003
1.01026
1.15244
1.41395
1.49087
1
1
1
1
1.00001
1.0003
1.01027
1.15244
1.41398
1.49077
1
1
1
1
1.00001
1.0003
1.01027
1.15242
1.41399
1.49075
1
1
1
1
1.00001
1.0003
1.01027
1.15241
1.41398
1.49079
1
1
1
1
1.00001
1.0003
1.01027
1.15241
1.41396
1.49085
1
1
1
1
1.00001
1.0003
1.01027
1.15241
1.41396
1.49087
1
1
1
1
1.00001
1.0003
1.01027
1.15241
1.41396
1.49088
1
1
1
1
1.00001
1.0003
1.01027
1.15241
1.41396
1.49085
1
1
1
1
1.00001
1.0003
1.01027
1.15241
1.41398
1.49079
1
1
1
1
1.00001
1.0003
1.01027
1.15242
1.41399
1.49075
1
1
1
1
1.00001
1.0003
1.01027
1.15244
1.41398
1.49077
1
1
1
1
1.00001
1.0003
1.01026
1.15244
1.41395
1.49087
1
1
1
1
1.00001
1.0003
1.01026
1.15245
1.41393
1.491
1
1
1
1
1.00001
1.0003
1.01026
1.15244
1.41392
1.49101
1
1
1
1
1.00001
1.0003
1.01026
1.15242
1.41404
1.49073
1
1
1
1
1.00001
1.0003
1.01025
1.15241
1.41416
1.49031
1
1
1
1
1.00001
1.0003
1.01025
1.1524
1.4142
1.49003
1
1
1
1
1.00001
1.0003
1.01024
1.1525
1.41406
1.4899
1
1
1
1
1.00001
1.0003
1.01021
1.15291
1.41371
1.48996
1
1
1
1
1.00001
1.0003
1.01017
1.15364
1.41299
1.49014
1
1
1
1
1.00001
1.0003
1.01013
1.15452
1.41163
1.49048
1
1
1
1
1.00001
1.0003
1.01011
1.15519
1.4102
1.49176
1
1
1
1
1.00001
1.0003
1.0101
1.15543
1.4093
1.49338
1
1
1
1
1.00001
1.0003
1.01011
1.15538
1.40866
1.49458
1
1
1
1
1.00001
1.0003
1.01014
1.15529
1.40798
1.49589
1
1
1
1
1.00001
1.0003
1.01019
1.15504
1.40714
1.49747
1.52734
1.52896
1.53043
1.53137
1.53156
1.53164
1.53155
1.53129
1.53078
1.53095
1.52733
1.52897
1.53046
1.5314
1.53159
1.53165
1.53156
1.53129
1.53078
1.53096
1.5273
1.52899
1.53053
1.53148
1.53164
1.53169
1.53158
1.5313
1.53079
1.53096
1.52725
1.52898
1.53055
1.53151
1.53167
1.53172
1.5316
1.53132
1.5308
1.53095
1.52722
1.52891
1.53046
1.53144
1.53161
1.53166
1.53155
1.53127
1.53078
1.53089
1.52722
1.52875
1.53019
1.53116
1.5314
1.53149
1.53142
1.53117
1.53073
1.53079
1.52731
1.52868
1.52991
1.53078
1.53108
1.53122
1.53117
1.53093
1.53052
1.53051
1.52737
1.5287
1.52982
1.53057
1.53081
1.53091
1.53081
1.53044
1.52995
1.52973
1.52718
1.52879
1.53003
1.53059
1.53063
1.5306
1.53041
1.52983
1.52916
1.52859
1.52696
1.52899
1.53038
1.53069
1.53056
1.53028
1.52995
1.5294
1.52856
1.52757
1.52678
1.52895
1.53012
1.53023
1.53007
1.52979
1.52949
1.52901
1.52817
1.52689
1.52681
1.529
1.52993
1.52995
1.52977
1.52956
1.52927
1.5287
1.52762
1.5261
1.52716
1.52937
1.53028
1.53029
1.53012
1.52989
1.52942
1.5285
1.52707
1.52571
1.52767
1.52992
1.53093
1.53099
1.53094
1.53068
1.53002
1.52892
1.52693
1.52687
1.52818
1.53002
1.53104
1.53153
1.5317
1.53166
1.53122
1.52986
1.52815
1.52916
1.5303
1.5305
1.53098
1.53169
1.53218
1.53238
1.53238
1.53149
1.53124
1.53421
1.53182
1.53133
1.53096
1.53145
1.53206
1.53254
1.53341
1.5337
1.5346
1.54262
1.53314
1.53256
1.53155
1.5318
1.53242
1.53308
1.53437
1.53562
1.5381
1.55963
1.53505
1.53442
1.5333
1.53335
1.53387
1.53467
1.53598
1.53772
1.54488
1.63025
1.53756
1.53689
1.53586
1.53597
1.5366
1.53756
1.53857
1.54216
1.59668
1.813
)
;

boundaryField
{
    inlet
    {
        type            fixedValue;
        value           uniform 1;
    }
    outlet
    {
        type            inletOutlet;
        inletValue      uniform 1;
        value           nonuniform List<scalar> 
100
(
0.986903
0.986252
0.986024
0.98682
0.988322
0.989978
0.991849
0.993738
0.995624
0.997588
0.999444
1.00147
1.00342
1.00398
1.00376
1.00308
1.00215
1.00125
1.00068
1.00044
0.989617
0.989519
0.989455
0.989311
0.989151
0.988966
0.988771
0.988596
0.988442
0.988301
0.988161
0.988021
0.987874
0.987718
0.98755
0.987368
0.98726
0.987232
0.987241
0.987215
0.989579
0.989617
0.989603
0.989678
0.989817
0.990026
0.990286
0.990577
0.990807
0.990925
0.990925
0.990807
0.990577
0.990286
0.990026
0.989817
0.989678
0.989603
0.989617
0.989579
0.987215
0.987241
0.987232
0.98726
0.987368
0.98755
0.987718
0.987874
0.988021
0.988161
0.988301
0.988442
0.988596
0.988771
0.988966
0.989151
0.989311
0.989455
0.989519
0.989617
1.00044
1.00068
1.00125
1.00215
1.00308
1.00376
1.00398
1.00342
1.00147
0.999444
0.997588
0.995624
0.993738
0.99185
0.989978
0.988322
0.98682
0.986024
0.986252
0.986903
)
;
    }
    triangle
    {
        type            zeroGradient;
    }
    top
    {
        type            symmetryPlane;
    }
    bottom
    {
        type            symmetryPlane;
    }
    defaultFaces
    {
        type            empty;
    }
}


// ************************************************************************* //
