/*--------------------------------*- C++ -*----------------------------------*\
  =========                 |
  \\      /  F ield         | OpenFOAM: The Open Source CFD Toolbox
   \\    /   O peration     | Website:  https://openfoam.org
    \\  /    A nd           | Version:  7
     \\/     M anipulation  |
\*---------------------------------------------------------------------------*/
FoamFile
{
    version     2.0;
    format      ascii;
    class       volVectorField;
    location    "0.4";
    object      U;
}
// * * * * * * * * * * * * * * * * * * * * * * * * * * * * * * * * * * * * * //

dimensions      [0 1 -1 0 0 0 0];

internalField   nonuniform List<vector> 
2600
(
(2.04035 0.849741 0)
(2.33416 1.01486 0)
(2.54029 1.02311 0)
(2.62392 0.829844 0)
(1.93514 0.450404 0)
(1.54117 0.337571 0)
(1.19645 0.150747 0)
(1.03896 0.0460995 0)
(1.03513 0.0208321 0)
(1.05254 0.0129558 0)
(1.94254 0.615299 0)
(2.38141 0.749883 0)
(2.55598 0.661059 0)
(2.61721 0.597593 0)
(1.86696 0.397052 0)
(1.5056 0.330281 0)
(1.17164 0.152687 0)
(1.03226 0.0439819 0)
(1.03461 0.0190879 0)
(1.05317 0.0116053 0)
(1.60427 0.335466 0)
(2.21487 0.564571 0)
(2.50963 0.297626 0)
(2.62348 0.305081 0)
(1.84639 0.294156 0)
(1.49314 0.30433 0)
(1.14222 0.148897 0)
(1.02592 0.0412225 0)
(1.03318 0.0175283 0)
(1.05338 0.00996426 0)
(1.02945 0.269299 0)
(1.98405 0.495782 0)
(2.35567 0.229969 0)
(2.6092 0.183404 0)
(1.90088 0.254443 0)
(1.48516 0.286162 0)
(1.11014 0.144644 0)
(1.01966 0.0384317 0)
(1.03318 0.0156716 0)
(1.0543 0.00856736 0)
(0.467267 0.17353 0)
(1.5367 0.493635 0)
(2.11766 0.220549 0)
(2.52902 0.0880585 0)
(1.92881 0.20117 0)
(1.47288 0.262218 0)
(1.07751 0.132903 0)
(1.01408 0.034755 0)
(1.03306 0.0136514 0)
(1.05485 0.00712685 0)
(0.109358 0.1103 0)
(0.999505 0.361753 0)
(1.60077 0.195766 0)
(2.30101 0.0806612 0)
(1.86588 0.170324 0)
(1.42721 0.257491 0)
(1.04085 0.122889 0)
(1.00961 0.030684 0)
(1.0339 0.0115321 0)
(1.05492 0.00573919 0)
(-0.100345 0.0313176 0)
(0.441336 0.251237 0)
(0.881276 0.0378734 0)
(1.70396 0.0441299 0)
(1.63043 0.183215 0)
(1.30408 0.24338 0)
(1.00013 0.102934 0)
(1.00583 0.026608 0)
(1.03467 0.00904654 0)
(1.05455 0.00442834 0)
(-0.22991 -0.00334718 0)
(-0.0340874 0.147506 0)
(0.190859 0.0169035 0)
(0.894809 0.0402954 0)
(1.19211 0.0486927 0)
(1.09267 0.220446 0)
(0.960474 0.0857629 0)
(1.00419 0.0210059 0)
(1.03637 0.00652991 0)
(1.05492 0.00316843 0)
(-0.303938 0.00053698 0)
(-0.321186 0.0994623 0)
(-0.214059 -0.0355856 0)
(0.30984 -0.025443 0)
(0.722195 0.0579208 0)
(0.876248 0.165539 0)
(0.934884 0.053389 0)
(1.00492 0.0144936 0)
(1.037 0.00380081 0)
(1.05447 0.00191783 0)
(-0.336354 0.0142856 0)
(-0.428745 0.0478027 0)
(-0.345721 -0.0253163 0)
(0.105738 -0.00399118 0)
(0.503265 0.0305219 0)
(0.770469 0.0596749 0)
(0.911285 0.0200186 0)
(1.00395 0.00554314 0)
(1.03815 0.00131897 0)
(1.05457 0.000669597 0)
(-0.336354 -0.0142863 0)
(-0.428745 -0.0478031 0)
(-0.345721 0.0253167 0)
(0.105738 0.00399123 0)
(0.503265 -0.0305219 0)
(0.770469 -0.059675 0)
(0.911285 -0.0200186 0)
(1.00395 -0.00554317 0)
(1.03815 -0.00131897 0)
(1.05457 -0.000669597 0)
(-0.303938 -0.000537259 0)
(-0.321185 -0.0994626 0)
(-0.214058 0.0355854 0)
(0.30984 0.0254434 0)
(0.722196 -0.0579205 0)
(0.876248 -0.165539 0)
(0.934884 -0.0533891 0)
(1.00492 -0.0144936 0)
(1.037 -0.00380082 0)
(1.05447 -0.00191783 0)
(-0.229909 0.00334759 0)
(-0.0340862 -0.147506 0)
(0.19086 -0.0169035 0)
(0.89481 -0.0402955 0)
(1.19211 -0.0486926 0)
(1.09267 -0.220446 0)
(0.960474 -0.0857629 0)
(1.00419 -0.0210059 0)
(1.03637 -0.00652991 0)
(1.05492 -0.00316843 0)
(-0.100344 -0.0313172 0)
(0.441338 -0.251237 0)
(0.881278 -0.0378734 0)
(1.70396 -0.0441299 0)
(1.63043 -0.183215 0)
(1.30408 -0.24338 0)
(1.00013 -0.102934 0)
(1.00583 -0.026608 0)
(1.03467 -0.00904654 0)
(1.05455 -0.00442834 0)
(0.109358 -0.1103 0)
(0.999506 -0.361753 0)
(1.60077 -0.195765 0)
(2.30101 -0.080661 0)
(1.86588 -0.170324 0)
(1.42721 -0.257491 0)
(1.04085 -0.122889 0)
(1.00961 -0.030684 0)
(1.0339 -0.0115321 0)
(1.05492 -0.00573919 0)
(0.467268 -0.173531 0)
(1.5367 -0.493635 0)
(2.11766 -0.220549 0)
(2.52902 -0.0880586 0)
(1.92881 -0.20117 0)
(1.47288 -0.262218 0)
(1.07751 -0.132903 0)
(1.01408 -0.034755 0)
(1.03306 -0.0136514 0)
(1.05485 -0.00712685 0)
(1.02946 -0.269299 0)
(1.98405 -0.495783 0)
(2.35567 -0.229969 0)
(2.6092 -0.183405 0)
(1.90088 -0.254443 0)
(1.48516 -0.286162 0)
(1.11014 -0.144644 0)
(1.01966 -0.0384317 0)
(1.03318 -0.0156716 0)
(1.0543 -0.00856736 0)
(1.60427 -0.335467 0)
(2.21487 -0.564571 0)
(2.50963 -0.297627 0)
(2.62348 -0.305082 0)
(1.84639 -0.294157 0)
(1.49314 -0.30433 0)
(1.14222 -0.148897 0)
(1.02592 -0.0412225 0)
(1.03318 -0.0175283 0)
(1.05338 -0.00996427 0)
(1.94254 -0.6153 0)
(2.38141 -0.749884 0)
(2.55598 -0.66106 0)
(2.61721 -0.597593 0)
(1.86696 -0.397052 0)
(1.5056 -0.330281 0)
(1.17164 -0.152687 0)
(1.03226 -0.0439819 0)
(1.03461 -0.0190879 0)
(1.05317 -0.0116053 0)
(2.04035 -0.849741 0)
(2.33415 -1.01486 0)
(2.54029 -1.02311 0)
(2.62392 -0.829844 0)
(1.93514 -0.450404 0)
(1.54117 -0.337571 0)
(1.19645 -0.150747 0)
(1.03896 -0.0460995 0)
(1.03513 -0.0208321 0)
(1.05254 -0.0129558 0)
(2.01985 -0.287447 0)
(2.3257 -0.87285 0)
(2.6088 -0.915753 0)
(2.61844 -0.825886 0)
(2.02154 -0.461728 0)
(1.58292 -0.337053 0)
(1.22192 -0.151251 0)
(1.04639 -0.048333 0)
(1.03714 -0.0225175 0)
(1.05311 -0.0145808 0)
(1.93205 0.0399264 0)
(2.30661 -0.64069 0)
(2.58741 -0.800416 0)
(2.58818 -0.775483 0)
(2.09292 -0.463475 0)
(1.62413 -0.328747 0)
(1.24767 -0.150646 0)
(1.05412 -0.0502839 0)
(1.03913 -0.0245186 0)
(1.05287 -0.0161391 0)
(1.87869 0.168412 0)
(2.26862 -0.378653 0)
(2.55949 -0.641042 0)
(2.55977 -0.693239 0)
(2.15357 -0.464436 0)
(1.6649 -0.319637 0)
(1.272 -0.149873 0)
(1.06089 -0.0517116 0)
(1.04125 -0.0262624 0)
(1.0538 -0.0176167 0)
(1.83808 0.257836 0)
(2.23271 -0.249406 0)
(2.52636 -0.576498 0)
(2.55063 -0.632934 0)
(2.21689 -0.461143 0)
(1.71176 -0.313185 0)
(1.29539 -0.148084 0)
(1.0664 -0.052804 0)
(1.04292 -0.0279702 0)
(1.05465 -0.0189263 0)
(1.80992 0.321234 0)
(2.19664 -0.13763 0)
(2.46909 -0.436264 0)
(2.56375 -0.580456 0)
(2.28011 -0.452351 0)
(1.76313 -0.303259 0)
(1.31638 -0.14197 0)
(1.07079 -0.0534851 0)
(1.04408 -0.0296252 0)
(1.0556 -0.0201458 0)
(1.78563 0.367615 0)
(2.15574 -0.0312505 0)
(2.41394 -0.359798 0)
(2.57566 -0.516647 0)
(2.32928 -0.433743 0)
(1.81061 -0.29341 0)
(1.33342 -0.136078 0)
(1.07436 -0.054467 0)
(1.04505 -0.0312631 0)
(1.05633 -0.0213983 0)
(1.76309 0.402922 0)
(2.12462 0.0359334 0)
(2.36396 -0.267127 0)
(2.58365 -0.469291 0)
(2.36059 -0.409616 0)
(1.84826 -0.273264 0)
(1.34559 -0.127526 0)
(1.07728 -0.055893 0)
(1.04607 -0.0329977 0)
(1.05711 -0.0226443 0)
(1.73473 0.433288 0)
(2.0892 0.100654 0)
(2.32824 -0.202696 0)
(2.58401 -0.419758 0)
(2.37783 -0.382889 0)
(1.8801 -0.25823 0)
(1.35629 -0.122985 0)
(1.07992 -0.0578493 0)
(1.04707 -0.0349006 0)
(1.05785 -0.0239385 0)
(1.71014 0.454337 0)
(2.05496 0.152521 0)
(2.29049 -0.125045 0)
(2.57959 -0.366981 0)
(2.38539 -0.357432 0)
(1.90558 -0.235282 0)
(1.36414 -0.115657 0)
(1.08226 -0.0602438 0)
(1.04811 -0.0369486 0)
(1.05865 -0.025238 0)
(1.68722 0.471804 0)
(2.02121 0.198248 0)
(2.26244 -0.0721374 0)
(2.56895 -0.318076 0)
(2.38699 -0.334852 0)
(1.93136 -0.220891 0)
(1.37612 -0.113459 0)
(1.08514 -0.0626044 0)
(1.04926 -0.0390385 0)
(1.05949 -0.0265183 0)
(1.66625 0.485429 0)
(1.99216 0.235074 0)
(2.23512 -0.0195785 0)
(2.53905 -0.260418 0)
(2.38294 -0.296631 0)
(1.95316 -0.196077 0)
(1.38807 -0.104401 0)
(1.08801 -0.064319 0)
(1.05048 -0.04104 0)
(1.06038 -0.0276975 0)
(1.65123 0.494509 0)
(1.96302 0.269485 0)
(2.20961 0.0277259 0)
(2.49803 -0.218232 0)
(2.38852 -0.277491 0)
(1.98078 -0.186823 0)
(1.40381 -0.0983117 0)
(1.09075 -0.0652543 0)
(1.0517 -0.042866 0)
(1.0613 -0.028742 0)
(1.63791 0.501539 0)
(1.93949 0.296529 0)
(2.18991 0.0636516 0)
(2.45349 -0.165432 0)
(2.37849 -0.230239 0)
(1.9893 -0.154902 0)
(1.41338 -0.0840183 0)
(1.09271 -0.0654622 0)
(1.053 -0.0445031 0)
(1.06223 -0.0296637 0)
(1.62965 0.504857 0)
(1.91916 0.319951 0)
(2.16759 0.10326 0)
(2.42022 -0.129859 0)
(2.36843 -0.209618 0)
(1.99822 -0.14237 0)
(1.42498 -0.0742783 0)
(1.09399 -0.0647917 0)
(1.0541 -0.0459774 0)
(1.06319 -0.0304832 0)
(1.62501 0.507809 0)
(1.90305 0.340024 0)
(2.15267 0.129405 0)
(2.38436 -0.0846858 0)
(2.33906 -0.159309 0)
(1.98545 -0.107111 0)
(1.4264 -0.0602493 0)
(1.09435 -0.0640434 0)
(1.05548 -0.0474398 0)
(1.06417 -0.0312925 0)
(1.6247 0.508493 0)
(1.89144 0.355243 0)
(2.13485 0.159368 0)
(2.35173 -0.0507212 0)
(2.3178 -0.131812 0)
(1.98318 -0.0913441 0)
(1.43236 -0.0530471 0)
(1.09466 -0.0652557 0)
(1.05697 -0.0490711 0)
(1.06513 -0.0321777 0)
(1.62748 0.505669 0)
(1.88297 0.366443 0)
(2.11934 0.180946 0)
(2.31434 -0.0133476 0)
(2.2846 -0.0842139 0)
(1.97021 -0.0596815 0)
(1.43299 -0.0451473 0)
(1.0947 -0.0676519 0)
(1.05854 -0.0510463 0)
(1.06622 -0.0329478 0)
(1.63341 0.49974 0)
(1.87581 0.374666 0)
(2.0995 0.204473 0)
(2.27792 0.01923 0)
(2.25924 -0.0517381 0)
(1.96527 -0.0399903 0)
(1.4352 -0.0389743 0)
(1.09474 -0.0711476 0)
(1.06012 -0.0533298 0)
(1.0674 -0.0336492 0)
(1.64188 0.492397 0)
(1.86326 0.381841 0)
(2.0747 0.226586 0)
(2.23905 0.0546482 0)
(2.23357 -0.0150806 0)
(1.9611 -0.0162061 0)
(1.43474 -0.0334105 0)
(1.09507 -0.0730743 0)
(1.06169 -0.0554239 0)
(1.06881 -0.0341834 0)
(1.64962 0.484445 0)
(1.8465 0.392162 0)
(2.04212 0.250723 0)
(2.20085 0.0874453 0)
(2.21768 0.0186919 0)
(1.96253 0.0119468 0)
(1.43257 -0.0263202 0)
(1.09552 -0.0725699 0)
(1.06333 -0.0566405 0)
(1.07004 -0.0346809 0)
(0.570214 0.19377 0)
(0.626269 0.241531 0)
(0.695352 0.30559 0)
(0.749179 0.363557 0)
(0.803172 0.406598 0)
(0.854894 0.445739 0)
(0.906119 0.48173 0)
(0.966203 0.514908 0)
(1.0503 0.55943 0)
(1.21183 0.601141 0)
(0.634345 0.248798 0)
(0.656159 0.292675 0)
(0.708718 0.329907 0)
(0.752642 0.375481 0)
(0.803185 0.41263 0)
(0.853492 0.448676 0)
(0.906145 0.482392 0)
(0.967476 0.515523 0)
(1.05106 0.554419 0)
(1.20527 0.587686 0)
(0.775348 0.262715 0)
(0.770089 0.289746 0)
(0.811436 0.314511 0)
(0.832314 0.352681 0)
(0.865077 0.384603 0)
(0.902058 0.41806 0)
(0.946871 0.452394 0)
(1.00302 0.487992 0)
(1.0853 0.528326 0)
(1.23605 0.546223 0)
(0.938131 0.306295 0)
(0.89613 0.353803 0)
(0.928421 0.385958 0)
(0.934464 0.415322 0)
(0.956961 0.432704 0)
(0.983037 0.452684 0)
(1.01794 0.478166 0)
(1.06552 0.50608 0)
(1.13847 0.537434 0)
(1.28187 0.554595 0)
(1.09577 0.349259 0)
(1.01881 0.385017 0)
(1.02904 0.424764 0)
(1.03713 0.452168 0)
(1.06478 0.466397 0)
(1.08242 0.489584 0)
(1.10728 0.512449 0)
(1.14328 0.534325 0)
(1.20224 0.54428 0)
(1.32631 0.557859 0)
(1.24363 0.398526 0)
(1.10557 0.434617 0)
(1.11506 0.44757 0)
(1.12477 0.470324 0)
(1.15161 0.488711 0)
(1.16349 0.507786 0)
(1.17896 0.528242 0)
(1.20574 0.547513 0)
(1.25105 0.560788 0)
(1.35446 0.569301 0)
(1.47418 0.403788 0)
(1.19949 0.464733 0)
(1.1885 0.464056 0)
(1.19661 0.479819 0)
(1.20797 0.499315 0)
(1.20783 0.523195 0)
(1.21535 0.54485 0)
(1.23912 0.558914 0)
(1.27982 0.569538 0)
(1.3674 0.57555 0)
(1.74015 0.316908 0)
(1.37907 0.450197 0)
(1.2327 0.478662 0)
(1.22948 0.486234 0)
(1.23605 0.508079 0)
(1.23121 0.534376 0)
(1.2375 0.553693 0)
(1.25675 0.566665 0)
(1.29424 0.575771 0)
(1.37171 0.580199 0)
(1.87072 0.206507 0)
(1.6691 0.34395 0)
(1.26328 0.473765 0)
(1.24079 0.490609 0)
(1.24894 0.510986 0)
(1.24701 0.537057 0)
(1.25464 0.557089 0)
(1.26996 0.570535 0)
(1.30482 0.579001 0)
(1.37415 0.583104 0)
(1.91289 0.143997 0)
(1.87702 0.181413 0)
(1.45189 0.407719 0)
(1.25805 0.479594 0)
(1.25911 0.511193 0)
(1.26072 0.537565 0)
(1.27032 0.557584 0)
(1.28246 0.570738 0)
(1.3152 0.579977 0)
(1.37639 0.584369 0)
(1.91906 0.113835 0)
(1.91967 0.119516 0)
(1.81577 0.217966 0)
(1.3371 0.449142 0)
(1.25996 0.507962 0)
(1.26976 0.537871 0)
(1.28227 0.550467 0)
(1.29297 0.562505 0)
(1.32382 0.577047 0)
(1.37844 0.582928 0)
(1.93483 0.090424 0)
(1.94317 0.0857513 0)
(1.93767 0.0993401 0)
(1.68691 0.295869 0)
(1.32388 0.477417 0)
(1.28872 0.537931 0)
(1.30099 0.541031 0)
(1.31556 0.552756 0)
(1.33948 0.574252 0)
(1.38651 0.581307 0)
(1.94861 0.0623545 0)
(1.95719 0.0604375 0)
(1.96937 0.0623049 0)
(1.93354 0.108081 0)
(1.55381 0.393492 0)
(1.30951 0.533683 0)
(1.31213 0.527316 0)
(1.33585 0.544225 0)
(1.35185 0.570963 0)
(1.39396 0.576557 0)
(1.96748 0.0428988 0)
(1.97281 0.0460748 0)
(1.98051 0.0496439 0)
(1.98012 0.0619613 0)
(1.88004 0.181237 0)
(1.44539 0.472839 0)
(1.35007 0.516807 0)
(1.35316 0.539761 0)
(1.36536 0.568269 0)
(1.40752 0.573078 0)
(1.97897 0.0366252 0)
(1.98336 0.0390126 0)
(1.99032 0.0433091 0)
(1.99539 0.0492381 0)
(1.98476 0.0718553 0)
(1.77395 0.288781 0)
(1.4042 0.496673 0)
(1.35577 0.534961 0)
(1.37633 0.559502 0)
(1.42544 0.565366 0)
(1.98919 0.0308771 0)
(1.99359 0.0329231 0)
(1.99979 0.0370437 0)
(2.00517 0.0419478 0)
(2.00603 0.0512581 0)
(1.97028 0.106432 0)
(1.61881 0.40601 0)
(1.38776 0.508256 0)
(1.40188 0.555284 0)
(1.44652 0.558284 0)
(1.99829 0.0259657 0)
(2.00283 0.0276808 0)
(2.00855 0.0311531 0)
(2.01396 0.0359022 0)
(2.01588 0.0417766 0)
(2.01236 0.0545348 0)
(1.90191 0.201749 0)
(1.47879 0.4684 0)
(1.42378 0.549469 0)
(1.46316 0.549609 0)
(2.00621 0.0213338 0)
(2.01048 0.0227895 0)
(2.01614 0.025475 0)
(2.02103 0.0296423 0)
(2.02337 0.0358784 0)
(2.02335 0.043163 0)
(2.00492 0.0753736 0)
(1.74051 0.341165 0)
(1.44662 0.538135 0)
(1.47509 0.535105 0)
(2.01209 0.0174492 0)
(2.01615 0.0185117 0)
(2.02162 0.0206281 0)
(2.02683 0.0240173 0)
(2.02895 0.0301091 0)
(2.02859 0.0369639 0)
(2.02745 0.0429202 0)
(1.95364 0.158331 0)
(1.56566 0.474452 0)
(1.51291 0.516538 0)
(2.01656 0.0138932 0)
(2.02049 0.0146296 0)
(2.02557 0.0162442 0)
(2.03086 0.0192675 0)
(2.03251 0.0251007 0)
(2.03285 0.0316901 0)
(2.03361 0.0340492 0)
(2.02022 0.0570552 0)
(1.79386 0.307828 0)
(1.54265 0.492432 0)
(3 -1.34935e-15 0)
(3 2.11883e-11 0)
(3 -1.45696e-11 0)
(3 -8.63472e-11 0)
(2.99999 8.31146e-08 0)
(2.99925 -2.01841e-06 0)
(2.9741 -9.18712e-05 0)
(2.62136 0.00172873 0)
(2.29337 -0.0037651 0)
(1.36543 0.0377848 0)
(3 -3.43568e-15 0)
(3 5.46617e-11 0)
(3 -3.42661e-11 0)
(3 2.18152e-10 0)
(2.99999 1.70368e-07 0)
(2.99925 -2.7626e-06 0)
(2.97412 -0.000291722 0)
(2.62157 0.00533902 0)
(2.29378 -0.0121588 0)
(1.42356 0.121692 0)
(3 -5.6303e-15 0)
(3 9.11739e-11 0)
(3 -5.18117e-11 0)
(3 1.05329e-09 0)
(2.99999 2.17228e-07 0)
(2.99925 -2.13374e-06 0)
(2.97411 -0.00050215 0)
(2.62265 0.00861169 0)
(2.28894 -0.0206427 0)
(1.54043 0.173789 0)
(3 -7.95014e-15 0)
(3 1.25374e-10 0)
(3 -7.02418e-11 0)
(3 2.64632e-09 0)
(2.99999 2.07675e-07 0)
(2.99925 4.81981e-07 0)
(2.97406 -0.000739839 0)
(2.62539 0.0109984 0)
(2.2761 -0.0268651 0)
(1.69297 0.193958 0)
(3 -9.97961e-15 0)
(3 1.5537e-10 0)
(3 -9.05889e-11 0)
(3 5.16059e-09 0)
(2.99999 1.44376e-07 0)
(2.99926 3.35585e-06 0)
(2.97402 -0.000945122 0)
(2.63005 0.013984 0)
(2.24767 -0.0431069 0)
(1.82871 0.208672 0)
(3 -1.19655e-14 0)
(3 1.82114e-10 0)
(3 -1.10829e-10 0)
(3 8.75728e-09 0)
(2.99999 -2.36965e-08 0)
(2.99926 1.00626e-05 0)
(2.97404 -0.00125443 0)
(2.63431 0.0176505 0)
(2.22343 -0.0490447 0)
(1.91291 0.187552 0)
(3 -1.37286e-14 0)
(3 2.06486e-10 0)
(3 -1.3106e-10 0)
(3 1.31829e-08 0)
(2.99999 -2.94612e-07 0)
(2.99926 2.15539e-05 0)
(2.97403 -0.00163866 0)
(2.6369 0.020465 0)
(2.21354 -0.0582568 0)
(1.96282 0.149036 0)
(3 -1.47296e-14 0)
(3 2.24447e-10 0)
(3 -1.51482e-10 0)
(3 1.80039e-08 0)
(2.99999 -6.25639e-07 0)
(2.99926 3.52851e-05 0)
(2.97404 -0.00199308 0)
(2.63707 0.0243906 0)
(2.20894 -0.0626433 0)
(1.9779 0.12367 0)
(3 -1.47295e-14 0)
(3 2.43235e-10 0)
(3 -1.69126e-10 0)
(3 2.30706e-08 0)
(2.99999 -9.52313e-07 0)
(2.99926 4.76504e-05 0)
(2.97411 -0.00227849 0)
(2.63691 0.0266748 0)
(2.20365 -0.0611209 0)
(1.99659 0.0929951 0)
(3 -1.51968e-14 0)
(3 2.5706e-10 0)
(3 -1.85528e-10 0)
(3 2.7714e-08 0)
(2.99999 -1.27065e-06 0)
(2.99926 5.92127e-05 0)
(2.97419 -0.00252676 0)
(2.63652 0.0285928 0)
(2.19836 -0.0585036 0)
(2.01687 0.0712925 0)
(3 -1.67798e-14 0)
(3 2.68505e-10 0)
(3 -1.99276e-10 0)
(3 3.22203e-08 0)
(2.99999 -1.53631e-06 0)
(2.99926 6.85664e-05 0)
(2.97424 -0.00266962 0)
(2.63602 0.0289435 0)
(2.19402 -0.0552381 0)
(2.03375 0.0557501 0)
(3 -1.67335e-14 0)
(3 2.72845e-10 0)
(3 -2.06433e-10 0)
(3 3.55758e-08 0)
(2.99999 -1.76577e-06 0)
(2.99926 7.5842e-05 0)
(2.97427 -0.00271204 0)
(2.63554 0.0282007 0)
(2.19207 -0.0530968 0)
(2.0413 0.0487432 0)
(3 -1.67652e-14 0)
(3 2.73689e-10 0)
(3 -2.09967e-10 0)
(3 3.83213e-08 0)
(2.99999 -1.9334e-06 0)
(2.99926 8.01826e-05 0)
(2.97428 -0.00268792 0)
(2.6352 0.0270611 0)
(2.19075 -0.0505147 0)
(2.04482 0.0463473 0)
(3 -1.70068e-14 0)
(3 2.72786e-10 0)
(3 -2.1012e-10 0)
(3 4.06607e-08 0)
(2.99999 -2.0657e-06 0)
(2.99926 8.28277e-05 0)
(2.97429 -0.00261659 0)
(2.63485 0.0256945 0)
(2.18894 -0.0477088 0)
(2.04741 0.0409988 0)
(3 -1.69457e-14 0)
(3 2.71435e-10 0)
(3 -2.09302e-10 0)
(3 4.27151e-08 0)
(2.99999 -2.17671e-06 0)
(2.99926 8.43733e-05 0)
(2.97427 -0.00253175 0)
(2.63565 0.0239262 0)
(2.18541 -0.0433362 0)
(2.0502 0.03499 0)
(3 -1.69481e-14 0)
(3 2.67338e-10 0)
(3 -2.05311e-10 0)
(3 4.46653e-08 0)
(2.99999 -2.27873e-06 0)
(2.99926 8.54441e-05 0)
(2.97425 -0.00242614 0)
(2.63622 0.0221108 0)
(2.18258 -0.0400845 0)
(2.05322 0.0292739 0)
(3 -1.63563e-14 0)
(3 2.61576e-10 0)
(3 -1.98602e-10 0)
(3 4.64704e-08 0)
(2.99999 -2.366e-06 0)
(2.99926 8.63734e-05 0)
(2.97421 -0.00232522 0)
(2.63816 0.0201959 0)
(2.17715 -0.0348223 0)
(2.05574 0.0244874 0)
(3 -1.64338e-14 0)
(3 2.54695e-10 0)
(3 -1.90025e-10 0)
(3 4.79628e-08 0)
(2.99999 -2.43538e-06 0)
(2.99925 8.69971e-05 0)
(2.97418 -0.00222832 0)
(2.63944 0.0181876 0)
(2.17446 -0.0309613 0)
(2.05776 0.0200332 0)
(3 -1.57878e-14 0)
(3 2.45807e-10 0)
(3 -1.81279e-10 0)
(3 4.90329e-08 0)
(2.99999 -2.48093e-06 0)
(2.99925 8.77325e-05 0)
(2.97413 -0.00216004 0)
(2.64185 0.0165429 0)
(2.16996 -0.0259697 0)
(2.05871 0.0163771 0)
(3 -1.51064e-14 0)
(3 2.36474e-10 0)
(3 -1.69949e-10 0)
(3 4.95489e-08 0)
(2.99999 -2.49058e-06 0)
(2.99925 8.7126e-05 0)
(2.9741 -0.00206033 0)
(2.64361 0.0146276 0)
(2.16785 -0.0224777 0)
(2.05936 0.0130691 0)
(3 1.4122e-14 0)
(3 -2.36487e-10 0)
(3 1.69948e-10 0)
(3 -4.95493e-08 0)
(2.99999 2.49061e-06 0)
(2.99925 -8.71269e-05 0)
(2.9741 0.00206035 0)
(2.64361 -0.0146277 0)
(2.16785 0.0224777 0)
(2.05936 -0.0130691 0)
(3 1.5277e-14 0)
(3 -2.4582e-10 0)
(3 1.81282e-10 0)
(3 -4.90332e-08 0)
(2.99999 2.48095e-06 0)
(2.99925 -8.77334e-05 0)
(2.97413 0.00216006 0)
(2.64185 -0.0165429 0)
(2.16996 0.0259697 0)
(2.05871 -0.0163771 0)
(3 1.60436e-14 0)
(3 -2.54686e-10 0)
(3 1.9002e-10 0)
(3 -4.79631e-08 0)
(2.99999 2.4354e-06 0)
(2.99925 -8.69979e-05 0)
(2.97418 0.00222833 0)
(2.63944 -0.0181877 0)
(2.17446 0.0309614 0)
(2.05776 -0.0200332 0)
(3 1.59181e-14 0)
(3 -2.61566e-10 0)
(3 1.98604e-10 0)
(3 -4.64706e-08 0)
(2.99999 2.36601e-06 0)
(2.99926 -8.63741e-05 0)
(2.97421 0.00232523 0)
(2.63816 -0.020196 0)
(2.17715 0.0348223 0)
(2.05574 -0.0244874 0)
(3 1.68158e-14 0)
(3 -2.67335e-10 0)
(3 2.05309e-10 0)
(3 -4.46654e-08 0)
(2.99999 2.27874e-06 0)
(2.99926 -8.54447e-05 0)
(2.97425 0.00242615 0)
(2.63622 -0.0221109 0)
(2.18258 0.0400845 0)
(2.05322 -0.0292739 0)
(3 1.70054e-14 0)
(3 -2.71436e-10 0)
(3 2.09301e-10 0)
(3 -4.27152e-08 0)
(2.99999 2.17673e-06 0)
(2.99926 -8.43737e-05 0)
(2.97427 0.00253176 0)
(2.63565 -0.0239262 0)
(2.18541 0.0433363 0)
(2.0502 -0.03499 0)
(3 1.68562e-14 0)
(3 -2.72784e-10 0)
(3 2.1012e-10 0)
(3 -4.06607e-08 0)
(2.99999 2.06571e-06 0)
(2.99926 -8.2828e-05 0)
(2.97429 0.0026166 0)
(2.63485 -0.0256945 0)
(2.18894 0.0477088 0)
(2.04741 -0.0409988 0)
(3 1.6983e-14 0)
(3 -2.73687e-10 0)
(3 2.09968e-10 0)
(3 -3.83212e-08 0)
(2.99999 1.93341e-06 0)
(2.99926 -8.01829e-05 0)
(2.97428 0.00268793 0)
(2.6352 -0.0270611 0)
(2.19075 0.0505147 0)
(2.04482 -0.0463473 0)
(3 1.63876e-14 0)
(3 -2.72843e-10 0)
(3 2.06436e-10 0)
(3 -3.55757e-08 0)
(2.99999 1.76577e-06 0)
(2.99926 -7.58422e-05 0)
(2.97427 0.00271205 0)
(2.63554 -0.0282007 0)
(2.19207 0.0530968 0)
(2.0413 -0.0487432 0)
(3 1.67545e-14 0)
(3 -2.68501e-10 0)
(3 1.99279e-10 0)
(3 -3.22201e-08 0)
(2.99999 1.53631e-06 0)
(2.99926 -6.85665e-05 0)
(2.97424 0.00266963 0)
(2.63602 -0.0289435 0)
(2.19402 0.0552381 0)
(2.03375 -0.0557501 0)
(3 1.60481e-14 0)
(3 -2.57054e-10 0)
(3 1.85525e-10 0)
(3 -2.77138e-08 0)
(2.99999 1.27064e-06 0)
(2.99926 -5.92127e-05 0)
(2.97419 0.00252676 0)
(2.63652 -0.0285928 0)
(2.19836 0.0585036 0)
(2.01687 -0.0712925 0)
(3 1.49468e-14 0)
(3 -2.4323e-10 0)
(3 1.69127e-10 0)
(3 -2.30704e-08 0)
(2.99999 9.52303e-07 0)
(2.99926 -4.76502e-05 0)
(2.97411 0.00227849 0)
(2.63691 -0.0266748 0)
(2.20365 0.0611209 0)
(1.99659 -0.0929951 0)
(3 1.47421e-14 0)
(3 -2.24447e-10 0)
(3 1.51479e-10 0)
(3 -1.80035e-08 0)
(2.99999 6.25626e-07 0)
(2.99926 -3.52849e-05 0)
(2.97404 0.00199308 0)
(2.63707 -0.0243906 0)
(2.20894 0.0626433 0)
(1.9779 -0.12367 0)
(3 1.37341e-14 0)
(3 -2.06486e-10 0)
(3 1.31054e-10 0)
(3 -1.31824e-08 0)
(2.99999 2.94594e-07 0)
(2.99926 -2.15535e-05 0)
(2.97403 0.00163866 0)
(2.6369 -0.020465 0)
(2.21354 0.0582568 0)
(1.96282 -0.149036 0)
(3 1.17759e-14 0)
(3 -1.82115e-10 0)
(3 1.10822e-10 0)
(3 -8.75674e-09 0)
(2.99999 2.36724e-08 0)
(2.99926 -1.0062e-05 0)
(2.97404 0.00125443 0)
(2.63431 -0.0176506 0)
(2.22343 0.0490446 0)
(1.91291 -0.187552 0)
(3 9.89889e-15 0)
(3 -1.5537e-10 0)
(3 9.05875e-11 0)
(3 -5.15997e-09 0)
(2.99999 -1.44405e-07 0)
(2.99926 -3.35516e-06 0)
(2.97402 0.000945117 0)
(2.63005 -0.0139838 0)
(2.24767 0.043107 0)
(1.82871 -0.208672 0)
(3 7.92465e-15 0)
(3 -1.25369e-10 0)
(3 7.02381e-11 0)
(3 -2.64564e-09 0)
(2.99999 -2.07703e-07 0)
(2.99925 -4.81578e-07 0)
(2.97406 0.000739839 0)
(2.62539 -0.0109985 0)
(2.2761 0.0268651 0)
(1.69297 -0.193958 0)
(3 5.57915e-15 0)
(3 -9.11705e-11 0)
(3 5.18075e-11 0)
(3 -1.05255e-09 0)
(2.99999 -2.17265e-07 0)
(2.99925 2.13496e-06 0)
(2.97411 0.000502127 0)
(2.62265 -0.00861166 0)
(2.28894 0.0206427 0)
(1.54043 -0.173789 0)
(3 3.71856e-15 0)
(3 -5.46557e-11 0)
(3 3.42662e-11 0)
(3 -2.17382e-10 0)
(2.99999 -1.704e-07 0)
(2.99925 2.76323e-06 0)
(2.97412 0.000291717 0)
(2.62157 -0.00533895 0)
(2.29378 0.0121588 0)
(1.42356 -0.121692 0)
(3 1.12918e-15 0)
(3 -2.11837e-11 0)
(3 1.45688e-11 0)
(3 8.71313e-11 0)
(2.99999 -8.31483e-08 0)
(2.99925 2.01914e-06 0)
(2.9741 9.18554e-05 0)
(2.62136 -0.00172861 0)
(2.29337 0.00376512 0)
(1.36543 -0.0377847 0)
(2.01656 -0.0138932 0)
(2.02049 -0.0146296 0)
(2.02557 -0.0162442 0)
(2.03086 -0.0192675 0)
(2.03251 -0.0251007 0)
(2.03285 -0.0316901 0)
(2.03361 -0.0340493 0)
(2.02022 -0.0570552 0)
(1.79386 -0.307828 0)
(1.54265 -0.492432 0)
(2.01209 -0.0174492 0)
(2.01615 -0.0185117 0)
(2.02162 -0.0206282 0)
(2.02683 -0.0240173 0)
(2.02895 -0.0301091 0)
(2.02859 -0.0369639 0)
(2.02745 -0.0429202 0)
(1.95364 -0.15833 0)
(1.56566 -0.474452 0)
(1.51291 -0.516538 0)
(2.00621 -0.0213338 0)
(2.01048 -0.0227895 0)
(2.01614 -0.025475 0)
(2.02103 -0.0296424 0)
(2.02337 -0.0358784 0)
(2.02335 -0.043163 0)
(2.00492 -0.0753736 0)
(1.74051 -0.341165 0)
(1.44662 -0.538135 0)
(1.47509 -0.535105 0)
(1.99829 -0.0259657 0)
(2.00283 -0.0276808 0)
(2.00855 -0.0311531 0)
(2.01396 -0.0359022 0)
(2.01588 -0.0417766 0)
(2.01236 -0.0545348 0)
(1.90192 -0.201748 0)
(1.47879 -0.4684 0)
(1.42378 -0.549469 0)
(1.46316 -0.549609 0)
(1.98919 -0.0308771 0)
(1.99359 -0.0329231 0)
(1.99979 -0.0370437 0)
(2.00517 -0.0419478 0)
(2.00603 -0.0512581 0)
(1.97028 -0.106432 0)
(1.61882 -0.40601 0)
(1.38776 -0.508256 0)
(1.40188 -0.555284 0)
(1.44652 -0.558284 0)
(1.97897 -0.0366252 0)
(1.98336 -0.0390126 0)
(1.99032 -0.0433091 0)
(1.99539 -0.0492381 0)
(1.98476 -0.0718553 0)
(1.77395 -0.288781 0)
(1.4042 -0.496673 0)
(1.35577 -0.534961 0)
(1.37633 -0.559502 0)
(1.42544 -0.565366 0)
(1.96748 -0.0428988 0)
(1.97281 -0.0460747 0)
(1.98051 -0.0496439 0)
(1.98012 -0.0619613 0)
(1.88004 -0.181237 0)
(1.44539 -0.472839 0)
(1.35007 -0.516807 0)
(1.35316 -0.539761 0)
(1.36536 -0.568269 0)
(1.40752 -0.573078 0)
(1.94861 -0.0623546 0)
(1.95719 -0.0604375 0)
(1.96937 -0.0623049 0)
(1.93354 -0.108081 0)
(1.55381 -0.393493 0)
(1.30951 -0.533683 0)
(1.31213 -0.527316 0)
(1.33585 -0.544225 0)
(1.35185 -0.570964 0)
(1.39396 -0.576557 0)
(1.93483 -0.090424 0)
(1.94317 -0.0857513 0)
(1.93767 -0.0993401 0)
(1.68691 -0.29587 0)
(1.32388 -0.477417 0)
(1.28872 -0.537931 0)
(1.30099 -0.541031 0)
(1.31556 -0.552757 0)
(1.33948 -0.574252 0)
(1.38651 -0.581307 0)
(1.91906 -0.113835 0)
(1.91967 -0.119516 0)
(1.81577 -0.217966 0)
(1.3371 -0.449143 0)
(1.25996 -0.507962 0)
(1.26976 -0.537871 0)
(1.28227 -0.550467 0)
(1.29297 -0.562505 0)
(1.32382 -0.577047 0)
(1.37844 -0.582928 0)
(1.91289 -0.143997 0)
(1.87702 -0.181413 0)
(1.45189 -0.407719 0)
(1.25805 -0.479594 0)
(1.25911 -0.511193 0)
(1.26072 -0.537565 0)
(1.27032 -0.557584 0)
(1.28246 -0.570738 0)
(1.3152 -0.579977 0)
(1.37639 -0.584369 0)
(1.87072 -0.206507 0)
(1.6691 -0.34395 0)
(1.26328 -0.473766 0)
(1.24079 -0.490609 0)
(1.24894 -0.510986 0)
(1.24701 -0.537057 0)
(1.25464 -0.557089 0)
(1.26996 -0.570535 0)
(1.30482 -0.579 0)
(1.37415 -0.583104 0)
(1.74015 -0.316908 0)
(1.37907 -0.450197 0)
(1.2327 -0.478662 0)
(1.22948 -0.486234 0)
(1.23605 -0.508079 0)
(1.23121 -0.534376 0)
(1.2375 -0.553693 0)
(1.25675 -0.566665 0)
(1.29424 -0.575771 0)
(1.37171 -0.580199 0)
(1.47418 -0.403788 0)
(1.19949 -0.464733 0)
(1.1885 -0.464056 0)
(1.19661 -0.479818 0)
(1.20797 -0.499315 0)
(1.20783 -0.523195 0)
(1.21535 -0.54485 0)
(1.23912 -0.558914 0)
(1.27982 -0.569538 0)
(1.3674 -0.57555 0)
(1.24363 -0.398526 0)
(1.10557 -0.434617 0)
(1.11506 -0.44757 0)
(1.12477 -0.470324 0)
(1.15161 -0.488711 0)
(1.16349 -0.507786 0)
(1.17896 -0.528242 0)
(1.20574 -0.547513 0)
(1.25105 -0.560788 0)
(1.35446 -0.569301 0)
(1.09577 -0.349259 0)
(1.01881 -0.385017 0)
(1.02904 -0.424764 0)
(1.03713 -0.452168 0)
(1.06478 -0.466397 0)
(1.08242 -0.489584 0)
(1.10728 -0.512449 0)
(1.14328 -0.534325 0)
(1.20224 -0.54428 0)
(1.32631 -0.557859 0)
(0.938131 -0.306295 0)
(0.89613 -0.353803 0)
(0.928421 -0.385958 0)
(0.934464 -0.415322 0)
(0.956961 -0.432704 0)
(0.983037 -0.452684 0)
(1.01794 -0.478166 0)
(1.06552 -0.50608 0)
(1.13847 -0.537434 0)
(1.28187 -0.554595 0)
(0.775348 -0.262715 0)
(0.770089 -0.289745 0)
(0.811436 -0.314511 0)
(0.832314 -0.35268 0)
(0.865077 -0.384603 0)
(0.902058 -0.41806 0)
(0.946871 -0.452394 0)
(1.00302 -0.487992 0)
(1.0853 -0.528326 0)
(1.23605 -0.546223 0)
(0.634345 -0.248798 0)
(0.656158 -0.292675 0)
(0.708718 -0.329907 0)
(0.752642 -0.375481 0)
(0.803185 -0.41263 0)
(0.853492 -0.448676 0)
(0.906145 -0.482392 0)
(0.967476 -0.515523 0)
(1.05106 -0.554419 0)
(1.20527 -0.587686 0)
(0.570214 -0.19377 0)
(0.626269 -0.241531 0)
(0.695352 -0.30559 0)
(0.749179 -0.363557 0)
(0.803172 -0.406598 0)
(0.854894 -0.445739 0)
(0.906119 -0.48173 0)
(0.966203 -0.514908 0)
(1.0503 -0.55943 0)
(1.21183 -0.601141 0)
(1.64962 -0.484445 0)
(1.8465 -0.392162 0)
(2.04212 -0.250723 0)
(2.20085 -0.0874452 0)
(2.21768 -0.0186918 0)
(1.96253 -0.0119469 0)
(1.43257 0.0263201 0)
(1.09552 0.0725699 0)
(1.06333 0.0566405 0)
(1.07004 0.0346809 0)
(1.64188 -0.492398 0)
(1.86326 -0.381841 0)
(2.0747 -0.226586 0)
(2.23905 -0.054648 0)
(2.23357 0.0150807 0)
(1.9611 0.0162061 0)
(1.43474 0.0334104 0)
(1.09507 0.0730743 0)
(1.06169 0.0554239 0)
(1.06881 0.0341834 0)
(1.63341 -0.49974 0)
(1.87581 -0.374667 0)
(2.0995 -0.204473 0)
(2.27792 -0.0192299 0)
(2.25924 0.0517382 0)
(1.96527 0.0399903 0)
(1.4352 0.0389743 0)
(1.09474 0.0711476 0)
(1.06012 0.0533298 0)
(1.0674 0.0336492 0)
(1.62748 -0.50567 0)
(1.88297 -0.366443 0)
(2.11934 -0.180946 0)
(2.31434 0.0133477 0)
(2.2846 0.084214 0)
(1.97021 0.0596815 0)
(1.43299 0.0451473 0)
(1.0947 0.0676519 0)
(1.05854 0.0510463 0)
(1.06622 0.0329478 0)
(1.6247 -0.508494 0)
(1.89144 -0.355243 0)
(2.13485 -0.159368 0)
(2.35173 0.0507213 0)
(2.3178 0.131812 0)
(1.98318 0.0913441 0)
(1.43236 0.0530471 0)
(1.09466 0.0652557 0)
(1.05697 0.0490711 0)
(1.06513 0.0321777 0)
(1.62501 -0.507809 0)
(1.90305 -0.340024 0)
(2.15267 -0.129405 0)
(2.38436 0.0846859 0)
(2.33906 0.159309 0)
(1.98545 0.107111 0)
(1.4264 0.0602493 0)
(1.09435 0.0640434 0)
(1.05548 0.0474398 0)
(1.06417 0.0312925 0)
(1.62965 -0.504857 0)
(1.91916 -0.319951 0)
(2.16759 -0.10326 0)
(2.42022 0.129859 0)
(2.36843 0.209618 0)
(1.99822 0.14237 0)
(1.42498 0.0742783 0)
(1.09399 0.0647917 0)
(1.0541 0.0459774 0)
(1.06319 0.0304832 0)
(1.63791 -0.501539 0)
(1.93949 -0.296529 0)
(2.18991 -0.0636516 0)
(2.45349 0.165432 0)
(2.37849 0.230239 0)
(1.9893 0.154902 0)
(1.41338 0.0840183 0)
(1.09271 0.0654621 0)
(1.053 0.0445031 0)
(1.06223 0.0296637 0)
(1.65123 -0.494509 0)
(1.96302 -0.269485 0)
(2.20961 -0.0277259 0)
(2.49803 0.218232 0)
(2.38852 0.277491 0)
(1.98078 0.186823 0)
(1.40381 0.0983117 0)
(1.09075 0.0652542 0)
(1.0517 0.042866 0)
(1.0613 0.028742 0)
(1.66625 -0.485429 0)
(1.99216 -0.235074 0)
(2.23512 0.0195785 0)
(2.53905 0.260418 0)
(2.38294 0.296631 0)
(1.95316 0.196077 0)
(1.38807 0.104401 0)
(1.08801 0.064319 0)
(1.05048 0.04104 0)
(1.06038 0.0276975 0)
(1.68722 -0.471804 0)
(2.02121 -0.198248 0)
(2.26244 0.0721374 0)
(2.56895 0.318076 0)
(2.38699 0.334852 0)
(1.93136 0.220891 0)
(1.37612 0.113459 0)
(1.08514 0.0626043 0)
(1.04926 0.0390385 0)
(1.05949 0.0265183 0)
(1.71014 -0.454338 0)
(2.05496 -0.152521 0)
(2.29049 0.125045 0)
(2.57959 0.366981 0)
(2.38539 0.357432 0)
(1.90558 0.235282 0)
(1.36414 0.115657 0)
(1.08226 0.0602438 0)
(1.04811 0.0369486 0)
(1.05865 0.025238 0)
(1.73473 -0.433288 0)
(2.0892 -0.100654 0)
(2.32824 0.202696 0)
(2.58401 0.419758 0)
(2.37783 0.382889 0)
(1.8801 0.25823 0)
(1.35629 0.122986 0)
(1.07992 0.0578493 0)
(1.04707 0.0349006 0)
(1.05785 0.0239385 0)
(1.76309 -0.402922 0)
(2.12462 -0.0359333 0)
(2.36396 0.267127 0)
(2.58365 0.469291 0)
(2.36059 0.409616 0)
(1.84826 0.273264 0)
(1.34559 0.127526 0)
(1.07728 0.055893 0)
(1.04607 0.0329977 0)
(1.05711 0.0226443 0)
(1.78563 -0.367615 0)
(2.15574 0.0312506 0)
(2.41394 0.359798 0)
(2.57566 0.516647 0)
(2.32928 0.433742 0)
(1.81061 0.29341 0)
(1.33342 0.136078 0)
(1.07436 0.054467 0)
(1.04505 0.0312631 0)
(1.05633 0.0213983 0)
(1.80992 -0.321234 0)