/*--------------------------------*- C++ -*----------------------------------*\
  =========                 |
  \\      /  F ield         | OpenFOAM: The Open Source CFD Toolbox
   \\    /   O peration     | Website:  https://openfoam.org
    \\  /    A nd           | Version:  7
     \\/     M anipulation  |
\*---------------------------------------------------------------------------*/
FoamFile
{
    version     2.0;
    format      ascii;
    class       volScalarField;
    location    "0.1";
    object      T;
}
// * * * * * * * * * * * * * * * * * * * * * * * * * * * * * * * * * * * * * //

dimensions      [0 0 0 1 0 0 0];

internalField   nonuniform List<scalar> 
3225
(
1.25904
1.25697
1.25508
1.25352
1.25229
1.25158
1.2512
1.25108
1.25123
1.25153
1.25201
1.25259
1.25296
1.25303
1.25286
1.25228
1.25946
1.2572
1.25507
1.2531
1.25135
1.24984
1.24862
1.24779
1.24756
1.2477
1.24801
1.24857
1.24919
1.2499
1.25057
1.25091
1.25089
1.25064
1.24988
1.26002
1.25759
1.25529
1.25315
1.2512
1.2495
1.24802
1.24672
1.24562
1.24481
1.24426
1.2442
1.24434
1.24481
1.24546
1.24617
1.2468
1.24714
1.24715
1.24686
1.24599
1.25765
1.25516
1.25266
1.25024
1.24793
1.24581
1.24396
1.24241
1.24113
1.24008
1.23926
1.23866
1.23824
1.23818
1.23832
1.23867
1.2393
1.23993
1.24042
1.24059
1.24045
1.23986
1.23866
1.25812
1.25512
1.25264
1.25
1.2476
1.24524
1.24297
1.24085
1.23895
1.23728
1.23584
1.23466
1.23371
1.23297
1.23254
1.23238
1.23244
1.2326
1.23284
1.23308
1.23339
1.23355
1.2335
1.23318
1.23232
1.23084
1.25307
1.25094
1.24828
1.24604
1.24359
1.24135
1.23912
1.23706
1.23516
1.23347
1.23196
1.23064
1.22956
1.22874
1.22819
1.22781
1.22754
1.22745
1.2275
1.22758
1.22765
1.22764
1.22751
1.22717
1.22656
1.22549
1.22388
1.24645
1.2447
1.24245
1.24057
1.23842
1.23648
1.23451
1.23268
1.23098
1.22943
1.22807
1.22693
1.22601
1.2253
1.22479
1.22438
1.22408
1.22399
1.22398
1.22394
1.22385
1.22365
1.22329
1.2227
1.22185
1.22067
1.21905
1.24013
1.23877
1.23696
1.23551
1.23379
1.23228
1.23069
1.22921
1.22782
1.22659
1.22552
1.22459
1.22378
1.22311
1.22252
1.22199
1.22169
1.22161
1.22156
1.22146
1.22133
1.22108
1.22061
1.21981
1.21869
1.2174
1.21583
1.23461
1.23372
1.23234
1.2313
1.22995
1.22879
1.22751
1.22633
1.22521
1.22424
1.22344
1.22276
1.22216
1.22161
1.22108
1.22063
1.22034
1.2201
1.21989
1.21973
1.21957
1.21931
1.21878
1.21778
1.2164
1.21505
1.21354
1.22989
1.22934
1.22834
1.22763
1.22659
1.22572
1.22469
1.22375
1.22287
1.22215
1.22159
1.22117
1.2208
1.22039
1.21994
1.21957
1.2193
1.21908
1.21888
1.21864
1.21831
1.21788
1.2172
1.21603
1.21445
1.21302
1.21156
1.22586
1.22564
1.22503
1.22457
1.22375
1.22309
1.22223
1.22149
1.22077
1.22026
1.21991
1.21971
1.21953
1.21925
1.21894
1.2187
1.21846
1.21824
1.21802
1.21772
1.21727
1.21666
1.2158
1.21443
1.21265
1.21104
1.20956
1.22243
1.22246
1.22216
1.22186
1.22122
1.22069
1.21996
1.21941
1.21888
1.21859
1.21843
1.21837
1.2183
1.21816
1.21804
1.21787
1.21765
1.21741
1.21715
1.21678
1.21615
1.21528
1.21424
1.21274
1.2108
1.20899
1.20749
1.21957
1.21976
1.21959
1.21939
1.21892
1.21848
1.21788
1.21754
1.21724
1.21718
1.21717
1.21719
1.21716
1.21717
1.21715
1.21704
1.21682
1.21653
1.21617
1.21567
1.2148
1.21363
1.21242
1.21088
1.20886
1.20692
1.20542
1.21704
1.21738
1.21725
1.2171
1.21678
1.21643
1.21602
1.21589
1.21583
1.21593
1.21605
1.2161
1.21616
1.21622
1.2162
1.21612
1.21591
1.21553
1.215
1.21428
1.21317
1.21171
1.21036
1.20884
1.20695
1.20498
1.20354
1.2147
1.21522
1.21512
1.21505
1.2148
1.21456
1.21435
1.21441
1.21455
1.21481
1.21502
1.21518
1.21531
1.2153
1.21524
1.21512
1.21487
1.21436
1.21358
1.21262
1.21129
1.20962
1.20809
1.20668
1.20516
1.20345
1.20214
1.21255
1.21322
1.21311
1.21303
1.21283
1.21279
1.21286
1.21309
1.21341
1.21374
1.21402
1.2143
1.2144
1.21438
1.21426
1.21403
1.21364
1.21295
1.21193
1.21072
1.20921
1.20738
1.2057
1.20444
1.20356
1.20252
1.20144
1.21047
1.21113
1.21094
1.21093
1.21093
1.21115
1.21154
1.21197
1.21237
1.21272
1.2131
1.21334
1.21341
1.21338
1.2132
1.21277
1.21215
1.21127
1.21001
1.2086
1.20697
1.20512
1.20341
1.20231
1.20202
1.20193
1.20129
1.20826
1.2089
1.20881
1.20897
1.20928
1.20982
1.2104
1.21093
1.21138
1.21186
1.21219
1.21232
1.21232
1.21224
1.21194
1.21126
1.21036
1.20926
1.2078
1.20624
1.20471
1.20314
1.20161
1.20065
1.20061
1.20119
1.2013
1.20619
1.20669
1.2069
1.20736
1.20798
1.20868
1.20936
1.20994
1.21053
1.21099
1.21123
1.21124
1.21113
1.21085
1.21035
1.20946
1.20828
1.20691
1.20532
1.20378
1.20256
1.20161
1.20058
1.19972
1.19959
1.20029
1.20118
1.20372
1.20445
1.20516
1.20598
1.2068
1.20762
1.20837
1.20907
1.20963
1.20998
1.21011
1.21003
1.20971
1.20913
1.2084
1.20731
1.2059
1.20439
1.20282
1.20143
1.20055
1.20032
1.20011
1.19949
1.19919
1.19958
1.20068
1.20059
1.20228
1.20363
1.20476
1.20577
1.20667
1.20749
1.20815
1.20858
1.20876
1.20872
1.20852
1.20798
1.2071
1.20609
1.20485
1.20342
1.20196
1.2006
1.19944
1.19887
1.19905
1.19966
1.1996
1.19927
1.19928
1.2001
1.19914
1.20107
1.20266
1.20391
1.20494
1.20585
1.2066
1.20711
1.20734
1.20728
1.20703
1.20665
1.20592
1.20477
1.20352
1.20227
1.20104
1.19993
1.19892
1.19811
1.1977
1.19796
1.19893
1.19961
1.19957
1.19938
1.1996
1.19985
1.20128
1.20245
1.20344
1.20431
1.20505
1.20558
1.20585
1.20586
1.20561
1.20509
1.20446
1.20352
1.20228
1.20089
1.19974
1.19887
1.1982
1.19777
1.19739
1.1971
1.19722
1.19813
1.19924
1.19979
1.19977
1.19963
1.20111
1.20167
1.20235
1.20307
1.20371
1.20413
1.20434
1.20432
1.20416
1.20371
1.20291
1.202
1.20101
1.19974
1.19843
1.19751
1.19691
1.19671
1.19686
1.197
1.19693
1.19698
1.19751
1.19865
1.19959
1.20004
1.19999
1.20154
1.20168
1.20207
1.20257
1.20289
1.20295
1.20282
1.20255
1.2022
1.20154
1.20055
1.19946
1.19842
1.19736
1.19644
1.1957
1.19538
1.1955
1.19604
1.19668
1.19695
1.19706
1.19727
1.19796
1.19896
1.19976
1.20016
1.20136
1.20153
1.20165
1.20172
1.20167
1.20147
1.20108
1.20057
1.19992
1.19913
1.19806
1.19687
1.19595
1.19538
1.19484
1.19441
1.1943
1.19456
1.1953
1.19624
1.19694
1.19727
1.19742
1.19758
1.19812
1.19894
1.19966
1.20084
1.20074
1.20055
1.20031
1.19996
1.19964
1.19909
1.19826
1.19738
1.19643
1.1954
1.19441
1.19392
1.19367
1.19362
1.19359
1.19363
1.19397
1.19472
1.1957
1.19667
1.19733
1.19756
1.19764
1.1977
1.19799
1.19863
1.19953
1.19916
1.19877
1.19828
1.19777
1.19733
1.19658
1.19563
1.19459
1.19368
1.1928
1.19231
1.19201
1.19217
1.19266
1.19303
1.19329
1.19373
1.19431
1.19511
1.1961
1.19694
1.19741
1.19758
1.19765
1.19767
1.19779
1.19731
1.19675
1.19625
1.19577
1.19517
1.19441
1.19365
1.1927
1.19177
1.19106
1.19073
1.19041
1.19037
1.19088
1.19185
1.19253
1.19302
1.19363
1.19414
1.19457
1.19531
1.19617
1.19679
1.19712
1.19739
1.19763
1.19768
1.19413
1.19362
1.19329
1.19286
1.19202
1.19108
1.19022
1.18952
1.18916
1.1891
1.18911
1.18911
1.18918
1.18991
1.19109
1.19194
1.19259
1.19347
1.19416
1.19438
1.19463
1.19523
1.1959
1.19633
1.1967
1.19723
1.19772
1.1901
1.18998
1.1895
1.18893
1.18833
1.18759
1.18668
1.18658
1.18674
1.18714
1.1878
1.18823
1.18847
1.18924
1.19042
1.19131
1.19196
1.19295
1.19395
1.19432
1.19427
1.19446
1.19505
1.19559
1.19592
1.1964
1.19712
1.185
1.18524
1.18471
1.18459
1.18449
1.18398
1.18392
1.18395
1.1843
1.18531
1.18659
1.18749
1.18801
1.18876
1.18986
1.1907
1.19121
1.19203
1.19317
1.19395
1.194
1.19396
1.19437
1.19508
1.19548
1.19565
1.19614
1.17936
1.17959
1.17968
1.17994
1.18064
1.18149
1.18189
1.18209
1.18271
1.184
1.18549
1.18668
1.18752
1.18834
1.18938
1.1902
1.19056
1.191
1.19194
1.19306
1.19355
1.19353
1.19374
1.1945
1.19531
1.19548
1.19546
1.17294
1.17403
1.17483
1.17563
1.17706
1.17877
1.18017
1.18098
1.18188
1.18313
1.18455
1.18581
1.18684
1.18778
1.18884
1.18975
1.19017
1.19029
1.19077
1.1918
1.19276
1.19305
1.19313
1.19366
1.19467
1.19544
1.1955
1.16618
1.16846
1.17098
1.17262
1.17423
1.17633
1.17829
1.17976
1.18112
1.18244
1.18368
1.1848
1.18588
1.18691
1.18801
1.18911
1.18978
1.18992
1.19001
1.19065
1.19177
1.19253
1.1927
1.19285
1.19357
1.19463
1.19541
1.15943
1.16368
1.16721
1.17
1.17228
1.17435
1.17648
1.17844
1.18022
1.18174
1.1829
1.18381
1.18478
1.18579
1.18684
1.18801
1.189
1.18947
1.18955
1.18986
1.19075
1.19189
1.19251
1.19257
1.19266
1.1934
1.19452
1.15395
1.16141
1.16481
1.16816
1.17091
1.17317
1.1752
1.17725
1.1792
1.18085
1.18209
1.18299
1.18379
1.18463
1.18557
1.18665
1.18778
1.18859
1.18897
1.1892
1.18979
1.19086
1.19201
1.1926
1.19258
1.19257
1.19328
1.1405
1.15888
1.16414
1.16775
1.17026
1.1725
1.17439
1.17641
1.17823
1.17976
1.18112
1.18223
1.18308
1.18382
1.18458
1.18546
1.1865
1.18751
1.18822
1.18864
1.18899
1.18969
1.19084
1.19198
1.19266
1.19269
1.19263
1.10143
1.1476
1.16238
1.16747
1.16946
1.17168
1.17351
1.17537
1.17692
1.17843
1.17994
1.1813
1.18234
1.18319
1.18388
1.18461
1.18554
1.18655
1.18751
1.18825
1.18868
1.18896
1.18957
1.1907
1.1919
1.19274
1.19286
1.04242
1.10184
1.15125
1.16437
1.16838
1.17072
1.17228
1.17394
1.17519
1.17675
1.17834
1.17981
1.18104
1.18214
1.18295
1.18368
1.1846
1.18563
1.18667
1.1877
1.18857
1.189
1.18907
1.18945
1.19051
1.19183
1.19282
1.0148
1.03462
1.09734
1.14722
1.16578
1.17014
1.17205
1.17301
1.17392
1.17535
1.17679
1.17824
1.17959
1.18088
1.18186
1.18262
1.18346
1.18445
1.18545
1.18649
1.18764
1.18871
1.18931
1.1893
1.18945
1.19041
1.19179
1.00849
1.00956
1.02639
1.08554
1.13958
1.16397
1.1714
1.17266
1.17386
1.17483
1.17597
1.17734
1.17865
1.17999
1.18118
1.182
1.18264
1.18349
1.18437
1.18515
1.18614
1.1874
1.18868
1.18951
1.18955
1.18955
1.19038
1.00581
1.00546
1.00608
1.01823
1.06793
1.13298
1.15894
1.1689
1.17254
1.17392
1.1752
1.17627
1.17743
1.17883
1.18047
1.18174
1.18242
1.18317
1.1841
1.1847
1.18501
1.18577
1.18715
1.18864
1.18965
1.18977
1.18971
1.00391
1.00379
1.00353
1.00382
1.01087
1.05246
1.11615
1.15746
1.16718
1.17112
1.17367
1.17472
1.17573
1.17693
1.17874
1.18033
1.18133
1.18222
1.18349
1.18472
1.18521
1.18514
1.18561
1.18698
1.18862
1.18977
1.18997
1.00252
1.00255
1.0025
1.00235
1.00243
1.00635
1.035
1.09907
1.14795
1.16771
1.17267
1.174
1.17446
1.17529
1.17678
1.17838
1.17959
1.18052
1.1818
1.18345
1.18495
1.1856
1.18541
1.18563
1.18693
1.18867
1.18991
1.00165
1.00169
1.00174
1.00176
1.00168
1.00171
1.00347
1.02171
1.07891
1.13454
1.16359
1.17283
1.17486
1.1758
1.17623
1.17733
1.17853
1.17925
1.17994
1.18133
1.1833
1.18504
1.18589
1.18574
1.18581
1.18704
1.18879
1.00113
1.00117
1.00122
1.00129
1.00132
1.0013
1.00127
1.00197
1.01225
1.05561
1.12116
1.15494
1.1698
1.17505
1.17607
1.17735
1.17874
1.17967
1.17977
1.17983
1.18103
1.18308
1.18508
1.18613
1.18609
1.18609
1.18722
1.00082
1.00086
1.0009
1.00096
1.00101
1.00102
1.00096
1.00088
1.00109
1.00579
1.03689
1.0982
1.14858
1.16522
1.17206
1.17545
1.17758
1.1794
1.18045
1.18062
1.18016
1.18098
1.18302
1.18522
1.18642
1.18646
1.18641
1.00063
1.00066
1.00069
1.00071
1.00072
1.00072
1.0007
1.00064
1.00056
1.00059
1.00256
1.02056
1.0744
1.13415
1.16293
1.16974
1.17401
1.17656
1.17918
1.18088
1.18138
1.18073
1.18122
1.18315
1.18543
1.18671
1.18687
1.00048
1.00049
1.00049
1.00048
1.00047
1.00046
1.00045
1.00043
1.0004
1.00035
1.00033
1.00099
1.01009
1.05139
1.11177
1.15678
1.17026
1.17219
1.17541
1.17902
1.18133
1.18183
1.18109
1.18147
1.18332
1.18566
1.18709
1.00033
1.00032
1.00031
1.0003
1.00029
1.00028
1.00027
1.00026
1.00026
1.00024
1.00021
1.00018
1.00036
1.00432
1.03016
1.08944
1.14244
1.16846
1.17181
1.17546
1.17927
1.18157
1.18213
1.18153
1.1818
1.18357
1.18594
1.0002
1.00019
1.00019
1.00018
1.00017
1.00016
1.00016
1.00015
1.00015
1.00015
1.00013
1.00011
1.00009
1.00012
1.00151
1.01562
1.06411
1.12303
1.16192
1.17137
1.17504
1.1792
1.18212
1.18285
1.18232
1.1823
1.18385
1.00012
1.00011
1.00011
1.0001
1.0001
1.00009
1.00009
1.00008
1.00008
1.00007
1.00007
1.00006
1.00004
1.00003
1.00002
1.00044
1.00693
1.03944
1.09978
1.15004
1.16897
1.1739
1.17932
1.18258
1.1835
1.18311
1.18283
1.00006
1.00006
1.00006
1.00005
1.00005
1.00005
1.00004
1.00004
1.00003
1.00003
1.00002
1.00002
1.00001
1.00001
1
1
1.0001
1.00247
1.02094
1.07361
1.13191
1.16425
1.1724
1.17872
1.18256
1.18439
1.18428
1.00003
1.00003
1.00003
1.00002
1.00002
1.00002
1.00001
1.00001
1.00001
1.00001
1
1
1
1
1
1
1
1.00002
1.00073
1.00949
1.04769
1.10767
1.15556
1.17013
1.17683
1.18274
1.18513
1.00001
1.00001
1.00001
1.00001
1.00001
1
1
1
1
1
1
1
1
1
1
1
1
1
1
1.00018
1.00358
1.02602
1.08139
1.13939
1.16577
1.17556
1.18241
1
1
1
1
1
1
1
1
1
1
1
1
1
1
1
1
1
1
1
1
1.00003
1.00109
1.0121
1.05504
1.1153
1.15947
1.17286
1
1
1
1
1
1
1
1
1
1
1
1
1
1
1
1
1
1
1
1
1
1.00001
1.00027
1.00478
1.03121
1.08824
1.14547
1
1
1
1
1
1
1
1
1
1
1
1
1
1
1
1
1
1
1
1
1
1
1
1.00005
1.0015
1.01483
1.06152
1
1
1
1
1
1
1
1
1
1
1
1
1
1
1
1
1
1
1
1
1
1
1
1
1.00001
1.00039
1.00602
1
1
1
1
1
1
1
1
1
1
1
1
1
1
1
1
1
1
1
1
1
1
1
1
1
1
1.00008
1
1
1
1
1
1
1
1
1
1
1
1
1
1
1
1
1
1
1
1
1
1
1
1
1
1
1
1
1
1
1
1
1
1
1
1
1
1
1
1
1
1
1
1
1
1
1
1
1
1
1
1
1
1
1
1
1
1
1
1
1
1
1
1
1
1
1
1
1
1
1
1
1
1
1
1
1
1
1
1
1
1
1
1
1
1
1
1
1
1
1
1
1
1
1
1
1
1
1
1
1
1
1
1
1
1
1
1
1
1
1
1
1
1
1
1
1
1
1
1
1
1
1
1
1
1
1
1
1
1
1
1
1
1
1
1
1
1
1
1
1
1
1
1
1
1
1
1
1
1
1
1
1
1
1
1
1
1
1
1
1
1
1
1
1
1
1
1
1
1
1
1
1
1
1
1
1
1
1
1
1
1
1
1
1
1
1
1
1
1
1
1
1
1
1
1
1
1
1
1
1
1
1
1
1
1
1
1
1
1
1
1
1
1
1
1
1
1
1
1
1
1
1
1
1
1
1
1
1
1
1
1
1
1
1
1
1
1
1
1
1
1
1
1
1
1
1
1
1
1
1
1
1
1
1
1
1
1
1
1
1
1
1
1
1
1
1
1
1
1
1
1
1
1
1
1
1
1
1
1
1
1
1
1
1
1
1
1
1
1
1
1
1
1
1
1
1
1
1
1
1
1
1
1
1
1
1
1
1
1
1
1
1
1
1
1
1
1
1
1
1
1
1
1
1
1
1
1
1
1
1
1
1
1
1
1
1
1
1
1
1
1
1
1
1
1
1
1
1
1
1
1
1
1
1
1
1
1
1
1
1
1
1
1
1
1
1
1
1
1
1
1
1
1
1
1
1
1
1
1
1
1
1
1
1
1
1
1
1
1
1
1
1
1
1
1
1
1
1
1
1
1
1
1
1
1
1
1
1
1
1
1
1
1
1
1
1
1
1
1
1
1
1
1
1
1
1
1
1
1
1
1
1
1
1
1
1
1
1
1
1
1
1
1
1
1
1
1
1
1
1
1
1
1
1
1
1
1
1
1
1
1
1
1
1
1
1
1
1
1
1
1
1
1
1
1
1
1
1
1
1
1
1
1
1
1
1
1
1
1
1
1
1
1
1
1
1
1
1
1
1
1
1
1
1
1
1
1
1
1
1
1
1
1
1
1
1
1
1
1
1
1
1
1
1
1
1
1
1
1
1
1
1
1
1
1
1
1
1
1
1
1
1
1
1
1
1
1
1
1
1
1
1
1
1
1
1
1
1
1
1
1
1
1
1
1
1
1
1
1
1
1
1
1
1
1
1
1
1
1
1
1
1
1
1
1
1
1
1
1
1
1
1
1
1
1
1
1
1
1
1
1
1
1
1
1
1
1
1
1
1
1
1
1
1
1
1
1
1
1
1
1
1
1
1
1
1
1
1
1
1
1
1
1
1
1
1
1
1
1
1
1
1
1
1
1
1
1
1
1
1
1
1
1
1
1
1
1
1
1
1
1
1
1
1
1
1
1
1
1
1
1
1
1
1
1
1
1
1
1
1
1
1
1
1
1
1
1
1
1
1
1
1
1
1
1
1
1
1
1
1
1
1
1
1
1
1
1
1
1
1
1
1
1
1
1
1
1
1
1
1
1
1
1
1
1
1
1
1
1
1
1
1
1
1
1
1
1
1
1
1
1
1
1
1
1
1
1
1
1
1
1
1
1
1
1
1
1
1
1
1
1
1
1
1
1
1
1
1
1
1
1
1
1
1
1
1
1
1
1
1
1
1
1
1
1
1
1
1
1
1
1
1
1
1
1
1
1
1
1
1
1
1
1
1
1
1
1
1
1
1
1
1
1
1
1
1
1
1
1
1
1
1
1
1
1
1
1
1
1
1
1
1
1
1
1
1
1
1
1
1
1
1
1
1
1
1
1
1
1
1
1
1
1
1
1
1
1
1
1
1
1
1
1
1
1
1
1
1
1
1
1
1
1
1
1
1
1
1
1
1
1
1
1
1
1
1
1
1
1
1
1
1
1
1
1
1
1
1
1
1
1
1
1
1
1
1
1
1
1
1
1
1
1
1
1
1
1
1
1
1
1
1
1
1
1
1
1
1
1
1
1
1
1
1
1
1
1
1
1
1
1
1
1
1
1
1
1
1
1
1
1
1
1
1
1
1
1
1
1
1
1
1
1
1
1
1
1
1
1
1
1
1
1
1
1
1
1
1
1
1
1
1
1
1
1
1
1
1
1
1
1
1
1
1
1
1
1
1
1
1
1
1
1
1
1
1
1
1
1
1
1
1
1
1
1
1
1
1
1
1
1
1
1
1
1
1
1
1
1
1
1
1
1
1
1
1
1
1
1
1
1
1
1
1
1
1
1
1
1
1
1
1
1
1
1
1
1
1
1
1
1
1
1
1
1
1
1
1
1
1
1
1
1
1
1
1
1
1
1
1
1
1
1
1
1
1
1
1
1
1
1
1
1
1
1
1
1
1
1
1
1
1
1
1
1
1
1
1
1
1
1
1
1
1
1
1
1
1
1
1
1
1
1
1
1
1
1
1
1
1
1
1
1
1
1
1
1
1
1
1
1
1
1
1
1
1
1
1
1
1
1
1
1
1
1
1
1
1
1
1
1
1
1
1
1
1
1
1
1
1
1
1
1
1
1
1
1
1
1
1
1
1
1
1
1
1
1
1
1
1
1
1
1
1
1
1
1
1
1
1
1
1
1
1
1
1
1
1
1
1
1
1
1
1
1
1
1
1
1
1
1
1
1
1
1
1
1
1
1
1
1
1
1
1
1
1
1
1
1
1
1
1
1
1
1
1
1
1
1
1
1
1
1
1
1
1
1
1
1
1
1
1
1
1
1
1
1
1
1
1
1
1
1
1
1
1
1
1
1
1
1
1
1
1
1
1
1
1
1
1
1
1
1
1
1
1
1
1
1
1
1
1
1
1
1
1
1
1
1
1
1
1
1
1
1
1
1
1
1
1
1
1
1
1
1
1
1
1
1
1
1
1
1
1
1
1
1
1
1
1
1
1
1
1
1
1
1
1
1
1
1
1
1
1
1
1
1
1
1
1
1
1
1
1
1
1
1
1
1
1
1
1
1
1
1
1
1
1
1
1
1
1
1
1
1
1
1
1
1
1
1
1
1
1
1
1
1
1
1
1
1
1
1
1
1
1
1
1
1
1
1
1
1
1
1
1
1
1
1
1
1
1
1
1
1
1
1
1
1
1
1
1
1
1
1
1
1
1
1
1
1
1
1
1
1
1
1
1
1
1
1
1
1
1
1
1
1
1
1
1
1
1
1
1
1
1
1
1
1
1
1
1
1
1
1
1
1
1
1
1
1
1
1
1
1
1
1
1
1
1
1
1
1
1
1
1
1
1
1
1
1
1
1
1
1
1
1
1
1
1
1
1
1
1
1
1
1
1
1
1
1
1
1
1
1
1
1
1
1
1
1
1
1
1
1
1
1
1
1
1
1
1
1
1
1
1
1
1
1
1
1
1
1
1
1
1
1
1
1
1
1
1
1
1
1
1
1
1
1
1
1
1
1
1
1
1
1
1
1
1
1
1
1
1
1
1
1
1
1
1
1
1
1
1
1
1
1
1
1
1
1
1
1
1
1
1
1
)
;

boundaryField
{
    inlet
    {
        type            fixedValue;
        value           nonuniform 0();
    }
    outlet
    {
        type            inletOutlet;
        inletValue      nonuniform 0();
        value           nonuniform 0();
    }
    triangle
    {
        type            zeroGradient;
    }
    top
    {
        type            symmetryPlane;
    }
    bottom
    {
        type            symmetryPlane;
    }
    defaultFaces
    {
        type            empty;
    }
    procBoundary19to11
    {
        type            processor;
        value           nonuniform List<scalar> 
16
(
1.26637
1.26374
1.2613
1.2613
1.26434
1.26184
1.26184
1.26527
1.26259
1.26259
1.26565
1.2626
1.26019
1.26019
1.26064
1.26064
)
;
    }
    procBoundary19to18
    {
        type            processor;
        value           nonuniform List<scalar> 
115
(
1.25698
1.24964
1.24266
1.23638
1.2312
1.22694
1.22336
1.22035
1.2177
1.21526
1.21298
1.21088
1.20879
1.20659
1.20344
1.19895
1.19676
1.19757
1.20025
1.20187
1.20198
1.20197
1.20097
1.19884
1.19574
1.19179
1.18676
1.17995
1.16971
1.15736
1.14261
1.12162
1.08919
1.04883
1.02331
1.01321
1.00883
1.00598
1.00389
1.00248
1.00162
1.0011
1.00079
1.0006
1.00046
1.00033
1.00021
1.00012
1.00007
1.00003
1.00001
1
1
1
1
1
1
1
1
1
1
1
1
1
1
1
1
1
1
1
1
1
1
1
1
1
1
1
1
1
1
1
1
1
1
1
1
1
1
1
1
1
1
1
1
1
1
1
1
1
1
1
1
1
1
1
1
1
1
1
1
1
1
1
1
)
;
    }
    procBoundary19to20
    {
        type            processor;
        value           nonuniform List<scalar> 
120
(
1.25106
1.24861
1.24448
1.23693
1.22898
1.222
1.21714
1.21388
1.21156
1.20965
1.20791
1.20618
1.2045
1.20295
1.20178
1.20106
1.20086
1.20096
1.20119
1.20137
1.20116
1.20058
1.19988
1.19981
1.20005
1.20007
1.19937
1.19831
1.19769
1.19777
1.19775
1.19696
1.19589
1.19537
1.19551
1.1954
1.19445
1.19324
1.19277
1.19303
1.19288
1.19179
1.19044
1.1899
1.19019
1.19006
1.18893
1.18746
1.18682
1.18746
1.18756
1.18619
1.18413
1.18365
1.18528
1.18526
1.18002
1.16823
1.12203
1.0361
1.00196
1.00001
1
1
1
1
1
1
1
1
1
1
1
1
1
1
1
1
1
1
1
1
1
1
1
1
1
1
1
1
1
1
1
1
1
1
1
1
1
1
1
1
1
1
1
1
1
1
1
1
1
1
1
1
1
1
1
1
1
1
)
;
    }
    procBoundary19to26
    {
        type            processor;
        value           uniform 1;
    }
    procBoundary19to27
    {
        type            processor;
        value           nonuniform List<scalar> 
28
(
1
1
1
1
1
1
1
1
1
1
1
1
1
1
1
1
1
1
1
1
1
1
1
1
1
1
1
1
)
;
    }
}


// ************************************************************************* //
