/*--------------------------------*- C++ -*----------------------------------*\
  =========                 |
  \\      /  F ield         | OpenFOAM: The Open Source CFD Toolbox
   \\    /   O peration     | Website:  https://openfoam.org
    \\  /    A nd           | Version:  8
     \\/     M anipulation  |
\*---------------------------------------------------------------------------*/
FoamFile
{
    version     2.0;
    format      ascii;
    class       volScalarField;
    location    "1";
    object      p;
}
// * * * * * * * * * * * * * * * * * * * * * * * * * * * * * * * * * * * * * //

dimensions      [1 -1 -2 0 0 0 0];

internalField   nonuniform List<scalar> 
325
(
0.998376
1.10366
1.41084
1.85888
2.15608
2.41175
3.15853
1.02222
1.13098
1.4219
1.8632
2.16929
2.37706
3.141
1.04616
1.15826
1.42927
1.86613
2.18126
2.35326
3.1211
1.05597
1.17662
1.43784
1.87259
2.18613
2.33473
3.12131
1.06121
1.18589
1.44969
1.88734
2.18367
2.3164
3.13793
1.05536
1.18635
1.45355
1.9049
2.17855
2.30269
3.14678
1.04592
1.18147
1.47032
2.29505
1.69322
1.34347
1.53154
2.56393
3.52179
3.61655
2.15303
1.60224
1.293
1.45174
2.62567
3.56456
3.67063
2.01485
1.50808
1.24476
1.39543
2.65947
3.60709
3.71384
1.87589
1.41976
1.20043
1.35893
2.65832
3.6348
3.76026
1.7325
1.32956
1.15987
1.33914
2.64954
3.65599
3.80151
1.602
1.25149
1.13553
1.32912
2.6052
3.6423
3.82834
1.46948
1.17595
1.11891
1.3578
2.5315
3.61743
3.84252
1.33989
1.1365
1.11267
1.39358
2.44199
3.56803
3.81616
1.21305
1.10697
1.11757
1.4407
2.3464
3.50492
3.7891
1.10819
1.07889
1.1267
1.49088
2.25576
3.42319
3.75415
1.04374
1.05072
1.13969
1.53546
2.17921
3.33205
3.71863
1.00686
1.01248
1.15275
1.57549
2.12808
3.22702
3.67363
0.976085
0.990655
1.18641
1.61031
2.09807
3.11955
3.62508
0.949775
0.974458
1.21889
1.64208
2.08208
3.00958
3.57164
0.9401
0.973469
1.25301
1.68597
2.07661
2.89638
3.5143
0.936902
0.983484
1.27595
1.74069
2.08355
2.78223
3.4467
0.93094
1.00338
1.30817
1.79417
2.09943
2.67486
3.37044
0.936047
1.02826
1.34247
1.8297
2.11754
2.58286
3.29206
0.948114
1.05337
1.37752
1.84956
2.13432
2.50997
3.22335
0.970719
1.07808
1.40066
1.85542
2.14556
2.4558
3.17847
1.70856
6.78295
6.65857
5.36046
4.20208
3.4185
2.49907
1.63025
6.79176
6.68928
5.37058
4.20054
3.46709
2.55441
1.54566
6.73113
6.74074
5.37057
4.20006
3.40681
2.4787
1.60162
6.67025
6.7431
5.34685
4.19564
3.39406
2.45824
1.64904
6.51126
6.67049
5.31139
4.18219
3.37514
2.43811
1.66245
6.38829
6.45484
5.24489
4.15457
3.34638
2.41147
1.73696
6.15736
6.23117
5.15741
4.11144
3.3063
2.38432
2.03292
5.86983
6.04047
5.05197
4.04763
3.2565
2.35522
2.45322
5.3478
5.83871
4.92792
3.97579
3.2027
2.32998
2.81767
4.70093
5.56463
4.76634
3.89213
3.14402
2.30964
3.11604
4.05027
5.17345
4.57255
3.7992
3.08401
2.29312
3.3629
3.55243
4.64781
4.33066
3.69596
3.01494
2.28247
3.51816
3.30293
4.01155
4.07629
3.58576
2.94806
2.283
3.55907
3.10888
3.42214
3.81107
3.45917
2.87887
2.30033
3.43822
2.86397
2.86554
3.54826
3.3159
2.81338
2.33639
3.32533
2.61016
2.39544
3.27364
3.11154
2.73736
2.46245
3.21809
2.40864
2.01335
2.91501
2.89494
2.6741
2.7112
3.04229
2.23101
1.75167
2.48652
2.70896
2.67448
3.02338
2.77804
2.04659
1.5705
2.06917
2.53888
2.92634
3.36846
2.50142
1.84727
1.43385
1.72104
2.45318
3.34809
3.54807
)
;

boundaryField
{
    inlet
    {
        type            fixedValue;
        value           nonuniform List<scalar> 0();
    }
    outlet
    {
        type            zeroGradient;
    }
    triangle
    {
        type            zeroGradient;
    }
    top
    {
        type            symmetryPlane;
    }
    bottom
    {
        type            symmetryPlane;
    }
    defaultFaces
    {
        type            empty;
    }
    procBoundary3to2
    {
        type            processor;
        value           nonuniform List<scalar> 
47
(
0.994144
1.02205
1.04249
1.04105
1.0221
1.0075
0.994583
3.04456
2.91278
2.7489
2.59623
2.4506
2.29727
2.1707
2.02838
1.88298
1.74426
1.58404
1.44156
1.29688
1.17588
1.076
0.998377
0.956261
0.935525
0.927166
0.944921
1.002
1.00209
1.00224
1.00241
1.00367
1.00827
1.02547
1.08226
1.2408
1.55926
1.98556
2.41216
2.78703
3.15652
3.46674
3.60187
3.66966
3.59866
3.38625
3.19933
)
;
    }
    procBoundary3to7
    {
        type            processor;
        value           nonuniform List<scalar> 8(1.92574 2.16979 2.29418 3.16469 1.03691 1.17658 1.92574 1.48902);
    }
}


// ************************************************************************* //
