/*--------------------------------*- C++ -*----------------------------------*\
  =========                 |
  \\      /  F ield         | OpenFOAM: The Open Source CFD Toolbox
   \\    /   O peration     | Website:  https://openfoam.org
    \\  /    A nd           | Version:  7
     \\/     M anipulation  |
\*---------------------------------------------------------------------------*/
FoamFile
{
    version     2.0;
    format      ascii;
    class       volScalarField;
    location    "1";
    object      p;
}
// * * * * * * * * * * * * * * * * * * * * * * * * * * * * * * * * * * * * * //

dimensions      [1 -1 -2 0 0 0 0];

internalField   nonuniform List<scalar> 
325
(
0.997559
1.10345
1.41062
1.85978
2.16013
2.40718
3.14896
1.02114
1.13234
1.42144
1.85666
2.17088
2.38389
3.13047
1.04554
1.15881
1.43375
1.86056
2.17843
2.3591
3.13152
1.05578
1.17667
1.44181
1.87302
2.18267
2.33485
3.13333
1.06094
1.18707
1.45039
1.88946
2.18101
2.31799
3.13079
1.05503
1.18728
1.45322
1.90818
2.17755
2.29953
3.14024
1.04574
1.18201
1.46995
2.29509
1.69317
1.34344
1.53147
2.56383
3.52009
3.61651
2.15302
1.60218
1.29295
1.45162
2.62476
3.56373
3.67147
2.01481
1.50804
1.24467
1.39527
2.65859
3.60754
3.71495
1.87587
1.41972
1.20037
1.3588
2.65839
3.63532
3.76077
1.73247
1.32947
1.1598
1.33922
2.6504
3.65582
3.8007
1.60191
1.25141
1.13549
1.33034
2.6065
3.64134
3.82705
1.46937
1.17585
1.11892
1.3577
2.53249
3.61652
3.84153
1.33974
1.13646
1.11269
1.39308
2.44233
3.56912
3.81604
1.21298
1.10705
1.11752
1.44036
2.34581
3.50722
3.78928
1.10818
1.07899
1.12666
1.49105
2.2546
3.42474
3.75506
1.04363
1.05069
1.13983
1.53604
2.17893
3.33099
3.7192
1.00675
1.01242
1.15309
1.57584
2.12878
3.22566
3.67286
0.97596
0.990576
1.18715
1.61048
2.09801
3.11953
3.62378
0.949626
0.974379
1.21976
1.64368
2.08134
3.01054
3.57173
0.939836
0.973361
1.2539
1.6887
2.07704
2.89545
3.51555
0.936568
0.983391
1.2762
1.74128
2.08503
2.78002
3.44661
0.930654
1.00348
1.30734
1.79019
2.09946
2.6755
3.36818
0.935775
1.02869
1.34135
1.82467
2.11481
2.58766
3.29189
0.947866
1.05363
1.37881
1.85089
2.1322
2.51125
3.22946
0.970297
1.07731
1.4038
1.86213
2.14727
2.4478
3.18339
1.70867
6.7832
6.65861
5.36046
4.20207
3.4185
2.49907
1.63035
6.79198
6.6893
5.37056
4.20054
3.4671
2.55442
1.54576
6.73136
6.74073
5.37055
4.20006
3.40682
2.4787
1.60172
6.67046
6.74308
5.34682
4.19564
3.39406
2.45824
1.64913
6.51149
6.67046
5.31136
4.18219
3.37515
2.43812
1.66252
6.38849
6.45481
5.24487
4.15457
3.34639
2.41147
1.73707
6.15755
6.23114
5.15739
4.11145
3.3063
2.38433
2.03307
5.86995
6.04045
5.05196
4.04763
3.2565
2.35522
2.45335
5.34784
5.8387
4.92791
3.9758
3.2027
2.32999
2.81776
4.70095
5.56462
4.76634
3.89213
3.14403
2.30967
3.1161
4.05028
5.17345
4.57256
3.79921
3.08401
2.29314
3.36293
3.55244
4.64784
4.33068
3.69597
3.01495
2.28248
3.51821
3.30294
4.01161
4.07633
3.58578
2.94807
2.283
3.55908
3.10887
3.42221
3.81114
3.45919
2.87889
2.30032
3.43821
2.86394
2.86559
3.54832
3.31592
2.81341
2.33638
3.32533
2.61011
2.39548
3.27371
3.11156
2.73739
2.46252
3.21811
2.40862
2.01334
2.91505
2.89486
2.67414
2.71149
3.0423
2.231
1.75166
2.48652
2.7089
2.67458
3.02348
2.77807
2.04661
1.57048
2.06915
2.53899
2.92649
3.36779
2.50142
1.8473
1.43383
1.721
2.45364
3.34839
3.54722
)
;

boundaryField
{
    inlet
    {
        type            fixedValue;
        value           nonuniform 0();
    }
    outlet
    {
        type            zeroGradient;
    }
    triangle
    {
        type            zeroGradient;
    }
    top
    {
        type            symmetryPlane;
    }
    bottom
    {
        type            symmetryPlane;
    }
    defaultFaces
    {
        type            empty;
    }
    procBoundary3to2
    {
        type            processor;
        value           nonuniform List<scalar> 
47
(
0.994018
1.02199
1.0423
1.04078
1.02191
1.00721
0.994296
3.04459
2.91281
2.74891
2.59618
2.45061
2.29731
2.17078
2.02836
1.88287
1.74422
1.58405
1.44156
1.29676
1.17569
1.07581
0.998102
0.955934
0.935239
0.926894
0.944702
1.002
1.00209
1.00224
1.00242
1.00367
1.00827
1.02548
1.08229
1.24087
1.55934
1.98566
2.41226
2.78712
3.15661
3.4668
3.60191
3.66969
3.59868
3.38627
3.19935
)
;
    }
    procBoundary3to7
    {
        type            processor;
        value           nonuniform List<scalar> 8(1.92549 2.17644 2.28808 3.15747 1.03676 1.17673 1.92549 1.48751);
    }
}


// ************************************************************************* //
