/*--------------------------------*- C++ -*----------------------------------*\
  =========                 |
  \\      /  F ield         | OpenFOAM: The Open Source CFD Toolbox
   \\    /   O peration     | Website:  https://openfoam.org
    \\  /    A nd           | Version:  7
     \\/     M anipulation  |
\*---------------------------------------------------------------------------*/
FoamFile
{
    version     2.0;
    format      ascii;
    class       volScalarField;
    location    "1";
    object      rho;
}
// * * * * * * * * * * * * * * * * * * * * * * * * * * * * * * * * * * * * * //

dimensions      [1 -3 0 0 0 0 0];

internalField   nonuniform List<scalar> 
325
(
0.890591
0.969538
1.18363
1.44575
1.62262
1.84156
2.57508
0.867586
0.946412
1.14571
1.40181
1.59166
1.79024
2.5279
0.848168
0.926904
1.11294
1.35937
1.55607
1.73745
2.47123
0.835507
0.913761
1.08228
1.3206
1.52314
1.69216
2.39379
0.834007
0.905142
1.05536
1.29212
1.49982
1.66335
2.30316
0.831959
0.894579
1.03412
1.28364
1.4907
1.6447
2.22836
0.827848
0.886022
1.03463
2.14161
1.73456
1.47972
1.63087
2.32018
2.86451
3.00433
2.05019
1.67037
1.44232
1.57295
2.37028
2.90238
3.04782
1.95899
1.60226
1.40611
1.53184
2.40312
2.93842
3.08495
1.86507
1.53687
1.37279
1.50592
2.41251
2.96384
3.12363
1.7656
1.46793
1.34197
1.4922
2.42032
2.98637
3.1597
1.67183
1.40659
1.32388
1.48543
2.40398
2.98916
3.18917
1.57079
1.34574
1.31036
1.50519
2.35381
2.98251
3.21046
1.46583
1.31432
1.30379
1.52661
2.27398
2.94804
3.20369
1.35527
1.2893
1.30437
1.55328
2.17893
2.88819
3.18876
1.25777
1.26053
1.30618
1.57955
2.08114
2.80015
3.15898
1.19315
1.22429
1.30972
1.59945
1.99314
2.69342
3.12052
1.15038
1.17816
1.30998
1.61062
1.92354
2.57693
3.06773
1.11193
1.14344
1.32323
1.61201
1.86687
2.46676
3.00937
1.07437
1.11038
1.32952
1.60589
1.81878
2.36689
2.94971
1.04637
1.08773
1.33133
1.60155
1.77859
2.2729
2.89138
1.01795
1.07017
1.31894
1.59792
1.74712
2.18434
2.83047
0.981813
1.0562
1.30633
1.58815
1.72114
2.10548
2.76779
0.95274
1.04149
1.28885
1.56564
1.6972
2.03651
2.70957
0.92831
1.02194
1.26663
1.53468
1.67501
1.96964
2.66057
0.9089
0.995856
1.22988
1.49243
1.65011
1.90082
2.61818
1.86634
4.52208
4.48782
3.89435
3.3392
2.95834
2.46265
1.84762
4.57608
4.53013
3.90177
3.33461
2.98687
2.50154
1.86784
4.66692
4.61978
3.91064
3.32663
2.94458
2.44721
1.94891
4.74116
4.68671
3.91766
3.31686
2.92702
2.42845
1.98687
4.70396
4.69983
3.9218
3.30352
2.90341
2.40837
1.97858
4.64832
4.61334
3.89466
3.2784
2.8709
2.38134
2.02187
4.54603
4.48017
3.83463
3.2377
2.82759
2.3512
2.24873
4.43774
4.33821
3.75362
3.18179
2.77562
2.31657
2.53662
4.17706
4.18282
3.66329
3.12279
2.72071
2.28214
2.74047
3.78098
4.01424
3.55567
3.0585
2.66353
2.24947
2.87779
3.3561
3.79401
3.43667
2.99078
2.60713
2.21894
2.97968
3.02145
3.50798
3.29703
2.92056
2.54816
2.19334
3.02381
2.84351
3.18908
3.15094
2.85385
2.49485
2.17807
3.0242
2.70467
2.86282
3.0078
2.78582
2.4455
2.17807
2.92906
2.53344
2.51817
2.8624
2.7093
2.40296
2.19166
2.83134
2.3599
2.20318
2.70081
2.59283
2.35412
2.26609
2.73825
2.217
1.94367
2.48594
2.46345
2.31545
2.41723
2.60767
2.09456
1.76552
2.23441
2.35163
2.32978
2.59529
2.43978
1.97315
1.64108
1.98487
2.26263
2.49248
2.80638
2.27101
1.84115
1.54545
1.76215
2.24155
2.75334
2.94476
)
;

boundaryField
{
    inlet
    {
        type            calculated;
        value           nonuniform 0();
    }
    outlet
    {
        type            calculated;
        value           nonuniform List<scalar> 
46
(
2.57642
2.52923
2.47245
2.39463
2.30373
2.22896
3.00452
3.04793
3.08501
3.12371
3.15992
3.18945
3.21084
3.20418
3.18934
3.15961
3.12125
3.06853
3.0103
2.95084
2.89275
2.83205
2.76948
2.71134
2.6623
2.61972
2.46325
2.50211
2.4478
2.42908
2.40901
2.382
2.35188
2.31724
2.28278
2.25007
2.21952
2.19387
2.17856
2.17856
2.19217
2.26674
2.418
2.59601
2.80677
2.94499
)
;
    }
    triangle
    {
        type            calculated;
        value           nonuniform 0();
    }
    top
    {
        type            symmetryPlane;
    }
    bottom
    {
        type            symmetryPlane;
    }
    defaultFaces
    {
        type            empty;
    }
    procBoundary3to2
    {
        type            processor;
        value           nonuniform List<scalar> 
47
(
0.871585
0.848734
0.829702
0.817659
0.812423
0.818146
0.823381
2.60475
2.52426
2.42241
2.32596
2.23451
2.13778
2.05545
1.95618
1.84876
1.74038
1.6093
1.48287
1.34462
1.21952
1.10863
1.01569
0.956051
0.917511
0.890485
0.87559
1.40201
1.4021
1.40225
1.40241
1.40366
1.40831
1.42583
1.48323
1.63468
1.90207
2.20573
2.48552
2.72033
2.90401
3.00271
3.02222
3.0301
2.95016
2.80925
2.69625
)
;
    }
    procBoundary3to7
    {
        type            processor;
        value           nonuniform List<scalar> 8(1.29181 1.49406 1.63546 2.18456 0.822667 0.883332 1.29181 1.0497);
    }
}


// ************************************************************************* //
