/*--------------------------------*- C++ -*----------------------------------*\
  =========                 |
  \\      /  F ield         | OpenFOAM: The Open Source CFD Toolbox
   \\    /   O peration     | Website:  https://openfoam.org
    \\  /    A nd           | Version:  7
     \\/     M anipulation  |
\*---------------------------------------------------------------------------*/
FoamFile
{
    version     2.0;
    format      ascii;
    class       volScalarField;
    location    "1";
    object      T;
}
// * * * * * * * * * * * * * * * * * * * * * * * * * * * * * * * * * * * * * //

dimensions      [0 0 0 1 0 0 0];

internalField   nonuniform List<scalar> 
325
(
1.56816
1.59337
1.66849
1.80094
1.86376
1.83001
1.71201
1.6478
1.67505
1.73694
1.85427
1.90948
1.86425
1.73372
1.7258
1.75028
1.80356
1.91617
1.95995
1.90091
1.77407
1.76909
1.80281
1.86509
1.98564
2.00621
1.93174
1.83252
1.78095
1.83606
1.92404
2.04722
2.03586
1.95101
1.90309
1.77538
1.85808
1.96738
2.08117
2.04507
1.95741
1.97291
1.76848
1.86769
1.98905
1.50033
1.36659
1.27106
1.31468
1.54702
1.72042
1.68527
1.47022
1.34285
1.25501
1.29201
1.55032
1.71902
1.68648
1.4399
1.31768
1.23927
1.27519
1.54884
1.71881
1.68591
1.40811
1.29328
1.22417
1.26324
1.54269
1.71718
1.68557
1.37374
1.26796
1.20995
1.25648
1.5331
1.71384
1.68402
1.34145
1.24555
1.20079
1.25383
1.51795
1.70547
1.68003
1.30962
1.22326
1.19547
1.26282
1.50628
1.69761
1.6752
1.27958
1.21055
1.1948
1.27755
1.50365
1.69495
1.6676
1.25302
1.20211
1.19945
1.29823
1.50723
1.70007
1.66366
1.2335
1.19838
1.20759
1.32157
1.51669
1.71228
1.66418
1.22456
1.20149
1.21841
1.3445
1.53051
1.73141
1.6686
1.2252
1.20305
1.23233
1.36977
1.54939
1.75245
1.67616
1.2288
1.21284
1.25603
1.39868
1.57334
1.77049
1.68584
1.23746
1.22853
1.28442
1.43295
1.60211
1.78072
1.69523
1.25747
1.2528
1.31858
1.47619
1.63492
1.78347
1.70223
1.28808
1.28648
1.35464
1.52561
1.67078
1.7818
1.70476
1.32706
1.33012
1.40108
1.57811
1.70774
1.77903
1.70369
1.37508
1.3828
1.45704
1.63164
1.74449
1.77889
1.70088
1.4295
1.44341
1.52401
1.68846
1.78214
1.78497
1.69936
1.49458
1.51452
1.59799
1.74682
1.82181
1.80287
1.70224
1.28173
2.10003
2.0772
1.92707
1.76178
1.61777
1.42071
1.23537
2.07794
2.06728
1.92703
1.76356
1.6251
1.4296
1.1586
2.0193
2.04275
1.92265
1.76758
1.61978
1.41802
1.1506
1.96971
2.01428
1.91073
1.77092
1.62339
1.41718
1.16202
1.93796
1.98703
1.89605
1.77238
1.62747
1.4173
1.17637
1.92412
1.95883
1.88536
1.77416
1.63188
1.41772
1.2028
1.89629
1.94716
1.88294
1.77782
1.63702
1.41973
1.26574
1.85183
1.94934
1.88425
1.78098
1.64256
1.42337
1.35405
1.79241
1.95424
1.8833
1.78243
1.64803
1.42936
1.43949
1.74065
1.94071
1.87669
1.7816
1.65257
1.43747
1.51594
1.68959
1.90903
1.86273
1.77843
1.65609
1.44682
1.58008
1.64604
1.85491
1.83892
1.77171
1.65646
1.4569
1.62891
1.62621
1.7611
1.81117
1.75907
1.65433
1.46745
1.64762
1.60923
1.67356
1.77393
1.73841
1.64811
1.47858
1.64336
1.58265
1.59316
1.73549
1.71347
1.63914
1.49245
1.64426
1.54844
1.5222
1.69698
1.6801
1.62794
1.52136
1.64535
1.52101
1.45019
1.64166
1.64518
1.61688
1.57043
1.63335
1.4912
1.38901
1.55797
1.6127
1.6072
1.63099
1.59413
1.45212
1.33978
1.45946
1.571
1.64378
1.68008
1.54205
1.40468
1.29889
1.36731
1.53247
1.70258
1.68643
)
;

boundaryField
{
    inlet
    {
        type            fixedValue;
        value           nonuniform 0();
    }
    outlet
    {
        type            inletOutlet;
        inletValue      uniform 1;
        value           nonuniform List<scalar> 
46
(
1.71112
1.73281
1.7732
1.83188
1.90261
1.97238
1.68517
1.68641
1.68588
1.68553
1.68391
1.67988
1.675
1.66735
1.66336
1.66384
1.66821
1.67573
1.68532
1.69459
1.70142
1.70381
1.70265
1.69977
1.69825
1.70124
1.42037
1.42927
1.41768
1.41682
1.41692
1.41733
1.41932
1.42295
1.42896
1.43708
1.44644
1.45655
1.46712
1.47825
1.4921
1.52092
1.56994
1.63053
1.67984
1.6863
)
;
    }
    triangle
    {
        type            zeroGradient;
    }
    top
    {
        type            symmetryPlane;
    }
    bottom
    {
        type            symmetryPlane;
    }
    defaultFaces
    {
        type            empty;
    }
    procBoundary3to2
    {
        type            processor;
        value           nonuniform List<scalar> 
47
(
1.59667
1.6858
1.75874
1.78204
1.76099
1.72354
1.69061
1.63641
1.6155
1.58871
1.56265
1.5354
1.50447
1.47856
1.45167
1.42583
1.40309
1.37803
1.361
1.35017
1.34968
1.35856
1.37576
1.39983
1.42706
1.45725
1.51051
1.00057
1.0006
1.00064
1.00069
1.00105
1.00233
1.00691
1.02157
1.06273
1.14775
1.26033
1.35874
1.43438
1.52178
1.61639
1.66854
1.69552
1.70776
1.68757
1.66123
)
;
    }
    procBoundary3to7
    {
        type            processor;
        value           nonuniform List<scalar> 8(2.08676 2.03942 1.95866 2.02351 1.76435 1.86502 2.08676 1.98391);
    }
}


// ************************************************************************* //
