/*--------------------------------*- C++ -*----------------------------------*\
  =========                 |
  \\      /  F ield         | OpenFOAM: The Open Source CFD Toolbox
   \\    /   O peration     | Website:  https://openfoam.org
    \\  /    A nd           | Version:  8
     \\/     M anipulation  |
\*---------------------------------------------------------------------------*/
FoamFile
{
    version     2.0;
    format      ascii;
    class       volScalarField;
    location    "1";
    object      T;
}
// * * * * * * * * * * * * * * * * * * * * * * * * * * * * * * * * * * * * * //

dimensions      [0 0 0 1 0 0 0];

internalField   nonuniform List<scalar> 
325
(
1.56869
1.5936
1.6686
1.80049
1.86292
1.83115
1.71338
1.64854
1.6746
1.73709
1.85597
1.9092
1.86305
1.73545
1.72633
1.75013
1.80172
1.91773
1.96074
1.89988
1.77252
1.76928
1.80275
1.86309
1.98545
2.00721
1.93189
1.83045
1.78104
1.83533
1.92324
2.04648
2.0365
1.95067
1.90429
1.77545
1.85748
1.96747
2.08025
2.04524
1.95832
1.97435
1.76846
1.86748
1.98958
1.50033
1.3666
1.27107
1.31469
1.54703
1.72067
1.68528
1.47022
1.34286
1.25503
1.29204
1.55051
1.7191
1.68638
1.4399
1.31769
1.23929
1.27523
1.54897
1.71871
1.68582
1.40811
1.29329
1.22418
1.26327
1.54269
1.71708
1.68555
1.37374
1.26798
1.20997
1.25646
1.53296
1.71384
1.68415
1.34147
1.24557
1.2008
1.2535
1.51772
1.70559
1.6802
1.30964
1.22328
1.19547
1.26284
1.50613
1.69775
1.67526
1.27961
1.21055
1.1948
1.27768
1.5036
1.69475
1.66759
1.25304
1.20208
1.19948
1.2983
1.50731
1.69979
1.66368
1.23353
1.19835
1.20761
1.3215
1.51689
1.71208
1.66405
1.22462
1.20149
1.21836
1.34433
1.53056
1.73156
1.66847
1.22526
1.20307
1.23224
1.36966
1.54924
1.75268
1.67626
1.22887
1.21288
1.25583
1.39862
1.57333
1.77046
1.68603
1.23753
1.22856
1.28417
1.43252
1.60225
1.78055
1.69523
1.2576
1.25283
1.31831
1.47545
1.63483
1.7836
1.70206
1.28827
1.28651
1.35459
1.52544
1.67044
1.78206
1.70473
1.32723
1.33013
1.40139
1.5792
1.70772
1.77882
1.70383
1.37526
1.38272
1.45747
1.63307
1.74517
1.77789
1.70057
1.4297
1.44342
1.5236
1.68821
1.78269
1.78462
1.6982
1.49488
1.51496
1.59692
1.74494
1.8215
1.80443
1.70151
1.2817
2.10001
2.07719
1.92707
1.76178
1.61777
1.42071
1.23534
2.07792
2.06728
1.92703
1.76356
1.6251
1.4296
1.15857
2.01928
2.04275
1.92265
1.76758
1.61978
1.41802
1.15057
1.96968
2.01428
1.91073
1.77092
1.62339
1.41718
1.162
1.93794
1.98703
1.89605
1.77238
1.62747
1.4173
1.17635
1.9241
1.95883
1.88535
1.77416
1.63188
1.41772
1.20278
1.89627
1.94717
1.88293
1.77782
1.63702
1.41973
1.26571
1.85181
1.94934
1.88425
1.78098
1.64255
1.42336
1.35402
1.79239
1.95423
1.8833
1.78242
1.64802
1.42936
1.43946
1.74063
1.94071
1.87669
1.78159
1.65256
1.43747
1.51592
1.68957
1.90902
1.86273
1.77843
1.65608
1.44681
1.58006
1.64603
1.8549
1.83891
1.7717
1.65646
1.4569
1.6289
1.6262
1.76108
1.81116
1.75906
1.65433
1.46745
1.64761
1.60922
1.67354
1.77391
1.7384
1.6481
1.47858
1.64336
1.58264
1.59314
1.73548
1.71346
1.63913
1.49245
1.64426
1.54844
1.52219
1.69696
1.68009
1.62793
1.52135
1.64534
1.521
1.45019
1.64165
1.64519
1.61687
1.57037
1.63335
1.4912
1.38901
1.55797
1.6127
1.60718
1.63095
1.59412
1.45212
1.33978
1.45946
1.57097
1.64375
1.68016
1.54205
1.40467
1.29889
1.36732
1.53238
1.70255
1.68653
)
;

boundaryField
{
    inlet
    {
        type            fixedValue;
        value           nonuniform List<scalar> 0();
    }
    outlet
    {
        type            inletOutlet;
        inletValue      uniform 1;
        value           nonuniform List<scalar> 
46
(
1.7124
1.73466
1.77182
1.82971
1.90364
1.97387
1.68518
1.68632
1.68578
1.6855
1.68403
1.68004
1.67507
1.66735
1.66338
1.66371
1.66807
1.67582
1.68551
1.69459
1.70125
1.70376
1.7028
1.6995
1.69711
1.70043
1.42037
1.42927
1.41768
1.41682
1.41692
1.41733
1.41932
1.42295
1.42896
1.43708
1.44643
1.45654
1.46712
1.47825
1.4921
1.52091
1.56988
1.6305
1.67992
1.68641
)
;
    }
    triangle
    {
        type            zeroGradient;
    }
    top
    {
        type            symmetryPlane;
    }
    bottom
    {
        type            symmetryPlane;
    }
    defaultFaces
    {
        type            empty;
    }
    procBoundary3to2
    {
        type            processor;
        value           nonuniform List<scalar> 
47
(
1.59678
1.68584
1.75883
1.78218
1.76108
1.72365
1.69073
1.6364
1.6155
1.5887
1.56266
1.5354
1.50447
1.47855
1.45168
1.42586
1.4031
1.37803
1.361
1.3502
1.34973
1.35861
1.37585
1.39997
1.42719
1.4574
1.51066
1.00057
1.0006
1.00064
1.00069
1.00105
1.00233
1.00691
1.02156
1.06271
1.14772
1.2603
1.35872
1.43436
1.52176
1.61637
1.66853
1.69551
1.70776
1.68756
1.66123
)
;
    }
    procBoundary3to7
    {
        type            processor;
        value           nonuniform List<scalar> 8(2.08693 2.03792 1.96052 2.0253 1.76436 1.86516 2.08693 1.98514);
    }
}


// ************************************************************************* //
