/*--------------------------------*- C++ -*----------------------------------*\
  =========                 |
  \\      /  F ield         | OpenFOAM: The Open Source CFD Toolbox
   \\    /   O peration     | Website:  https://openfoam.org
    \\  /    A nd           | Version:  7
     \\/     M anipulation  |
\*---------------------------------------------------------------------------*/
FoamFile
{
    version     2.0;
    format      ascii;
    class       volVectorField;
    location    "1";
    object      U;
}
// * * * * * * * * * * * * * * * * * * * * * * * * * * * * * * * * * * * * * //

dimensions      [0 1 -1 0 0 0 0];

internalField   nonuniform List<vector> 
325
(
(2.51426 0.197024 0)
(2.5111 0.16516 0)
(2.41793 0.106057 0)
(2.04456 0.0732831 0)
(1.82476 0.00825214 0)
(1.70318 0.0549155 0)
(1.68524 0.178812 0)
(2.43392 0.180708 0)
(2.48317 0.128447 0)
(2.39615 0.104327 0)
(2.06414 0.0916316 0)
(1.83114 0.0160556 0)
(1.71843 0.0474216 0)
(1.67692 0.160399 0)
(2.2346 0.135921 0)
(2.36377 0.10047 0)
(2.31644 0.0958561 0)
(2.06351 0.106655 0)
(1.82499 0.0244906 0)
(1.72161 0.0435784 0)
(1.66734 0.137299 0)
(1.87629 0.114321 0)
(2.09772 0.0627192 0)
(2.13887 0.0892704 0)
(2.005 0.109954 0)
(1.78102 0.0303951 0)
(1.68962 0.0448891 0)
(1.63865 0.113566 0)
(1.40478 0.0640908 0)
(1.67772 0.0419513 0)
(1.83313 0.0772003 0)
(1.83345 0.109399 0)
(1.66921 0.0352526 0)
(1.59789 0.0428524 0)
(1.56089 0.0998725 0)
(0.887554 0.0382005 0)
(1.15789 0.00547154 0)
(1.39162 0.04215 0)
(1.52578 0.103743 0)
(1.47736 0.0366119 0)
(1.43971 0.0379552 0)
(1.41486 0.0783064 0)
(0.402442 0.00158897 0)
(0.627148 -0.00310999 0)
(0.898921 0.0470775 0)
(2.43034 -0.32132 0)
(2.54219 -0.0944699 0)
(2.62582 0.171885 0)
(2.57909 0.331267 0)
(2.32829 0.638004 0)
(2.18738 0.467446 0)
(2.0522 0.322842 0)
(2.45181 -0.293582 0)
(2.57112 -0.0383514 0)
(2.64353 0.205323 0)
(2.59284 0.316466 0)
(2.30752 0.565823 0)
(2.20443 0.464223 0)
(2.06349 0.326513 0)
(2.48029 -0.257796 0)
(2.58797 -0.00284223 0)
(2.65569 0.224112 0)
(2.61265 0.293165 0)
(2.26587 0.498497 0)
(2.21519 0.458594 0)
(2.07988 0.339905 0)
(2.50699 -0.232352 0)
(2.62612 0.0645031 0)
(2.66987 0.25166 0)
(2.62797 0.266782 0)
(2.23309 0.429678 0)
(2.22536 0.450078 0)
(2.09488 0.348927 0)
(2.53497 -0.199981 0)
(2.64223 0.100257 0)
(2.67559 0.258854 0)
(2.63202 0.230016 0)
(2.25352 0.361452 0)
(2.24196 0.445077 0)
(2.10284 0.357855 0)
(2.56163 -0.157186 0)
(2.67476 0.173576 0)
(2.67883 0.278878 0)
(2.61465 0.197553 0)
(2.28057 0.289893 0)
(2.25388 0.428989 0)
(2.10213 0.364755 0)
(2.57888 -0.118707 0)
(2.68888 0.192897 0)
(2.67483 0.274827 0)
(2.60405 0.152448 0)
(2.31844 0.214277 0)
(2.24958 0.411762 0)
(2.09607 0.373171 0)
(2.59875 -0.0524516 0)
(2.72273 0.249959 0)
(2.67366 0.276604 0)
(2.56129 0.108913 0)
(2.33776 0.145293 0)
(2.22528 0.400962 0)
(2.09332 0.379953 0)
(2.61782 -0.0103769 0)
(2.71956 0.244149 0)
(2.68364 0.274652 0)
(2.51618 0.0709202 0)
(2.32877 0.0838181 0)
(2.18143 0.375886 0)
(2.08523 0.382031 0)
(2.66075 0.0615783 0)
(2.69221 0.267037 0)
(2.68401 0.267682 0)
(2.4777 0.0396149 0)
(2.29509 0.0293369 0)
(2.11838 0.349982 0)
(2.06982 0.387098 0)
(2.67955 0.113378 0)
(2.67921 0.250398 0)
(2.67718 0.258716 0)
(2.4328 0.0163442 0)
(2.24049 -0.00813986 0)
(2.04774 0.312061 0)
(2.04769 0.383075 0)
(2.69222 0.173414 0)
(2.67758 0.281395 0)
(2.66538 0.25282 0)
(2.38878 0.00720973 0)
(2.17626 -0.0329751 0)
(1.96976 0.280229 0)
(2.01747 0.37878 0)
(2.68297 0.201822 0)
(2.67013 0.27852 0)
(2.66362 0.240474 0)
(2.34085 0.00450451 0)
(2.10523 -0.0408828 0)
(1.89274 0.245799 0)
(1.98021 0.369097 0)
(2.66737 0.229195 0)
(2.65545 0.285103 0)
(2.66162 0.2194 0)
(2.28409 0.0141165 0)
(2.03237 -0.043859 0)
(1.82355 0.215176 0)
(1.93734 0.355268 0)
(2.64536 0.245432 0)
(2.63352 0.280881 0)
(2.64094 0.190934 0)
(2.22172 0.0256397 0)
(1.96747 -0.0437928 0)
(1.76993 0.179195 0)
(1.89171 0.335988 0)
(2.62106 0.25839 0)
(2.60432 0.272928 0)
(2.58621 0.18318 0)
(2.15383 0.0378903 0)
(1.91507 -0.0403461 0)
(1.72881 0.147852 0)
(1.84611 0.310781 0)
(2.60212 0.260185 0)
(2.56918 0.259388 0)
(2.51527 0.160654 0)
(2.08831 0.0421297 0)
(1.87361 -0.0336277 0)
(1.70071 0.116241 0)
(1.8019 0.283591 0)
(2.58615 0.263826 0)
(2.53904 0.237663 0)
(2.45561 0.141169 0)
(2.04123 0.0464256 0)
(1.84318 -0.0245271 0)
(1.68347 0.0930564 0)
(1.76162 0.254688 0)
(2.56715 0.246684 0)
(2.5183 0.216239 0)
(2.42463 0.119476 0)
(2.02082 0.0495671 0)
(1.82567 -0.0118467 0)
(1.67986 0.0725606 0)
(1.72673 0.227046 0)
(2.53782 0.235923 0)
(2.51205 0.192196 0)
(2.41918 0.102904 0)
(2.02451 0.0547941 0)
(1.81997 -0.00175186 0)
(1.68791 0.0616865 0)
(1.70044 0.200726 0)
(2.53121 0.0246783 0)
(1.31747 -0.0274641 0)
(1.59487 -0.0126098 0)
(1.83478 -0.000285 0)
(2.08008 0.0115494 0)
(2.21562 0.0213431 0)
(2.34838 0.0297551 0)
(2.60034 0.0914783 0)
(1.36666 -0.0802395 0)
(1.59332 -0.043576 0)
(1.83469 -0.00401754 0)
(2.06601 0.0292307 0)
(2.21243 0.0535288 0)
(2.36378 0.0628267 0)
(2.75971 0.0600957 0)
(1.50762 -0.12561 0)
(1.61158 -0.0635078 0)
(1.83896 -0.00118733 0)
(2.04812 0.0506666 0)
(2.19288 0.0867193 0)
(2.34881 0.104483 0)
(2.8833 -0.0745343 0)
(1.67053 -0.129823 0)
(1.65187 -0.0753762 0)
(1.83566 0.0130213 0)
(2.02507 0.077185 0)
(2.1651 0.120368 0)
(2.33595 0.148978 0)
(2.92972 -0.30289 0)
(1.73421 -0.168596 0)
(1.6757 -0.0720572 0)
(1.82007 0.0294498 0)
(1.99736 0.102969 0)
(2.13791 0.155851 0)
(2.31633 0.186792 0)
(2.89802 -0.528529 0)
(1.72445 -0.190073 0)
(1.6769 -0.053841 0)
(1.80044 0.0494536 0)
(1.97378 0.13101 0)
(2.11558 0.192457 0)
(2.29882 0.225095 0)
(2.83222 -0.690161 0)
(1.69999 -0.193625 0)
(1.67909 -0.0509093 0)
(1.79229 0.0642941 0)
(1.95873 0.156458 0)
(2.09988 0.229067 0)
(2.28474 0.262737 0)
(2.72957 -0.743289 0)
(1.71367 -0.223656 0)
(1.7101 -0.0375223 0)
(1.80544 0.0859131 0)
(1.9551 0.181305 0)
(2.09005 0.264726 0)
(2.27223 0.298233 0)
(2.57355 -0.724722 0)
(1.77449 -0.268248 0)
(1.77341 -0.0267821 0)
(1.83656 0.115195 0)
(1.96178 0.212079 0)
(2.08545 0.302484 0)
(2.26326 0.334395 0)
(2.3999 -0.72414 0)
(1.92099 -0.353681 0)
(1.83953 -0.0187355 0)
(1.86925 0.152238 0)
(1.96763 0.24274 0)
(2.08147 0.340002 0)
(2.25513 0.368063 0)
(2.25647 -0.701606 0)
(2.04142 -0.436792 0)
(1.91742 -0.0178073 0)
(1.91791 0.20143 0)
(1.98401 0.286275 0)
(2.08131 0.384252 0)
(2.24967 0.399719 0)
(2.16857 -0.662102 0)
(2.12612 -0.506802 0)
(2.0205 -0.0366707 0)
(1.96578 0.24964 0)
(1.99426 0.331768 0)
(2.07721 0.427152 0)
(2.24801 0.428349 0)
(2.17966 -0.622892 0)
(2.19259 -0.510363 0)
(2.11009 -0.0512369 0)
(2.02323 0.309186 0)
(2.00899 0.385825 0)
(2.07477 0.477832 0)
(2.24721 0.454025 0)
(2.2072 -0.614297 0)
(2.24839 -0.495586 0)
(2.17645 -0.0553537 0)
(2.05514 0.348928 0)
(2.01979 0.438108 0)
(2.06317 0.517677 0)
(2.23617 0.477239 0)
(2.20798 -0.606386 0)
(2.29278 -0.489019 0)
(2.19762 -0.0475984 0)
(2.09649 0.392091 0)
(2.06597 0.503224 0)
(2.08869 0.573153 0)
(2.23894 0.496978 0)
(2.20726 -0.576167 0)
(2.31418 -0.469307 0)
(2.26056 -0.0325505 0)
(2.15331 0.409478 0)
(2.10652 0.562849 0)
(2.10248 0.609941 0)
(2.22961 0.4864 0)
(2.22783 -0.524774 0)
(2.34267 -0.415283 0)
(2.37151 -0.0197444 0)
(2.24011 0.40562 0)
(2.16174 0.642243 0)
(2.13545 0.653242 0)
(2.19471 0.438638 0)
(2.26142 -0.468318 0)
(2.38673 -0.332976 0)
(2.48269 0.0252603 0)
(2.35686 0.412541 0)
(2.1981 0.693207 0)
(2.15433 0.683849 0)
(2.14243 0.373393 0)
(2.32039 -0.418387 0)
(2.44108 -0.250357 0)
(2.55035 0.0666987 0)
(2.48152 0.375664 0)
(2.25258 0.729375 0)
(2.15523 0.620948 0)
(2.09584 0.3332 0)
(2.38957 -0.365063 0)
(2.50898 -0.153299 0)
(2.60251 0.138276 0)
(2.55074 0.36015 0)
(2.29569 0.706027 0)
(2.16229 0.51458 0)
(2.06858 0.299759 0)
)
;

boundaryField
{
    inlet
    {
        type            fixedValue;
        value           nonuniform 0();
    }
    outlet
    {
        type            inletOutlet;
        inletValue      uniform (3 0 0);
        value           nonuniform List<vector> 
46
(
(1.68524 0.178812 0)
(1.67692 0.160399 0)
(1.66734 0.137299 0)
(1.63865 0.113566 0)
(1.56089 0.0998725 0)
(1.41486 0.0783064 0)
(2.0522 0.322842 0)
(2.06349 0.326513 0)
(2.07988 0.339905 0)
(2.09488 0.348927 0)
(2.10284 0.357855 0)
(2.10213 0.364755 0)
(2.09607 0.373171 0)
(2.09332 0.379953 0)
(2.08523 0.382031 0)
(2.06982 0.387098 0)
(2.04769 0.383075 0)
(2.01747 0.37878 0)
(1.98021 0.369097 0)
(1.93734 0.355268 0)
(1.89171 0.335988 0)
(1.84611 0.310781 0)
(1.8019 0.283591 0)
(1.76162 0.254688 0)
(1.72673 0.227046 0)
(1.70044 0.200726 0)
(2.34838 0.0297551 0)
(2.36378 0.0628267 0)
(2.34881 0.104483 0)
(2.33595 0.148978 0)
(2.31633 0.186792 0)
(2.29882 0.225095 0)
(2.28474 0.262737 0)
(2.27223 0.298233 0)
(2.26326 0.334395 0)
(2.25513 0.368063 0)
(2.24967 0.399719 0)
(2.24801 0.428349 0)
(2.24721 0.454025 0)
(2.23617 0.477239 0)
(2.23894 0.496978 0)
(2.22961 0.4864 0)
(2.19471 0.438638 0)
(2.14243 0.373393 0)
(2.09584 0.3332 0)
(2.06858 0.299759 0)
)
;
    }
    triangle
    {
        type            slip;
    }
    top
    {
        type            symmetryPlane;
    }
    bottom
    {
        type            symmetryPlane;
    }
    defaultFaces
    {
        type            empty;
    }
    procBoundary3to2
    {
        type            processor;
        value           nonuniform List<vector> 
47
(
(2.47105 0.238497 0)
(2.29044 0.215586 0)
(1.92404 0.165168 0)
(1.42635 0.116038 0)
(0.904418 0.0672938 0)
(0.442448 0.0353386 0)
(0.0859049 0.00394183 0)
(2.24869 -0.584818 0)
(2.28443 -0.544822 0)
(2.31299 -0.5112 0)
(2.36087 -0.457086 0)
(2.38708 -0.420883 0)
(2.423 -0.377211 0)
(2.46578 -0.319 0)
(2.48643 -0.280589 0)
(2.52022 -0.219158 0)
(2.54388 -0.158318 0)
(2.55935 -0.111287 0)
(2.58675 -0.0210054 0)
(2.59112 0.0151067 0)
(2.61305 0.124506 0)
(2.61555 0.156783 0)
(2.6237 0.230603 0)
(2.62339 0.249814 0)
(2.61649 0.292796 0)
(2.5916 0.284708 0)
(2.53499 0.300327 0)
(2.99927 -0.00065051 0)
(2.99953 -0.00191881 0)
(2.99915 -0.00275628 0)
(2.99837 -0.00326404 0)
(2.99751 -0.00341995 0)
(2.99753 -0.00357301 0)
(3.00074 -0.00564301 0)
(3.00625 -0.0219116 0)
(3.01179 -0.0757739 0)
(2.97334 -0.19944 0)
(2.83325 -0.369384 0)
(2.64212 -0.522159 0)
(2.45886 -0.631964 0)
(2.31197 -0.679189 0)
(2.21713 -0.688429 0)
(2.16254 -0.681423 0)
(2.14037 -0.659186 0)
(2.14808 -0.682803 0)
(2.15337 -0.667336 0)
(2.20489 -0.627197 0)
)
;
    }
    procBoundary3to7
    {
        type            processor;
        value           nonuniform List<vector> 8((1.13965 0.0868376 0) (1.2347 0.0380368 0) (1.24233 0.0335885 0) (1.22204 0.0620576 0) (0.0328666 -0.003419 0) (0.21011 -0.0198305 0) (1.13965 0.0868376 0) (0.486335 0.00955533 0));
    }
}


// ************************************************************************* //
