/*--------------------------------*- C++ -*----------------------------------*\
  =========                 |
  \\      /  F ield         | OpenFOAM: The Open Source CFD Toolbox
   \\    /   O peration     | Website:  https://openfoam.org
    \\  /    A nd           | Version:  8
     \\/     M anipulation  |
\*---------------------------------------------------------------------------*/
FoamFile
{
    version     2.0;
    format      ascii;
    class       volVectorField;
    location    "1";
    object      U;
}
// * * * * * * * * * * * * * * * * * * * * * * * * * * * * * * * * * * * * * //

dimensions      [0 1 -1 0 0 0 0];

internalField   nonuniform List<vector> 
325
(
(2.51401 0.19606 0)
(2.51158 0.16451 0)
(2.41867 0.105665 0)
(2.04456 0.0746164 0)
(1.82516 0.01051 0)
(1.70345 0.0513717 0)
(1.68498 0.176954 0)
(2.43344 0.179507 0)
(2.48337 0.130077 0)
(2.39727 0.102032 0)
(2.06334 0.0885211 0)
(1.83138 0.0173037 0)
(1.71849 0.0501519 0)
(1.67842 0.154524 0)
(2.23394 0.135067 0)
(2.36352 0.101102 0)
(2.31805 0.0983247 0)
(2.06273 0.103264 0)
(1.82498 0.0229717 0)
(1.72057 0.0459588 0)
(1.66772 0.140299 0)
(1.87492 0.114052 0)
(2.09758 0.0624005 0)
(2.1406 0.0929091 0)
(2.00445 0.110182 0)
(1.78036 0.0292528 0)
(1.68815 0.0435753 0)
(1.63773 0.120021 0)
(1.40266 0.0634703 0)
(1.67795 0.0422233 0)
(1.8355 0.0772559 0)
(1.83375 0.112528 0)
(1.66765 0.0329211 0)
(1.59659 0.0427835 0)
(1.55972 0.0966117 0)
(0.885198 0.0378437 0)
(1.15827 0.00546573 0)
(1.39517 0.0426009 0)
(1.52705 0.104102 0)
(1.47506 0.0367883 0)
(1.43836 0.0376985 0)
(1.41364 0.0734653 0)
(0.40049 0.00104667 0)
(0.627685 -0.00415353 0)
(0.902968 0.0472229 0)
(2.43032 -0.321386 0)
(2.54224 -0.0944427 0)
(2.62582 0.171896 0)
(2.57912 0.331212 0)
(2.32818 0.637912 0)
(2.18725 0.467865 0)
(2.05213 0.322762 0)
(2.45182 -0.293572 0)
(2.57111 -0.0383833 0)
(2.64351 0.205307 0)
(2.59283 0.316407 0)
(2.30748 0.565531 0)
(2.20444 0.464278 0)
(2.06359 0.326687 0)
(2.48024 -0.257848 0)
(2.58798 -0.00287184 0)
(2.6557 0.22413 0)
(2.61262 0.293082 0)
(2.2659 0.49814 0)
(2.21531 0.458905 0)
(2.07997 0.340296 0)
(2.50696 -0.232392 0)
(2.62612 0.0644123 0)
(2.66988 0.251603 0)
(2.62785 0.266746 0)
(2.23319 0.429759 0)
(2.22539 0.45016 0)
(2.09499 0.3491 0)
(2.53494 -0.200046 0)
(2.64226 0.100194 0)
(2.67562 0.25891 0)
(2.63205 0.230104 0)
(2.25363 0.361682 0)
(2.24186 0.445005 0)
(2.10283 0.357855 0)
(2.56164 -0.157188 0)
(2.6748 0.173411 0)
(2.67885 0.278893 0)
(2.61484 0.197793 0)
(2.28037 0.290315 0)
(2.25377 0.428799 0)
(2.10194 0.364442 0)
(2.57882 -0.118731 0)
(2.68899 0.192869 0)
(2.67484 0.274868 0)
(2.60419 0.152806 0)
(2.31847 0.214619 0)
(2.24957 0.411366 0)
(2.09577 0.372778 0)
(2.59868 -0.0524267 0)
(2.72286 0.249958 0)
(2.67362 0.276631 0)
(2.56121 0.108911 0)
(2.33764 0.145548 0)
(2.22525 0.401091 0)
(2.09319 0.379915 0)
(2.61771 -0.0104522 0)
(2.7197 0.24407 0)
(2.68361 0.274652 0)
(2.51627 0.0708003 0)
(2.32867 0.0837189 0)
(2.1814 0.376379 0)
(2.08538 0.382067 0)
(2.66069 0.0614598 0)
(2.69229 0.266915 0)
(2.68416 0.267739 0)
(2.47773 0.0395817 0)
(2.29508 0.0289111 0)
(2.11835 0.350374 0)
(2.06999 0.387466 0)
(2.67957 0.113399 0)
(2.67925 0.25036 0)
(2.6772 0.258785 0)
(2.43276 0.0165832 0)
(2.2406 -0.00831252 0)
(2.04775 0.311788 0)
(2.04771 0.383286 0)
(2.69218 0.173296 0)
(2.67752 0.28126 0)
(2.66529 0.253039 0)
(2.38885 0.00764356 0)
(2.17648 -0.0326477 0)
(1.96986 0.279593 0)
(2.0174 0.378664 0)
(2.68294 0.201714 0)
(2.67005 0.278492 0)
(2.6634 0.240866 0)
(2.34121 0.00452953 0)
(2.10547 -0.0407434 0)
(1.89277 0.246162 0)
(1.9802 0.368744 0)
(2.66731 0.22889 0)
(2.65537 0.284885 0)
(2.66149 0.220001 0)
(2.28463 0.0152503 0)
(2.03252 -0.0442381 0)
(1.82372 0.215238 0)
(1.93735 0.35523 0)
(2.64531 0.245219 0)
(2.63346 0.280758 0)
(2.64125 0.191428 0)
(2.22166 0.026681 0)
(1.96743 -0.0437905 0)
(1.76968 0.179417 0)
(1.8917 0.336356 0)
(2.62101 0.257949 0)
(2.60432 0.272661 0)
(2.58673 0.182991 0)
(2.15384 0.0391051 0)
(1.91487 -0.0396109 0)
(1.72868 0.146652 0)
(1.84605 0.310908 0)
(2.60202 0.259935 0)
(2.56924 0.259387 0)
(2.51566 0.160003 0)
(2.08857 0.0400718 0)
(1.87344 -0.0333414 0)
(1.70071 0.116345 0)
(1.8019 0.28287 0)
(2.58606 0.263507 0)
(2.5392 0.237958 0)
(2.45586 0.13993 0)
(2.04141 0.0440142 0)
(1.84324 -0.0253808 0)
(1.68408 0.0947228 0)
(1.76197 0.254482 0)
(2.56706 0.246384 0)
(2.51836 0.216718 0)
(2.42496 0.119654 0)
(2.02061 0.0494837 0)
(1.82573 -0.0131312 0)
(1.68046 0.0739042 0)
(1.72757 0.228415 0)
(2.53768 0.23547 0)
(2.51208 0.191647 0)
(2.41964 0.105383 0)
(2.02435 0.0586324 0)
(1.82014 -0.000936905 0)
(1.68832 0.0586379 0)
(1.70083 0.202875 0)
(2.53126 0.024684 0)
(1.31748 -0.0274629 0)
(1.59486 -0.0126111 0)
(1.83476 -0.000286514 0)
(2.08007 0.0115481 0)
(2.21562 0.0213419 0)
(2.34838 0.0297545 0)
(2.60039 0.0914948 0)
(1.36667 -0.080234 0)
(1.59331 -0.0435825 0)
(1.83467 -0.00402357 0)
(2.066 0.0292266 0)
(2.21243 0.0535268 0)
(2.36379 0.0628254 0)
(2.75975 0.0601155 0)
(1.50764 -0.125603 0)
(1.61158 -0.0635143 0)
(1.83895 -0.00119627 0)
(2.04811 0.0506618 0)
(2.19288 0.0867159 0)
(2.34881 0.104481 0)
(2.88333 -0.0745125 0)
(1.67056 -0.129817 0)
(1.65187 -0.0753826 0)
(1.83565 0.013011 0)
(2.02506 0.0771792 0)
(2.1651 0.120366 0)
(2.33594 0.148976 0)
(2.92973 -0.302852 0)
(1.73425 -0.168598 0)
(1.67571 -0.0720633 0)
(1.82007 0.02944 0)
(1.99736 0.102963 0)
(2.1379 0.155846 0)
(2.31633 0.186787 0)
(2.89804 -0.528493 0)
(1.72448 -0.190083 0)
(1.67691 -0.0538472 0)
(1.80044 0.0494449 0)
(1.97377 0.131004 0)
(2.11558 0.192455 0)
(2.29882 0.225096 0)
(2.83225 -0.690136 0)
(1.70002 -0.193635 0)
(1.6791 -0.0509169 0)
(1.79228 0.0642857 0)
(1.95873 0.156455 0)
(2.09988 0.229062 0)
(2.28474 0.262731 0)
(2.72961 -0.743302 0)
(1.71369 -0.223671 0)
(1.71011 -0.0375334 0)
(1.80544 0.0859064 0)
(1.9551 0.1813 0)
(2.09004 0.264724 0)
(2.27223 0.298239 0)
(2.5736 -0.724731 0)
(1.77451 -0.268251 0)
(1.77341 -0.0267929 0)
(1.83656 0.115189 0)
(1.96178 0.212077 0)
(2.08545 0.302484 0)
(2.26325 0.334395 0)
(2.39994 -0.724137 0)
(1.921 -0.353687 0)
(1.83954 -0.0187483 0)
(1.86926 0.152232 0)
(1.96764 0.242741 0)
(2.08147 0.340001 0)
(2.25513 0.368071 0)
(2.25649 -0.701608 0)
(2.04143 -0.436798 0)
(1.91743 -0.0178187 0)
(1.91792 0.201425 0)
(1.98401 0.286275 0)
(2.08131 0.384254 0)
(2.24967 0.399722 0)
(2.16859 -0.662107 0)
(2.12613 -0.506812 0)
(2.02051 -0.0366812 0)
(1.96579 0.249637 0)
(1.99426 0.331769 0)
(2.07722 0.427152 0)
(2.24802 0.428349 0)
(2.17968 -0.622898 0)
(2.1926 -0.510378 0)
(2.1101 -0.0512516 0)
(2.02324 0.309186 0)
(2.00899 0.385826 0)
(2.07477 0.477831 0)
(2.24721 0.454015 0)
(2.20721 -0.614306 0)
(2.24841 -0.495606 0)
(2.17646 -0.0553651 0)
(2.05515 0.348927 0)
(2.01979 0.438109 0)
(2.06317 0.517674 0)
(2.23616 0.477228 0)
(2.20799 -0.606394 0)
(2.29279 -0.489032 0)
(2.19763 -0.0476025 0)
(2.0965 0.392092 0)
(2.06598 0.503228 0)
(2.08869 0.573149 0)
(2.23894 0.496963 0)
(2.20727 -0.576181 0)
(2.31418 -0.469316 0)
(2.26058 -0.0325673 0)
(2.15333 0.409467 0)
(2.10652 0.562833 0)
(2.10248 0.609939 0)
(2.22961 0.48642 0)
(2.22782 -0.524797 0)
(2.34265 -0.4153 0)
(2.37152 -0.0197405 0)
(2.24012 0.405618 0)
(2.16176 0.642228 0)
(2.13546 0.653237 0)
(2.19471 0.438692 0)
(2.26144 -0.468305 0)
(2.38673 -0.332978 0)
(2.48268 0.0252274 0)
(2.35686 0.412503 0)
(2.19808 0.693131 0)
(2.15433 0.683858 0)
(2.14245 0.373447 0)
(2.32038 -0.41841 0)
(2.44108 -0.250366 0)
(2.55036 0.0667079 0)
(2.48153 0.375651 0)
(2.25249 0.729434 0)
(2.15528 0.621054 0)
(2.09584 0.333028 0)
(2.3896 -0.365031 0)
(2.50899 -0.153346 0)
(2.60249 0.138226 0)
(2.55078 0.360093 0)
(2.29583 0.706185 0)
(2.16221 0.514033 0)
(2.0685 0.299459 0)
)
;

boundaryField
{
    inlet
    {
        type            fixedValue;
        value           nonuniform List<vector> 0();
    }
    outlet
    {
        type            inletOutlet;
        inletValue      uniform (3 0 0);
        value           nonuniform List<vector> 
46
(
(1.68498 0.176954 0)
(1.67842 0.154524 0)
(1.66772 0.140299 0)
(1.63773 0.120021 0)
(1.55972 0.0966117 0)
(1.41364 0.0734653 0)
(2.05213 0.322762 0)
(2.06359 0.326687 0)
(2.07997 0.340296 0)
(2.09499 0.3491 0)
(2.10283 0.357855 0)
(2.10194 0.364442 0)
(2.09577 0.372778 0)
(2.09319 0.379915 0)
(2.08538 0.382067 0)
(2.06999 0.387466 0)
(2.04771 0.383286 0)
(2.0174 0.378664 0)
(1.9802 0.368744 0)
(1.93735 0.35523 0)
(1.8917 0.336356 0)
(1.84605 0.310908 0)
(1.8019 0.28287 0)
(1.76197 0.254482 0)
(1.72757 0.228415 0)
(1.70083 0.202875 0)
(2.34838 0.0297545 0)
(2.36379 0.0628254 0)
(2.34881 0.104481 0)
(2.33594 0.148976 0)
(2.31633 0.186787 0)
(2.29882 0.225096 0)
(2.28474 0.262731 0)
(2.27223 0.298239 0)
(2.26325 0.334395 0)
(2.25513 0.368071 0)
(2.24967 0.399722 0)
(2.24802 0.428349 0)
(2.24721 0.454015 0)
(2.23616 0.477228 0)
(2.23894 0.496963 0)
(2.22961 0.48642 0)
(2.19471 0.438692 0)
(2.14245 0.373447 0)
(2.09584 0.333028 0)
(2.0685 0.299459 0)
)
;
    }
    triangle
    {
        type            slip;
    }
    top
    {
        type            symmetryPlane;
    }
    bottom
    {
        type            symmetryPlane;
    }
    defaultFaces
    {
        type            empty;
    }
    procBoundary3to2
    {
        type            processor;
        value           nonuniform List<vector> 
47
(
(2.47075 0.238442 0)
(2.28999 0.215437 0)
(1.92329 0.165146 0)
(1.42553 0.115764 0)
(0.903586 0.0674291 0)
(0.441681 0.0354576 0)
(0.0852692 0.00425068 0)
(2.24871 -0.584814 0)
(2.28443 -0.544821 0)
(2.31297 -0.511203 0)
(2.36089 -0.457051 0)
(2.38706 -0.420938 0)
(2.42307 -0.377218 0)
(2.46575 -0.319123 0)
(2.48646 -0.280522 0)
(2.52014 -0.219196 0)
(2.54386 -0.158233 0)
(2.55928 -0.111418 0)
(2.58678 -0.0209311 0)
(2.59112 0.0150629 0)
(2.61308 0.124653 0)
(2.61551 0.156729 0)
(2.62368 0.230785 0)
(2.62332 0.249677 0)
(2.61637 0.292595 0)
(2.59144 0.284429 0)
(2.5348 0.300139 0)
(2.99927 -0.00065046 0)
(2.99953 -0.00191854 0)
(2.99915 -0.00275566 0)
(2.99837 -0.00326287 0)
(2.99751 -0.00341868 0)
(2.99753 -0.00357119 0)
(3.00074 -0.0056389 0)
(3.00626 -0.0218996 0)
(3.01181 -0.0757485 0)
(2.97338 -0.199402 0)
(2.83331 -0.36935 0)
(2.64217 -0.522135 0)
(2.45891 -0.631953 0)
(2.31201 -0.679193 0)
(2.21715 -0.688437 0)
(2.16255 -0.681434 0)
(2.14038 -0.659195 0)
(2.1481 -0.68281 0)
(2.15338 -0.667339 0)
(2.20486 -0.627215 0)
)
;
    }
    procBoundary3to7
    {
        type            processor;
        value           nonuniform List<vector> 8((1.14096 0.0894749 0) (1.23354 0.038103 0) (1.24154 0.0322912 0) (1.22207 0.0653714 0) (0.0317104 -0.00312784 0) (0.210514 -0.0211412 0) (1.14096 0.0894749 0) (0.489028 0.0108921 0));
    }
}


// ************************************************************************* //
