/*--------------------------------*- C++ -*----------------------------------*\
  =========                 |
  \\      /  F ield         | OpenFOAM: The Open Source CFD Toolbox
   \\    /   O peration     | Website:  https://openfoam.org
    \\  /    A nd           | Version:  7
     \\/     M anipulation  |
\*---------------------------------------------------------------------------*/
FoamFile
{
    version     2.0;
    format      ascii;
    class       volVectorField;
    location    "0.3";
    object      U;
}
// * * * * * * * * * * * * * * * * * * * * * * * * * * * * * * * * * * * * * //

dimensions      [0 1 -1 0 0 0 0];

internalField   nonuniform List<vector> 
3225
(
(0.261254 0.102669 0)
(0.291652 0.100254 0)
(0.319871 0.110548 0)
(0.345628 0.115556 0)
(0.366171 0.122113 0)
(0.38366 0.126632 0)
(0.398193 0.131693 0)
(0.410952 0.135939 0)
(0.422112 0.140237 0)
(0.432238 0.143984 0)
(0.441433 0.14751 0)
(0.449971 0.150608 0)
(0.45794 0.153428 0)
(0.46547 0.155924 0)
(0.472617 0.15818 0)
(0.479443 0.160209 0)
(0.485991 0.162068 0)
(0.492308 0.163777 0)
(0.498416 0.165341 0)
(0.504289 0.16674 0)
(0.510008 0.167947 0)
(0.515746 0.169107 0)
(0.521356 0.170407 0)
(0.526845 0.171686 0)
(0.532198 0.172923 0)
(0.537397 0.174159 0)
(0.542434 0.175397 0)
(0.547292 0.17665 0)
(0.551975 0.177908 0)
(0.556571 0.179057 0)
(0.561105 0.180082 0)
(0.565512 0.181101 0)
(0.569786 0.182127 0)
(0.573927 0.18315 0)
(0.577938 0.184168 0)
(0.58182 0.185181 0)
(0.585577 0.18619 0)
(0.589214 0.187193 0)
(0.592736 0.18819 0)
(0.596151 0.189177 0)
(0.599469 0.19015 0)
(0.602708 0.191099 0)
(0.605889 0.192012 0)
(0.609038 0.192874 0)
(0.612187 0.193667 0)
(0.615364 0.194373 0)
(0.618588 0.194984 0)
(0.621855 0.195498 0)
(0.625139 0.195931 0)
(0.628395 0.196305 0)
(0.631588 0.196645 0)
(0.6347 0.196905 0)
(0.637729 0.197056 0)
(0.640704 0.197162 0)
(0.643692 0.197297 0)
(0.646668 0.197409 0)
(0.649691 0.197477 0)
(0.652771 0.197499 0)
(0.655898 0.197442 0)
(0.659078 0.197326 0)
(0.662319 0.197153 0)
(0.665636 0.19688 0)
(0.669029 0.196766 0)
(0.672278 0.196883 0)
(0.674999 0.197223 0)
(0.676899 0.198023 0)
(0.678712 0.198694 0)
(0.680723 0.199772 0)
(0.682171 0.201428 0)
(0.682512 0.203426 0)
(0.681917 0.205763 0)
(0.680482 0.20858 0)
(0.678461 0.21123 0)
(0.677595 0.214082 0)
(0.67863 0.215488 0)
(0.679867 0.216369 0)
(0.681024 0.216865 0)
(0.682411 0.21703 0)
(0.684323 0.216804 0)
(0.686742 0.216087 0)
(0.68956 0.215651 0)
(0.692507 0.215755 0)
(0.694924 0.215847 0)
(0.697034 0.216388 0)
(0.698907 0.218042 0)
(0.700786 0.219604 0)
(0.702364 0.219477 0)
(0.703583 0.216668 0)
(0.705527 0.214389 0)
(0.708031 0.213825 0)
(0.711795 0.214534 0)
(0.716 0.215311 0)
(0.718379 0.212669 0)
(0.72277 0.20988 0)
(0.727064 0.207744 0)
(0.731447 0.205753 0)
(0.736408 0.204132 0)
(0.741513 0.201956 0)
(0.745819 0.198721 0)
(0.753181 0.205694 0)
(0.743217 0.215984 0)
(0.731733 0.21983 0)
(0.726933 0.218132 0)
(0.727075 0.213906 0)
(0.731471 0.208495 0)
(0.739932 0.201735 0)
(0.750246 0.192356 0)
(0.762832 0.182266 0)
(0.780319 0.175615 0)
(0.800057 0.171746 0)
(0.826441 0.171456 0)
(0.868211 0.171039 0)
(0.935519 0.158009 0)
(1.01413 0.118275 0)
(1.06503 0.0686946 0)
(1.0848 0.036358 0)
(1.09218 0.0201133 0)
(1.09563 0.0116271 0)
(1.09738 0.00672544 0)
(1.11025 -1.28393e-15 0)
(1.10967 5.84149e-16 0)
(1.1091 7.71578e-16 0)
(1.10851 -4.70568e-15 0)
(1.10792 5.45087e-15 0)
(1.10733 -4.61935e-15 0)
(1.10673 4.61201e-14 0)
(1.10613 -5.53685e-13 0)
(1.10552 6.68293e-12 0)
(1.1049 -7.44593e-11 0)
(1.10428 7.51445e-10 0)
(1.10365 -6.75929e-09 0)
(1.103 5.28361e-08 0)
(1.10232 -3.38577e-07 0)
(1.1016 1.49537e-06 0)
(1.10082 -1.64975e-06 0)
(1.10044 -3.90502e-05 0)
(0.95185 0.00248892 0)
(0.654372 0.00428208 0)
(0.570433 0.00596308 0)
(0.525715 0.00761075 0)
(0.456298 0.0188553 0)
(0.315083 0.0306982 0)
(1.11194 5.65462e-16 0)
(1.11138 3.06669e-15 0)
(1.11082 -2.36408e-16 0)
(1.11025 -1.06265e-15 0)
(1.10967 9.62323e-16 0)
(1.1091 5.53559e-16 0)
(1.10851 -4.40933e-15 0)
(1.10792 4.97854e-15 0)
(1.10733 -7.7429e-15 0)
(1.10673 7.68065e-14 0)
(1.10613 -9.35372e-13 0)
(1.10552 1.10729e-11 0)
(1.1049 -1.21031e-10 0)
(1.10428 1.19874e-09 0)
(1.10365 -1.0494e-08 0)
(1.103 7.89452e-08 0)
(1.10232 -4.87367e-07 0)
(1.1016 1.90277e-06 0)
(1.10083 6.41593e-07 0)
(1.10043 -6.06465e-05 0)
(0.952571 0.00421481 0)
(0.654911 0.00717943 0)
(0.570868 0.010051 0)
(0.525524 0.0126441 0)
(0.461395 0.0295646 0)
(0.337458 0.0453609 0)
(1.11194 1.70034e-16 0)
(1.11138 3.42562e-15 0)
(1.11082 -1.44808e-16 0)
(1.11025 -1.55655e-15 0)
(1.10967 1.37437e-15 0)
(1.1091 -1.21599e-16 0)
(1.10851 -3.05941e-15 0)
(1.10792 4.70885e-15 0)
(1.10733 -9.2141e-15 0)
(1.10673 9.80093e-14 0)
(1.10613 -1.19269e-12 0)
(1.10552 1.40202e-11 0)
(1.1049 -1.52038e-10 0)
(1.10428 1.49827e-09 0)
(1.10365 -1.31133e-08 0)
(1.103 9.97331e-08 0)
(1.10232 -6.15775e-07 0)
(1.1016 2.43885e-06 0)
(1.10084 5.43018e-07 0)
(1.10041 -8.08491e-05 0)
(0.953649 0.00588461 0)
(0.655813 0.00999666 0)
(0.571868 0.014138 0)
(0.525754 0.0176026 0)
(0.466486 0.0391159 0)
(0.357749 0.0602428 0)
(1.11194 5.69446e-16 0)
(1.11138 3.80644e-15 0)
(1.11082 -2.27615e-16 0)
(1.11025 -1.48384e-15 0)
(1.10967 1.35808e-15 0)
(1.1091 -2.83225e-16 0)
(1.10851 -1.27451e-15 0)
(1.10792 4.14929e-15 0)
(1.10733 -1.12366e-14 0)
(1.10673 1.16199e-13 0)
(1.10613 -1.41084e-12 0)
(1.10552 1.63204e-11 0)
(1.1049 -1.73644e-10 0)
(1.10428 1.66889e-09 0)
(1.10365 -1.43289e-08 0)
(1.103 1.05391e-07 0)
(1.10232 -5.97714e-07 0)
(1.1016 2.17006e-06 0)
(1.10085 3.36333e-06 0)
(1.10039 -9.77335e-05 0)
(0.955007 0.00751903 0)
(0.656784 0.0127702 0)
(0.572925 0.0182961 0)
(0.525944 0.0225013 0)
(0.471314 0.0475247 0)
(0.376715 0.0712363 0)
(1.11194 -2.93525e-16 0)
(1.11138 3.82614e-15 0)
(1.11082 -5.46142e-16 0)
(1.11025 -1.18498e-15 0)
(1.10967 1.83879e-15 0)
(1.1091 -1.92817e-16 0)
(1.10851 7.3226e-17 0)
(1.10792 3.47873e-15 0)
(1.10733 -1.20101e-14 0)
(1.10673 1.22778e-13 0)
(1.10613 -1.45797e-12 0)
(1.10552 1.65074e-11 0)
(1.1049 -1.72462e-10 0)
(1.10428 1.64157e-09 0)
(1.10365 -1.3924e-08 0)
(1.103 1.00049e-07 0)
(1.10232 -5.75657e-07 0)
(1.10159 1.85906e-06 0)
(1.10086 5.98255e-06 0)
(1.10037 -0.00011206 0)
(0.95669 0.00911293 0)
(0.657908 0.015479 0)
(0.574138 0.0224809 0)
(0.526405 0.027342 0)
(0.4759 0.0549182 0)
(0.392427 0.0816061 0)
(1.11194 -1.00269e-15 0)
(1.11138 3.60093e-15 0)
(1.11082 -7.35288e-16 0)
(1.11025 -1.06352e-15 0)
(1.10967 2.45036e-15 0)
(1.1091 -2.64675e-16 0)
(1.10851 4.82498e-16 0)
(1.10792 3.02432e-15 0)
(1.10733 -1.14976e-14 0)
(1.10673 1.14475e-13 0)
(1.10613 -1.34652e-12 0)
(1.10552 1.50703e-11 0)
(1.1049 -1.54148e-10 0)
(1.10428 1.42458e-09 0)
(1.10365 -1.16024e-08 0)
(1.103 8.12857e-08 0)
(1.10232 -4.37197e-07 0)
(1.10159 1.04232e-06 0)
(1.10086 9.54951e-06 0)
(1.10035 -0.0001221 0)
(0.958702 0.010662 0)
(0.659182 0.0181324 0)
(0.575454 0.0266899 0)
(0.527145 0.0321161 0)
(0.480179 0.0615045 0)
(0.406334 0.0898998 0)
(1.11194 -6.02306e-16 0)
(1.11138 3.37199e-15 0)
(1.11082 -1.18084e-15 0)
(1.11025 -1.47003e-15 0)
(1.10967 2.77364e-15 0)
(1.1091 1.58828e-16 0)
(1.10851 1.08366e-15 0)
(1.10792 2.27718e-15 0)
(1.10733 -1.00806e-14 0)
(1.10673 9.66992e-14 0)
(1.10613 -1.13635e-12 0)
(1.10552 1.2656e-11 0)
(1.1049 -1.29234e-10 0)
(1.10428 1.18199e-09 0)
(1.10365 -9.40318e-09 0)
(1.103 6.1879e-08 0)
(1.10232 -2.8667e-07 0)
(1.10159 1.58353e-07 0)
(1.10087 1.28541e-05 0)
(1.10032 -0.000127415 0)
(0.96104 0.0121597 0)
(0.660613 0.0207334 0)
(0.576898 0.0308936 0)
(0.528228 0.0368162 0)
(0.484241 0.0673948 0)
(0.418117 0.0975781 0)
(1.11194 2.6519e-16 0)
(1.11138 2.56769e-15 0)
(1.11082 -1.45129e-15 0)
(1.11025 -1.12752e-15 0)
(1.10967 3.42418e-15 0)
(1.1091 1.65617e-16 0)
(1.10851 1.51339e-15 0)
(1.10792 7.53408e-16 0)
(1.10733 -8.21476e-15 0)
(1.10673 7.42229e-14 0)
(1.10613 -8.54629e-13 0)
(1.10552 9.31094e-12 0)
(1.1049 -9.15276e-11 0)
(1.10428 7.99463e-10 0)
(1.10365 -5.98925e-09 0)
(1.103 3.51954e-08 0)
(1.10232 -1.09624e-07 0)
(1.10159 -7.48061e-07 0)
(1.10087 1.54703e-05 0)
(1.1003 -0.000127114 0)
(0.963698 0.0135992 0)
(0.662208 0.0232853 0)
(0.578456 0.0350728 0)
(0.529645 0.0414429 0)
(0.488058 0.0727585 0)
(0.42858 0.104096 0)
(1.11194 3.6194e-16 0)
(1.11138 1.03509e-15 0)
(1.11082 -1.36217e-15 0)
(1.11025 -9.0923e-16 0)
(1.10967 3.5334e-15 0)
(1.1091 -1.04522e-16 0)
(1.10851 2.06322e-15 0)
(1.10792 -9.72888e-17 0)
(1.10733 -5.21227e-15 0)
(1.10673 5.06558e-14 0)
(1.10613 -5.59929e-13 0)
(1.10552 5.89216e-12 0)
(1.1049 -5.48686e-11 0)
(1.10428 4.40776e-10 0)
(1.10365 -2.83556e-09 0)
(1.103 1.09311e-08 0)
(1.10232 4.51128e-08 0)
(1.10159 -1.46433e-06 0)
(1.10088 1.67603e-05 0)
(1.10029 -0.00012116 0)
(0.966669 0.0149735 0)
(0.663972 0.0257911 0)
(0.580127 0.0392024 0)
(0.531385 0.0459975 0)
(0.491715 0.077681 0)
(0.437702 0.11006 0)
(1.11194 4.41881e-16 0)
(1.11138 -2.81918e-16 0)
(1.11082 -1.91814e-15 0)
(1.11025 3.46778e-17 0)
(1.10967 2.70973e-15 0)
(1.1091 5.87236e-17 0)
(1.10851 2.71547e-15 0)
(1.10792 -9.25416e-16 0)
(1.10733 -2.33602e-15 0)
(1.10673 2.38078e-14 0)
(1.10613 -2.54486e-13 0)
(1.10552 2.45512e-12 0)
(1.1049 -1.92066e-11 0)
(1.10428 1.04874e-10 0)
(1.10365 -4.55991e-12 0)
(1.103 -9.84674e-09 0)
(1.10232 1.68972e-07 0)
(1.10159 -1.93683e-06 0)
(1.10088 1.65588e-05 0)
(1.10027 -0.000110435 0)
(0.969944 0.0162751 0)
(0.665914 0.0282528 0)
(0.581904 0.0432619 0)
(0.533423 0.0504849 0)
(0.495249 0.0822723 0)
(0.445924 0.115289 0)
(1.11194 7.94839e-16 0)
(1.11138 -5.90741e-16 0)
(1.11082 -2.45932e-15 0)
(1.11025 9.53384e-16 0)
(1.10967 1.99531e-15 0)
(1.1091 -2.49195e-16 0)
(1.10851 2.5667e-15 0)
(1.10792 -2.16536e-15 0)
(1.10733 -2.27121e-16 0)
(1.10673 3.26153e-15 0)
(1.10613 -2.07528e-14 0)
(1.10552 -8.69618e-14 0)
(1.1049 6.11209e-12 0)
(1.10428 -1.21418e-10 0)
(1.10365 1.75911e-09 0)
(1.103 -2.11729e-08 0)
(1.10232 2.21039e-07 0)
(1.10159 -2.0144e-06 0)
(1.10088 1.51713e-05 0)
(1.10026 -9.66864e-05 0)
(0.973512 0.0174959 0)
(0.668045 0.0306725 0)
(0.583783 0.0472321 0)
(0.535739 0.0549058 0)
(0.498768 0.086584 0)
(0.453372 0.120034 0)
(1.11194 1.22507e-15 0)
(1.11138 -1.06622e-15 0)
(1.11082 -2.62375e-15 0)
(1.11025 1.1762e-15 0)
(1.10967 1.99658e-15 0)
(1.1091 7.92715e-17 0)
(1.10851 2.8215e-15 0)
(1.10792 -2.21422e-15 0)
(1.10733 1.05002e-15 0)
(1.10673 -6.43869e-15 0)
(1.10613 8.31742e-14 0)
(1.10552 -1.08705e-12 0)
(1.1049 1.45601e-11 0)
(1.10428 -1.80233e-10 0)
(1.10365 2.05703e-09 0)
(1.103 -2.16869e-08 0)
(1.10232 2.08556e-07 0)
(1.10159 -1.79318e-06 0)
(1.10088 1.29918e-05 0)
(1.10025 -8.16194e-05 0)
(0.977363 0.0186272 0)
(0.67038 0.0330514 0)
(0.585759 0.0510973 0)
(0.538303 0.0592577 0)
(0.50233 0.0906747 0)
(0.460309 0.124262 0)
(1.11194 1.75727e-15 0)
(1.11138 -1.79203e-15 0)
(1.11082 -2.57357e-15 0)
(1.11025 1.54542e-15 0)
(1.10967 1.62577e-15 0)
(1.1091 1.22481e-16 0)
(1.10851 3.09861e-15 0)
(1.10792 -1.98423e-15 0)
(1.10733 1.74931e-15 0)
(1.10673 -8.63909e-15 0)
(1.10613 8.97686e-14 0)
(1.10552 -1.11443e-12 0)
(1.1049 1.42195e-11 0)
(1.10428 -1.69869e-10 0)
(1.10365 1.87437e-09 0)
(1.103 -1.90039e-08 0)
(1.10232 1.75788e-07 0)
(1.10159 -1.45502e-06 0)
(1.10088 1.02537e-05 0)
(1.10024 -6.56312e-05 0)
(0.981486 0.0196603 0)
(0.672937 0.0353906 0)
(0.587827 0.0548452 0)
(0.541087 0.0635344 0)
(0.505992 0.0945717 0)
(0.466851 0.128097 0)
(1.11194 2.0416e-15 0)
(1.11138 -2.75328e-15 0)
(1.11082 -2.50671e-15 0)
(1.11025 1.89072e-15 0)
(1.10967 1.74391e-15 0)
(1.1091 -1.35353e-16 0)
(1.10851 2.97379e-15 0)
(1.10792 -2.01824e-15 0)
(1.10733 1.17581e-15 0)
(1.10673 -8.30941e-15 0)
(1.10613 7.58816e-14 0)
(1.10552 -9.30417e-13 0)
(1.1049 1.17217e-11 0)
(1.10428 -1.38815e-10 0)
(1.10365 1.52531e-09 0)
(1.103 -1.53656e-08 0)
(1.10232 1.40591e-07 0)
(1.10159 -1.14312e-06 0)
(1.10088 7.80349e-06 0)
(1.10024 -4.88685e-05 0)
(0.985866 0.0205861 0)
(0.675734 0.0376903 0)
(0.589978 0.0584671 0)
(0.544054 0.067728 0)
(0.509766 0.0983046 0)
(0.473124 0.131559 0)
(1.11194 1.8222e-15 0)
(1.11138 -3.70381e-15 0)
(1.11082 -2.32074e-15 0)
(1.11025 2.10438e-15 0)
(1.10967 2.01923e-15 0)
(1.1091 -6.66015e-16 0)
(1.10851 2.86757e-15 0)
(1.10792 -1.65745e-15 0)
(1.10733 1.56292e-16 0)
(1.10673 -6.90423e-15 0)
(1.10613 5.64912e-14 0)
(1.10552 -6.76075e-13 0)
(1.1049 8.47136e-12 0)
(1.10428 -9.95907e-11 0)
(1.10365 1.08464e-09 0)
(1.103 -1.0919e-08 0)
(1.10232 1.0027e-07 0)
(1.10159 -8.15693e-07 0)
(1.10088 5.49645e-06 0)
(1.10023 -3.39931e-05 0)
(0.990489 0.021395 0)
(0.678788 0.0399505 0)
(0.592205 0.0619578 0)
(0.547169 0.0718295 0)
(0.513657 0.101888 0)
(0.479185 0.134718 0)
(1.11194 1.77577e-15 0)
(1.11138 -3.98238e-15 0)
(1.11082 -2.72928e-15 0)
(1.11025 2.01886e-15 0)
(1.10967 1.7176e-15 0)
(1.1091 -1.60251e-15 0)
(1.10851 2.61477e-15 0)
(1.10792 -6.55455e-16 0)
(1.10733 -5.98862e-16 0)
(1.10673 -4.5342e-15 0)
(1.10613 3.15185e-14 0)
(1.10552 -3.56586e-13 0)
(1.1049 4.50416e-12 0)
(1.10428 -5.37108e-11 0)
(1.10365 5.96109e-10 0)
(1.103 -6.13338e-09 0)
(1.10232 5.77532e-08 0)
(1.10159 -4.82107e-07 0)
(1.10088 3.28859e-06 0)
(1.10023 -1.99434e-05 0)
(0.995336 0.0220774 0)
(0.682117 0.0421705 0)
(0.594495 0.0653157 0)
(0.550394 0.0758301 0)
(0.517652 0.105335 0)
(0.485081 0.137606 0)
(1.11194 1.50174e-15 0)
(1.11138 -4.63183e-15 0)
(1.11082 -3.23109e-15 0)
(1.11025 2.23036e-15 0)
(1.10967 1.4091e-15 0)
(1.1091 -1.93989e-15 0)
(1.10851 2.3273e-15 0)
(1.10792 7.45484e-17 0)
(1.10733 -1.11776e-15 0)
(1.10673 -2.34434e-15 0)
(1.10613 1.16852e-14 0)
(1.10552 -1.04034e-13 0)
(1.1049 1.34336e-12 0)
(1.10428 -1.67321e-11 0)
(1.10365 1.9438e-10 0)
(1.103 -2.09673e-09 0)
(1.10232 2.07048e-08 0)
(1.10159 -1.80087e-07 0)
(1.10088 1.24983e-06 0)
(1.10023 -7.24542e-06 0)
(1.00039 0.0226252 0)
(0.68574 0.0443494 0)
(0.596837 0.0685421 0)
(0.55369 0.0797211 0)
(0.521737 0.108651 0)
(0.49084 0.140262 0)
(1.11194 1.10089e-15 0)
(1.11138 -4.82628e-15 0)
(1.11082 -3.15219e-15 0)
(1.11025 2.29975e-15 0)
(1.10967 1.0161e-15 0)
(1.1091 -2.28822e-15 0)
(1.10851 1.92303e-15 0)
(1.10792 1.58306e-15 0)
(1.10733 -2.30016e-15 0)
(1.10673 -2.59109e-16 0)
(1.10613 3.12111e-15 0)
(1.10552 -1.06979e-14 0)
(1.1049 1.36677e-13 0)
(1.10428 -1.87251e-12 0)
(1.10365 2.36099e-11 0)
(1.103 -2.74917e-10 0)
(1.10232 2.90583e-09 0)
(1.10159 -2.654e-08 0)
(1.10088 1.85236e-07 0)
(1.10023 -8.55164e-07 0)
(1.00561 0.0230325 0)
(0.689669 0.0464868 0)
(0.59922 0.0716411 0)
(0.557024 0.0834946 0)
(0.525892 0.111841 0)
(0.496487 0.142708 0)
(1.11194 1.1134e-15 0)
(1.11138 -4.52836e-15 0)
(1.11082 -4.01994e-15 0)
(1.11025 1.38714e-15 0)
(1.10967 7.60416e-16 0)
(1.1091 -2.88768e-15 0)
(1.10851 2.06703e-15 0)
(1.10792 2.96535e-15 0)
(1.10733 -4.25756e-15 0)
(1.10673 1.35355e-15 0)
(1.10613 7.50812e-16 0)
(1.10552 6.8486e-17 0)
(1.1049 -3.55365e-15 0)
(1.10428 -2.75021e-14 0)
(1.10365 5.63708e-13 0)
(1.103 -7.64492e-12 0)
(1.10232 8.85358e-11 0)
(1.10159 -8.4872e-10 0)
(1.10088 5.75686e-09 0)
(1.10023 -2.07996e-08 0)
(1.01099 0.0232894 0)
(0.693918 0.0485823 0)
(0.601634 0.0746183 0)
(0.560365 0.0871438 0)
(0.530099 0.114913 0)
(0.502053 0.144973 0)
(1.11194 1.2353e-15 0)
(1.11138 -3.95138e-15 0)
(1.11082 -4.43318e-15 0)
(1.11025 8.93719e-16 0)
(1.10967 9.53488e-16 0)
(1.1091 -3.15876e-15 0)
(1.10851 2.32078e-15 0)
(1.10792 3.85211e-15 0)
(1.10733 -5.55377e-15 0)
(1.10673 2.37191e-15 0)
(1.10613 3.96624e-16 0)
(1.10552 -5.04011e-16 0)
(1.1049 -5.50552e-15 0)
(1.10428 1.36928e-14 0)
(1.10365 -2.03455e-14 0)
(1.103 -1.3683e-14 0)
(1.10232 3.97528e-13 0)
(1.10159 -3.48023e-12 0)
(1.10088 2.08062e-11 0)
(1.10023 -5.23658e-11 0)
(1.01649 0.0233879 0)
(0.698495 0.0506347 0)
(0.604073 0.0774803 0)
(0.563689 0.0906632 0)
(0.534339 0.117884 0)
(0.507575 0.14709 0)
(1.11194 1.26454e-15 0)
(1.11138 -4.0977e-15 0)
(1.11082 -3.85054e-15 0)
(1.11025 6.40243e-16 0)
(1.10967 1.11588e-15 0)
(1.1091 -3.80073e-15 0)
(1.10851 2.14859e-15 0)
(1.10792 4.68072e-15 0)
(1.10733 -6.99887e-15 0)
(1.10673 3.28095e-15 0)
(1.10613 -4.2104e-16 0)
(1.10552 -1.39966e-15 0)
(1.1049 -4.22187e-15 0)
(1.10428 9.61573e-15 0)
(1.10365 -3.25703e-15 0)
(1.103 -6.46109e-14 0)
(1.10232 3.15262e-13 0)
(1.10159 -7.99213e-13 0)
(1.10088 1.00092e-12 0)
(1.10023 5.57288e-14 0)
(1.02208 0.0233233 0)
(0.703408 0.0526421 0)
(0.606533 0.0802341 0)
(0.566981 0.0940478 0)
(0.538598 0.12077 0)
(0.513056 0.149121 0)
(1.11194 7.77457e-16 0)
(1.11138 -3.41849e-15 0)
(1.11082 -4.48655e-15 0)
(1.11025 3.2334e-16 0)
(1.10967 1.33331e-15 0)
(1.1091 -4.12548e-15 0)
(1.10851 1.95899e-15 0)
(1.10792 5.44029e-15 0)
(1.10733 -8.11087e-15 0)
(1.10673 4.52179e-15 0)
(1.10613 -9.06231e-16 0)
(1.10552 -2.67732e-15 0)
(1.1049 -3.07051e-15 0)
(1.10428 -2.54424e-15 0)
(1.10365 6.0983e-14 0)
(1.103 -3.47367e-13 0)
(1.10232 1.26726e-12 0)
(1.10159 -2.86322e-12 0)
(1.10088 2.78185e-12 0)
(1.10023 2.44294e-13 0)
(1.02772 0.0230931 0)
(0.708665 0.0546018 0)
(0.609016 0.0828873 0)
(0.570229 0.0972928 0)
(0.542878 0.123553 0)
(0.518426 0.151111 0)
(1.11194 1.17458e-15 0)
(1.11138 -2.76188e-15 0)
(1.11082 -4.66524e-15 0)
(1.11025 -3.47319e-16 0)
(1.10967 1.05962e-15 0)
(1.1091 -3.97341e-15 0)
(1.10851 1.64543e-15 0)
(1.10792 5.8254e-15 0)
(1.10733 -7.93578e-15 0)
(1.10673 6.16564e-15 0)
(1.10613 -7.60243e-17 0)
(1.10552 -4.05863e-15 0)
(1.1049 2.38396e-15 0)
(1.10428 -3.49515e-14 0)
(1.10365 2.3965e-13 0)
(1.103 -1.17174e-12 0)
(1.10232 4.23321e-12 0)
(1.10159 -1.00028e-11 0)
(1.10088 1.07331e-11 0)
(1.10023 3.89349e-13 0)
(1.03337 0.0226989 0)
(0.71427 0.0565099 0)
(0.611526 0.0854473 0)
(0.573426 0.100395 0)
(0.547163 0.126201 0)
(0.523709 0.153018 0)
(1.11194 2.02217e-15 0)
(1.11138 -2.68454e-15 0)
(1.11082 -4.04642e-15 0)
(1.11025 -8.45009e-16 0)
(1.10967 2.45582e-16 0)
(1.1091 -3.93555e-15 0)
(1.10851 1.4025e-15 0)
(1.10792 5.69978e-15 0)
(1.10733 -8.23508e-15 0)
(1.10673 7.04634e-15 0)
(1.10613 -1.24827e-16 0)
(1.10552 -6.51585e-15 0)
(1.1049 1.41769e-14 0)
(1.10428 -1.12005e-13 0)
(1.10365 6.98477e-13 0)
(1.103 -3.45467e-12 0)
(1.10232 1.30282e-11 0)
(1.10159 -3.28168e-11 0)
(1.10088 3.86776e-11 0)
(1.10023 -4.12881e-13 0)
(1.03899 0.0221452 0)
(0.720231 0.0583614 0)
(0.614069 0.0879209 0)
(0.576566 0.103355 0)
(0.55143 0.128717 0)
(0.528925 0.154809 0)
(1.11194 2.62718e-15 0)
(1.11138 -2.92369e-15 0)
(1.11082 -3.6071e-15 0)
(1.11025 -5.41551e-16 0)
(1.10967 2.74102e-16 0)
(1.1091 -3.73204e-15 0)
(1.10851 1.0437e-15 0)
(1.10792 5.75798e-15 0)
(1.10733 -8.39036e-15 0)
(1.10673 6.96408e-15 0)
(1.10613 2.41918e-17 0)
(1.10552 -1.05062e-14 0)
(1.1049 3.98181e-14 0)
(1.10428 -2.91974e-13 0)
(1.10365 1.82698e-12 0)
(1.103 -9.423e-12 0)
(1.10232 3.76077e-11 0)
(1.10159 -1.01587e-10 0)
(1.10088 1.31473e-10 0)
(1.10023 -9.05795e-12 0)
(1.04454 0.0214398 0)
(0.726554 0.0601502 0)
(0.616655 0.090314 0)
(0.579647 0.106172 0)
(0.555653 0.13111 0)
(0.534073 0.156509 0)
(1.11194 2.7967e-15 0)
(1.11138 -3.00991e-15 0)
(1.11082 -3.85474e-15 0)
(1.11025 -1.48422e-16 0)
(1.10967 -3.53186e-17 0)
(1.1091 -3.53648e-15 0)
(1.10851 9.05054e-16 0)
(1.10792 5.73497e-15 0)
(1.10733 -8.13398e-15 0)
(1.10673 6.48676e-15 0)
(1.10613 7.83695e-16 0)
(1.10552 -1.6686e-14 0)
(1.1049 9.20645e-14 0)
(1.10428 -6.80124e-13 0)
(1.10365 4.43014e-12 0)
(1.103 -2.40499e-11 0)
(1.10232 1.01995e-10 0)
(1.10159 -2.96167e-10 0)
(1.10088 4.2154e-10 0)
(1.10023 -5.46022e-11 0)
(1.04999 0.0205923 0)
(0.733247 0.0618687 0)
(0.619296 0.0926325 0)
(0.582672 0.10885 0)
(0.559815 0.133379 0)
(0.539146 0.158135 0)
(1.11194 3.28418e-15 0)
(1.11138 -3.17432e-15 0)
(1.11082 -3.18112e-15 0)
(1.11025 -9.80757e-17 0)
(1.10967 2.76143e-16 0)
(1.1091 -2.97309e-15 0)
(1.10851 1.03971e-15 0)
(1.10792 5.37783e-15 0)
(1.10733 -7.30361e-15 0)
(1.10673 5.74732e-15 0)
(1.10613 2.50843e-15 0)
(1.10552 -2.78227e-14 0)
(1.1049 1.88322e-13 0)
(1.10428 -1.47176e-12 0)
(1.10365 1.00436e-11 0)
(1.103 -5.75789e-11 0)
(1.10232 2.60056e-10 0)
(1.10159 -8.13749e-10 0)
(1.10088 1.27829e-09 0)
(1.10023 -2.54659e-10 0)
(1.05529 0.019614 0)
(0.740318 0.0635085 0)
(0.622001 0.0948817 0)
(0.585641 0.111392 0)
(0.5639 0.135526 0)
(0.544136 0.159691 0)
(1.11194 3.86335e-15 0)
(1.11138 -3.5542e-15 0)
(1.11082 -1.84801e-15 0)
(1.11025 -5.14397e-16 0)
(1.10967 4.76093e-16 0)
(1.1091 -3.00408e-15 0)
(1.10851 1.22267e-15 0)
(1.10792 4.8274e-15 0)
(1.10733 -6.97884e-15 0)
(1.10673 4.56755e-15 0)
(1.10613 5.54971e-15 0)
(1.10552 -4.58335e-14 0)
(1.1049 3.62313e-13 0)
(1.10428 -2.97183e-12 0)
(1.10365 2.13221e-11 0)
(1.103 -1.29208e-10 0)
(1.10232 6.22108e-10 0)
(1.10159 -2.10178e-09 0)
(1.10088 3.65669e-09 0)
(1.10023 -1.0292e-09 0)
(1.0604 0.0185179 0)
(0.747776 0.0650598 0)
(0.624784 0.0970672 0)
(0.588559 0.113805 0)
(0.567894 0.13755 0)
(0.549037 0.161184 0)
(1.11194 4.11685e-15 0)
(1.11138 -4.41794e-15 0)
(1.11082 -1.02035e-15 0)
(1.11025 -1.48458e-15 0)
(1.10967 3.79718e-16 0)
(1.1091 -2.95185e-15 0)
(1.10851 1.78109e-15 0)
(1.10792 4.17884e-15 0)
(1.10733 -5.88117e-15 0)
(1.10673 3.8737e-15 0)
(1.10613 9.72846e-15 0)
(1.10552 -7.24995e-14 0)
(1.1049 6.54775e-13 0)
(1.10428 -5.61285e-12 0)
(1.10365 4.23198e-11 0)
(1.103 -2.70938e-10 0)
(1.10232 1.38987e-09 0)
(1.10159 -5.06996e-09 0)
(1.10088 9.77607e-09 0)
(1.10023 -3.6783e-09 0)
(1.06529 0.0173184 0)
(0.755633 0.0665116 0)
(0.627654 0.099194 0)
(0.59143 0.116094 0)
(0.571787 0.139457 0)
(0.553848 0.162617 0)
(1.11194 4.79687e-15 0)
(1.11138 -5.0165e-15 0)
(1.11082 -1.79503e-16 0)
(1.11025 -2.04955e-15 0)
(1.10967 -6.72651e-17 0)
(1.1091 -2.70008e-15 0)
(1.10851 1.84163e-15 0)
(1.10792 4.1875e-15 0)
(1.10733 -5.8046e-15 0)
(1.10673 3.31346e-15 0)
(1.10613 1.39058e-14 0)
(1.10552 -1.1554e-13 0)
(1.1049 1.10234e-12 0)
(1.10428 -9.91523e-12 0)
(1.10365 7.84091e-11 0)
(1.103 -5.29387e-10 0)
(1.10232 2.88733e-09 0)
(1.10159 -1.1347e-08 0)
(1.10088 2.41724e-08 0)
(1.10023 -1.16201e-08 0)
(1.06992 0.0160314 0)
(0.763899 0.0678523 0)
(0.630618 0.101267 0)
(0.594265 0.118268 0)
(0.575587 0.141264 0)
(0.558544 0.163999 0)
(1.11194 5.27416e-15 0)
(1.11138 -5.37134e-15 0)
(1.11082 2.71562e-16 0)
(1.11025 -2.43426e-15 0)
(1.10967 -3.26697e-16 0)
(1.1091 -2.21948e-15 0)
(1.10851 2.58729e-15 0)
(1.10792 4.86168e-15 0)
(1.10733 -6.15523e-15 0)
(1.10673 2.56945e-15 0)
(1.10613 1.94991e-14 0)
(1.10552 -1.70657e-13 0)
(1.1049 1.7452e-12 0)
(1.10428 -1.6383e-11 0)
(1.10365 1.35588e-10 0)
(1.103 -9.62697e-10 0)
(1.10232 5.5671e-09 0)
(1.10159 -2.34912e-08 0)
(1.10088 5.5037e-08 0)
(1.10023 -3.27193e-08 0)
(1.07428 0.0146743 0)
(0.772585 0.0690693 0)
(0.633684 0.103288 0)
(0.597073 0.120332 0)
(0.579307 0.142981 0)
(0.563097 0.165342 0)
(1.11194 4.4075e-15 0)
(1.11138 -5.97974e-15 0)
(1.11082 9.92751e-16 0)
(1.11025 -2.51374e-15 0)
(1.10967 -8.11749e-16 0)
(1.1091 -1.99325e-15 0)
(1.10851 3.38088e-15 0)
(1.10792 5.55115e-15 0)
(1.10733 -6.58245e-15 0)
(1.10673 1.91974e-15 0)
(1.10613 2.54153e-14 0)
(1.10552 -2.40854e-13 0)
(1.1049 2.59116e-12 0)
(1.10428 -2.53507e-11 0)
(1.10365 2.19256e-10 0)
(1.103 -1.63339e-09 0)
(1.10232 9.98938e-09 0)
(1.10159 -4.51224e-08 0)
(1.10088 1.15925e-07 0)
(1.10023 -8.3533e-08 0)
(1.07832 0.0132661 0)
(0.781701 0.0701503 0)
(0.636856 0.105261 0)
(0.599866 0.122295 0)
(0.582951 0.144608 0)
(0.567507 0.16665 0)
(1.11194 4.64991e-15 0)
(1.11138 -6.57441e-15 0)
(1.11082 1.29146e-15 0)
(1.11025 -2.97473e-15 0)
(1.10967 -1.68445e-15 0)
(1.1091 -2.36392e-15 0)
(1.10851 3.22304e-15 0)
(1.10792 5.37607e-15 0)
(1.10733 -6.79109e-15 0)
(1.10673 1.41965e-15 0)
(1.10613 3.15161e-14 0)
(1.10552 -3.21438e-13 0)
(1.1049 3.61008e-12 0)
(1.10428 -3.67811e-11 0)
(1.10365 3.31921e-10 0)
(1.103 -2.59342e-09 0)
(1.10232 1.67519e-08 0)
(1.10159 -8.09049e-08 0)
(1.10088 2.27512e-07 0)
(1.10023 -1.95366e-07 0)
(1.08204 0.0118272 0)
(0.791255 0.0710836 0)
(0.640137 0.107187 0)
(0.602656 0.124161 0)
(0.586525 0.14615 0)
(0.571782 0.167924 0)
(1.11194 3.91369e-15 0)
(1.11138 -6.35105e-15 0)
(1.11082 1.20997e-15 0)
(1.11025 -3.36902e-15 0)
(1.10967 -1.33185e-15 0)
(1.1091 -2.40736e-15 0)
(1.10851 3.17398e-15 0)
(1.10792 5.32675e-15 0)
(1.10733 -7.05236e-15 0)
(1.10673 1.24138e-15 0)
(1.10613 3.80023e-14 0)
(1.10552 -4.04795e-13 0)
(1.1049 4.74455e-12 0)
(1.10428 -5.03188e-11 0)
(1.10365 4.74082e-10 0)
(1.103 -3.87827e-09 0)
(1.10232 2.63819e-08 0)
(1.10159 -1.35982e-07 0)
(1.10088 4.17387e-07 0)
(1.10023 -4.21569e-07 0)
(1.08542 0.0103793 0)
(0.801253 0.0718586 0)
(0.643533 0.109064 0)
(0.605454 0.125936 0)
(0.590034 0.147613 0)
(0.575923 0.169163 0)
(1.11194 3.3815e-15 0)
(1.11138 -5.77116e-15 0)
(1.11082 1.20975e-15 0)
(1.11025 -3.05858e-15 0)
(1.10967 -6.92923e-16 0)
(1.1091 -2.40422e-15 0)
(1.10851 2.84939e-15 0)
(1.10792 5.58503e-15 0)
(1.10733 -7.93052e-15 0)
(1.10673 1.58711e-15 0)
(1.10613 4.28673e-14 0)
(1.10552 -4.83416e-13 0)
(1.1049 5.86224e-12 0)
(1.10428 -6.47641e-11 0)
(1.10365 6.36957e-10 0)
(1.103 -5.47661e-09 0)
(1.10232 3.92783e-08 0)
(1.10159 -2.15596e-07 0)
(1.10088 7.20845e-07 0)
(1.10023 -8.5373e-07 0)
(1.08844 0.00894523 0)
(0.811696 0.0724639 0)
(0.647051 0.110889 0)
(0.608266 0.127625 0)
(0.593482 0.149003 0)
(0.579933 0.17037 0)
(1.11194 2.59208e-15 0)
(1.11138 -5.39102e-15 0)
(1.11082 1.66596e-15 0)
(1.11025 -2.53152e-15 0)
(1.10967 -8.53565e-16 0)
(1.1091 -1.7417e-15 0)
(1.10851 2.9853e-15 0)
(1.10792 5.79608e-15 0)
(1.10733 -8.13348e-15 0)
(1.10673 2.11906e-15 0)
(1.10613 4.52347e-14 0)
(1.10552 -5.53843e-13 0)
(1.1049 6.92578e-12 0)
(1.10428 -7.84763e-11 0)
(1.10365 8.06426e-10 0)
(1.103 -7.23675e-09 0)
(1.10232 5.50867e-08 0)
(1.10159 -3.23406e-07 0)
(1.10088 1.18392e-06 0)
(1.10023 -1.6397e-06 0)
(1.0911 0.00754778 0)
(0.822582 0.0728872 0)
(0.650699 0.112657 0)
(0.611096 0.129232 0)
(0.596874 0.15033 0)
(0.583809 0.171545 0)
(1.11194 2.08104e-15 0)
(1.11138 -4.80745e-15 0)
(1.11082 2.11517e-15 0)
(1.11025 -1.97253e-15 0)
(1.10967 -1.10054e-15 0)
(1.1091 -1.48757e-15 0)
(1.10851 2.49411e-15 0)
(1.10792 5.36355e-15 0)
(1.10733 -8.78799e-15 0)
(1.10673 2.15434e-15 0)
(1.10613 4.56183e-14 0)
(1.10552 -6.01484e-13 0)
(1.1049 7.76048e-12 0)
(1.10428 -9.17504e-11 0)
(1.10365 9.72215e-10 0)
(1.103 -9.17976e-09 0)
(1.10232 7.32068e-08 0)
(1.10159 -4.58335e-07 0)
(1.10088 1.83705e-06 0)
(1.10023 -2.94567e-06 0)
(1.09341 0.00620947 0)
(0.833906 0.0731206 0)
(0.654493 0.114362 0)
(0.613942 0.130761 0)
(0.600208 0.151601 0)
(0.587547 0.172693 0)
(1.11194 2.23584e-15 0)
(1.11138 -4.02388e-15 0)
(1.11082 1.78625e-15 0)
(1.11025 -2.36968e-15 0)
(1.10967 -8.9903e-16 0)
(1.1091 -6.87539e-16 0)
(1.10851 1.5967e-15 0)
(1.10792 4.63554e-15 0)
(1.10733 -9.63618e-15 0)
(1.10673 2.98738e-15 0)
(1.10613 4.42808e-14 0)
(1.10552 -6.23187e-13 0)
(1.1049 8.22943e-12 0)
(1.10428 -1.00255e-10 0)
(1.10365 1.11205e-09 0)
(1.103 -1.09446e-08 0)
(1.10232 9.38347e-08 0)
(1.10159 -6.27089e-07 0)
(1.10088 2.71693e-06 0)
(1.10022 -5.00225e-06 0)
(1.09535 0.00495159 0)
(0.845656 0.0731625 0)
(0.658448 0.115999 0)
(0.616799 0.132219 0)
(0.603485 0.152826 0)
(0.591146 0.173814 0)
(1.11194 2.04654e-15 0)
(1.11138 -3.10653e-15 0)
(1.11082 1.00707e-15 0)
(1.11025 -2.55419e-15 0)
(1.10967 -1.06764e-15 0)
(1.1091 -1.59094e-16 0)
(1.10851 1.03077e-15 0)
(1.10792 4.48645e-15 0)
(1.10733 -1.03254e-14 0)
(1.10673 3.00228e-15 0)
(1.10613 4.21123e-14 0)
(1.10552 -6.1313e-13 0)
(1.1049 8.29583e-12 0)
(1.10428 -1.03526e-10 0)
(1.10365 1.18881e-09 0)
(1.103 -1.22833e-08 0)
(1.10232 1.08841e-07 0)
(1.10159 -8.08503e-07 0)
(1.10088 3.92781e-06 0)
(1.10022 -8.57809e-06 0)
(1.09695 0.00379385 0)
(0.857818 0.0730038 0)
(0.662585 0.117565 0)
(0.61966 0.133611 0)
(0.606702 0.154015 0)
(0.594605 0.174913 0)
(1.11194 1.84489e-15 0)
(1.11138 -2.32183e-15 0)
(1.11082 2.00857e-16 0)
(1.11025 -1.92557e-15 0)
(1.10967 -3.53585e-16 0)
(1.1091 4.82806e-16 0)
(1.10851 3.5452e-16 0)
(1.10792 4.18959e-15 0)
(1.10733 -1.06498e-14 0)
(1.10673 2.72639e-15 0)
(1.10613 3.76871e-14 0)
(1.10552 -5.77105e-13 0)
(1.1049 7.9409e-12 0)
(1.10428 -1.01432e-10 0)
(1.10365 1.19911e-09 0)
(1.103 -1.29571e-08 0)
(1.10232 1.22895e-07 0)
(1.10159 -9.3554e-07 0)
(1.10088 5.19147e-06 0)
(1.10023 -1.37673e-05 0)
(1.0982 0.00275376 0)
(0.870367 0.0726081 0)
(0.666931 0.119038 0)
(0.622515 0.134941 0)
(0.609857 0.155174 0)
(0.597927 0.175991 0)
(1.11194 1.44764e-15 0)
(1.11138 -1.45227e-15 0)
(1.11082 -3.92901e-16 0)
(1.11025 -1.61196e-15 0)
(1.10967 1.14041e-16 0)
(1.1091 1.44453e-15 0)
(1.10851 -4.10275e-16 0)
(1.10792 3.96879e-15 0)
(1.10733 -1.05366e-14 0)
(1.10673 2.86083e-15 0)
(1.10613 3.07382e-14 0)
(1.10552 -5.06289e-13 0)
(1.1049 7.14028e-12 0)
(1.10428 -9.379e-11 0)
(1.10365 1.14362e-09 0)
(1.103 -1.28472e-08 0)
(1.10232 1.30448e-07 0)
(1.10159 -1.10088e-06 0)
(1.10088 6.38846e-06 0)
(1.10023 -1.8393e-05 0)
(1.09911 0.00183893 0)
(0.88327 0.0719348 0)
(0.671512 0.120396 0)
(0.625356 0.136212 0)
(0.612946 0.156311 0)
(0.60112 0.177048 0)
(1.11194 7.36437e-16 0)
(1.11138 -5.49575e-16 0)
(1.11082 -1.00303e-15 0)
(1.11025 -7.86693e-16 0)
(1.10967 5.58673e-16 0)
(1.1091 2.36297e-15 0)
(1.10851 -1.30947e-15 0)
(1.10792 3.38478e-15 0)
(1.10733 -9.96462e-15 0)
(1.10673 2.86031e-15 0)
(1.10613 2.33812e-14 0)
(1.10552 -4.11816e-13 0)
(1.1049 5.88048e-12 0)
(1.10428 -7.82079e-11 0)
(1.10365 9.75596e-10 0)
(1.103 -1.13416e-08 0)
(1.10232 1.21809e-07 0)
(1.10159 -1.16149e-06 0)
(1.10088 8.31074e-06 0)
(1.10025 -3.33076e-05 0)
(1.0997 0.0010369 0)
(0.896496 0.0710006 0)
(0.676356 0.121645 0)
(0.628176 0.13743 0)
(0.615966 0.15743 0)
(0.604198 0.178084 0)
(1.11194 1.1836e-15 0)
(1.11138 2.99587e-16 0)
(1.11082 -1.42192e-15 0)
(1.11025 -4.34469e-17 0)
(1.10967 7.73573e-16 0)
(1.1091 2.88856e-15 0)
(1.10851 -2.1263e-15 0)
(1.10792 3.16777e-15 0)
(1.10733 -9.71027e-15 0)
(1.10673 2.46178e-15 0)
(1.10613 1.54767e-14 0)
(1.10552 -2.89843e-13 0)
(1.1049 4.26743e-12 0)
(1.10428 -5.82758e-11 0)
(1.10365 7.4571e-10 0)
(1.103 -8.89396e-09 0)
(1.10232 9.77337e-08 0)
(1.10159 -9.71511e-07 0)
(1.10087 8.38845e-06 0)
(1.10028 -5.65445e-05 0)
(1.09998 0.000394252 0)
(0.910004 0.0698395 0)
(0.681486 0.122818 0)
(0.630965 0.13861 0)
(0.618911 0.158539 0)
(0.607179 0.179096 0)
(1.11194 1.14893e-15 0)
(1.11138 1.82222e-15 0)
(1.11082 -2.09444e-15 0)
(1.11025 1.09862e-15 0)
(1.10967 1.23103e-15 0)
(1.1091 3.05505e-15 0)
(1.10851 -2.32961e-15 0)
(1.10792 3.1859e-15 0)