/*--------------------------------*- C++ -*----------------------------------*\
  =========                 |
  \\      /  F ield         | OpenFOAM: The Open Source CFD Toolbox
   \\    /   O peration     | Website:  https://openfoam.org
    \\  /    A nd           | Version:  8
     \\/     M anipulation  |
\*---------------------------------------------------------------------------*/
FoamFile
{
    version     2.0;
    format      ascii;
    class       volScalarField;
    location    "0.5";
    object      p;
}
// * * * * * * * * * * * * * * * * * * * * * * * * * * * * * * * * * * * * * //

dimensions      [1 -1 -2 0 0 0 0];

internalField   nonuniform List<scalar> 
2600
(
0.780015
0.932805
1.07961
1.42362
1.94778
2.41517
3.08703
3.0776
2.60551
1.45607
0.918587
0.958197
1.21039
1.59551
2.04432
2.41977
3.10888
3.09261
2.60826
1.44864
1.04435
0.95725
1.30083
1.70221
2.11764
2.45745
3.0986
3.08353
2.60146
1.44236
1.07403
0.985811
1.3736
1.79294
2.15347
2.50433
3.09216
3.10162
2.5993
1.4384
1.03184
1.02834
1.44982
1.85804
2.16537
2.54329
3.08837
3.15281
2.60373
1.43242
0.982562
1.05132
1.5014
1.93021
2.16715
2.57489
3.0673
3.21384
2.60113
1.43096
1.01834
1.05934
1.51651
1.95677
2.13856
2.58083
3.0498
3.28188
2.60063
1.42921
1.05633
1.08503
1.50786
1.98279
2.12229
2.58088
3.04327
3.30291
2.59851
1.42943
1.06291
1.12122
1.50951
2.00586
2.11059
2.58507
3.05111
3.32445
2.59838
1.43037
1.05814
1.11554
1.50039
2.0001
2.1027
2.58067
3.0371
3.33925
2.59502
1.432
1.05814
1.11554
1.50039
2.00011
2.1027
2.58066
3.03709
3.33925
2.59502
1.432
1.06291
1.12122
1.50951
2.00586
2.11058
2.58506
3.05111
3.32445
2.59838
1.43037
1.05633
1.08503
1.50786
1.98279
2.12229
2.58088
3.04328
3.30291
2.5985
1.42943
1.01834
1.05934
1.51651
1.95677
2.13856
2.58083
3.0498
3.28188
2.60063
1.42921
0.98256
1.05132
1.5014
1.93021
2.16715
2.57489
3.06729
3.21384
2.60113
1.43096
1.03184
1.02834
1.44982
1.85804
2.16537
2.54329
3.08837
3.15281
2.60373
1.43242
1.07403
0.985811
1.3736
1.79294
2.15347
2.50433
3.09216
3.10162
2.5993
1.4384
1.04435
0.957251
1.30083
1.70221
2.11764
2.45745
3.09859
3.08353
2.60146
1.44236
0.918586
0.958197
1.21039
1.59551
2.04432
2.41977
3.10888
3.09261
2.60826
1.44864
0.780014
0.932806
1.07961
1.42362
1.94778
2.41517
3.08703
3.0776
2.60551
1.45607
1.89591
0.97986
0.895219
1.07891
1.73159
2.41905
3.04742
3.04594
2.59458
1.46471
2.72692
1.15697
0.951384
0.811106
1.22811
2.35475
3.01063
3.01181
2.57837
1.47359
3.34668
1.45396
1.0405
0.820244
0.931146
2.15451
2.96832
2.98043
2.56803
1.48309
3.80448
1.7599
1.25117
0.906879
0.932127
1.95656
2.91095
2.94943
2.56433
1.49377
4.16308
2.08985
1.43664
0.984572
0.960477
1.76171
2.8418
2.92683
2.5647
1.50447
4.48551
2.37525
1.62693
1.09707
1.03718
1.61515
2.76292
2.90613
2.56405
1.51382
4.76387
2.66514
1.83089
1.24969
1.09529
1.46506
2.65611
2.87787
2.54937
1.52115
5.00915
2.93048
2.00525
1.40645
1.13417
1.2962
2.49778
2.8218
2.52394
1.52851
5.23224
3.17955
2.20033
1.57218
1.20838
1.26676
2.27881
2.72263
2.48687
1.53643
5.4228
3.41765
2.38119
1.72751
1.28816
1.30307
1.96061
2.53378
2.41477
1.54463
5.59596
3.63955
2.56528
1.88122
1.37039
1.36132
1.75619
2.3267
2.33253
1.55373
5.75692
3.84265
2.74502
2.03039
1.46821
1.43171
1.74409
2.24096
2.30402
1.56292
5.89485
4.04161
2.91584
2.16767
1.55912
1.51041
1.76854
2.228
2.29975
1.57136
6.02453
4.22421
3.084
2.31356
1.65773
1.58923
1.81368
2.23143
2.31131
1.58019
6.14208
4.3969
3.24
2.44929
1.75342
1.66492
1.86367
2.24834
2.33398
1.59014
6.2475
4.56266
3.39337
2.58696
1.86311
1.73921
1.91503
2.27646
2.3604
1.60016
6.34837
4.71798
3.53932
2.72826
1.96708
1.81677
1.9706
2.31002
2.38866
1.6103
6.445
4.86561
3.67911
2.86086
2.0775
1.89038
2.02082
2.33713
2.41377
1.62076
6.53626
5.00022
3.81149
2.99279
2.19059
1.96579
2.07851
2.37019
2.4393
1.63078
6.61479
5.12497
3.93869
3.11705
2.30891
2.04289
2.13551
2.40227
2.463
1.64002
11.8039
11.3076
10.8767
10.4813
10.1473
9.8553
9.55052
9.17944
8.6122
7.92041
10.8622
10.4952
10.2332
10.0005
9.79454
9.57062
9.29244
8.90754
8.31242
7.39127
10.4587
10.3053
10.1355
9.95229
9.77342
9.56795
9.29636
8.90502
8.31626
7.37286
10.0431
10.022
9.90194
9.76562
9.61836
9.43534
9.17602
8.78855
8.20502
7.29924
9.77173
9.82132
9.72726
9.63888
9.51532
9.35469
9.11313
8.74584
8.16433
7.31397
9.32884
9.51402
9.48293
9.47323
9.40286
9.27051
9.03836
8.70013
8.12016
7.3482
8.71152
9.19443
9.29221
9.362
9.33992
9.20936
8.98598
8.66839
8.10279
7.40061
8.09862
8.98942
9.21799
9.32103
9.32298
9.18538
8.97262
8.67371
8.10839
7.45512
7.06367
8.85506
9.27334
9.35085
9.32823
9.1731
8.95565
8.64674
8.13507
7.51481
5.73469
8.49479
9.38004
9.36899
9.31499
9.1495
8.92245
8.62825
8.16851
7.57719
4.63374
7.42701
9.29149
9.38866
9.31451
9.14746
8.89641
8.62058
8.19266
7.62574
3.87875
5.47834
8.97362
9.39282
9.2715
9.09188
8.86502
8.60835
8.20292
7.6513
3.45639
3.98958
7.4795
9.36182
9.24158
9.07069
8.86283
8.60258
8.19645
7.66595
3.22286
3.44979
5.12601
8.8745
9.15978
9.03329
8.86511
8.58448
8.18789
7.6851
3.0634
3.25923
3.70709
7.04979
8.93293
8.97139
8.83137
8.54385
8.16413
7.69692
2.93939
3.14166
3.34799
4.69681
8.29145
8.92656
8.76983
8.49372
8.15177
7.71004
2.86553
3.05131
3.24708
3.61396
6.44291
8.63913
8.68371
8.43931
8.14152
7.72821
2.82404
2.99031
3.20038
3.41524
4.46342
7.66362
8.6722
8.40153
8.13727
7.74889
2.79531
2.94728
3.15832
3.39518
3.70041
5.74699
8.23328
8.35851
8.14852
7.76602
2.77518
2.91986
3.12148
3.39476
3.57268
4.19619
6.96098
8.4113
8.16955
7.76266
1
1
1
1
1
1
1.00071
1.00595
1.17333
4.84234
1
1
1
1
1
1
1.00066
1.00587
1.17989
4.75464
1
1
1
1
1
1
1.00057
1.00572
1.19289
4.59886
1
1
1
1
1
1
1.00047
1.00554
1.20845
4.38321
1
1
1
1
1
1
1.00038
1.00539
1.19275
4.17723
1
1
1
1
1
1
1.00032
1.00537
1.16346
3.98378
1
1
1
1
1
1
1.00026
1.00552
1.15086
3.80368
1
1
1
1
1
1
1.00023
1.00585
1.14547
3.52669
1
1
1
1
1
1
1.0002
1.00634
1.145
3.23965
1
1
1
1
1
1
1.00018
1.00694
1.14571
2.95863
1
1
1
1
1
1
1.00016
1.00768
1.14732
2.71098
1
1
1
1
1
1
1.00015
1.00858
1.15044
2.52074
1
1
1
1
1
1
1.00014
1.0095
1.15524
2.37513
1
1
1
1
1
1
1.00014
1.01045
1.16128
2.27334
1
1
1
1
1
1
1.00013
1.01121
1.16859
2.20329
1
1
1
1
1
1
1.00013
1.01175
1.17629
2.15646
1
1
1
1
1
1
1.00013
1.01204
1.18475
2.12504
1
1
1
1
1
1
1.00013
1.01212
1.193
2.10567
1
1
1
1
1
1
1.00013
1.01203
1.20037
2.09377
1
1
1
1
1
1
1.00013
1.01181
1.20762
2.0906
1
1
1
1
1
1
1.00013
1.01181
1.20762
2.0906
1
1
1
1
1
1
1.00013
1.01203
1.20037
2.09377
1
1
1
1
1
1
1.00013
1.01212
1.193
2.10567
1
1
1
1
1
1
1.00013
1.01204
1.18475
2.12504
1
1
1
1
1
1
1.00013
1.01175
1.17629
2.15646
1
1
1
1
1
1
1.00013
1.01121
1.16859
2.20329
1
1
1
1
1
1
1.00014
1.01045
1.16128
2.27334
1
1
1
1
1
1
1.00014
1.0095
1.15524
2.37513
1
1
1
1
1
1
1.00015
1.00858
1.15044
2.52074
1
1
1
1
1
1
1.00016
1.00768
1.14732
2.71098
1
1
1
1
1
1
1.00018
1.00694
1.14571
2.95863
1
1
1
1
1
1
1.0002
1.00634
1.145
3.23965
1
1
1
1
1
1
1.00023
1.00585
1.14547
3.52669
1
1
1
1
1
1
1.00026
1.00552
1.15086
3.80368
1
1
1
1
1
1
1.00032
1.00537
1.16346
3.98379
1
1
1
1
1
1
1.00038
1.00539
1.19275
4.17723
1
1
1
1
1
1
1.00047
1.00554
1.20846
4.38321
1
1
1
1
1
1
1.00057
1.00572
1.19291
4.59886
1
1
1
1
1
1
1.00066
1.00587
1.17987
4.75464
1
1
1
1
1
1
1.00071
1.00595
1.17306
4.84233
2.77518
2.91986
3.12148
3.39476
3.57268
4.19619
6.96099
8.4113
8.16955
7.76266
2.79532
2.94728
3.15832
3.39518
3.70041
5.747
8.23328
8.35851
8.14852
7.76601
2.82405
2.99031
3.20038
3.41525
4.46343
7.66363
8.67219
8.40153
8.13727
7.74889
2.86553
3.05131
3.24708
3.61397
6.44292
8.63913
8.68371
8.4393
8.14151
7.7282
2.93939
3.14166
3.34799
4.69682
8.29146
8.92655
8.76983
8.49371
8.15177
7.71004
3.0634
3.25923
3.70709
7.0498
8.93293
8.97139
8.83136
8.54384
8.16412
7.69691
3.22286
3.44979
5.12602
8.87451
9.15978
9.03329
8.86511
8.58448
8.18788
7.6851
3.45639
3.98958
7.47951
9.36183
9.24158
9.07069
8.86283
8.60257
8.19644
7.66595
3.87875
5.47835
8.97363
9.39282
9.2715
9.09188
8.86502
8.60835
8.20292
7.6513
4.63374
7.42702
9.29149
9.38866
9.31451
9.14746
8.89641
8.62058
8.19266
7.62574
5.73469
8.49479
9.38005
9.36899
9.31499
9.1495
8.92245
8.62825
8.16851
7.57719
7.06367
8.85506
9.27334
9.35085
9.32823
9.1731
8.95565
8.64674
8.13507
7.51481
8.09862
8.98942
9.21799
9.32103
9.32298
9.18538
8.97262
8.6737
8.10839
7.45512
8.71152
9.19442
9.2922
9.362
9.33992
9.20935
8.98598
8.66839
8.10279
7.40061
9.32884
9.51402
9.48293
9.47322
9.40286
9.2705
9.03835
8.70013
8.12016
7.3482
9.77173
9.82132
9.72726
9.63888
9.51532
9.35469
9.11313
8.74584
8.16433
7.31397
10.0431
10.022
9.90194
9.76562
9.61836
9.43534
9.17602
8.78855
8.20502
7.29924
10.4587
10.3053
10.1355
9.95229
9.77342
9.56795
9.29636
8.90502
8.31626
7.37286
10.8622
10.4953
10.2332
10.0005
9.79454
9.57062
9.29244
8.90754
8.31242
7.39127
11.8042
11.3078
10.8768
10.4813
10.1473
9.8553
9.55052
9.17944
8.6122
7.92041
6.61478
5.12497
3.93869
3.11705
2.30891
2.04289
2.13551
2.40227
2.463
1.64001
6.53626
5.00022
3.8115
2.99279
2.19059
1.96579
2.07851
2.37019
2.4393
1.63078
6.445
4.86561
3.67911
2.86086
2.0775
1.89038
2.02082
2.33713
2.41377
1.62076
6.34837
4.71797
3.53932
2.72826
1.96708
1.81677
1.9706
2.31002
2.38866
1.6103
6.2475
4.56266
3.39337
2.58696
1.86311
1.73921
1.91503
2.27646
2.3604
1.60016
6.14208
4.3969
3.24
2.44929
1.75342
1.66492
1.86367
2.24834
2.33398
1.59014
6.02453
4.22421
3.084
2.31356
1.65773
1.58924
1.81368
2.23143
2.31131
1.58019
5.89484
4.04161
2.91584
2.16767
1.55912
1.51041
1.76854
2.228
2.29975
1.57136
5.75692
3.84265
2.74502
2.03039
1.46821
1.43171
1.74409
2.24096
2.30402
1.56292
5.59596
3.63954
2.56528
1.88122
1.37039
1.36132
1.75619
2.3267
2.33253
1.55373
5.4228
3.41765
2.38119
1.72751
1.28816
1.30307
1.96061
2.53378
2.41477
1.54463
5.23224
3.17955
2.20032
1.57218
1.20838
1.26676
2.27881
2.72263
2.48687
1.53643
5.00915
2.93048
2.00525
1.40645
1.13417
1.2962
2.49778
2.8218
2.52394
1.52851
4.76387
2.66514
1.83089
1.24968
1.09529
1.46506
2.65611
2.87787
2.54937
1.52115
4.48551
2.37525
1.62692
1.09707
1.03718
1.61515
2.76292
2.90613
2.56405
1.51382
4.16308
2.08985
1.43664
0.984572
0.960477
1.76172
2.8418
2.92683
2.5647
1.50447
3.80448
1.7599
1.25117
0.906879
0.932128
1.95656
2.91095
2.94943
2.56433
1.49377
3.34668
1.45396
1.0405
0.820244
0.931147
2.15451
2.96832
2.98043
2.56803
1.48309
2.72692
1.15697
0.951383
0.811107
1.22812
2.35475
3.01063
3.01181
2.57837
1.47359
1.89591
0.979859
0.895219
1.07891
1.73159
2.41905
3.04742
3.04594
2.59458
1.46471
3.19238
3.2256
3.29973
3.62028
4.00693
3.98791
3.8117
3.46554
2.90327
1.74474
3.18985
3.22592
3.3157
3.63732
3.96486
3.9632
3.78411
3.44195
2.90062
1.74306
3.18671
3.22702
3.34308
3.65336
3.91361
3.92731
3.73573
3.40935
2.88739
1.72913
3.18347
3.23012
3.38494
3.67289
3.86219
3.86727
3.66549
3.37157
2.87942
1.71333
3.18062
3.23696
3.44215
3.71435
3.80336
3.80728
3.59615
3.31619
2.8362
1.68429
3.17978
3.24857
3.52054
3.83879
3.92345
3.81308
3.53333
3.25517
2.7782
1.64323
3.17973
3.26992
3.65993
4.10853
4.17059
3.94025
3.57547
3.21761
2.71703
1.59747
3.1839
3.3191
3.96527
4.457
4.40883
4.03376
3.61845
3.19256
2.66021
1.556
3.19121
3.46268
4.46038
4.74472
4.51602
4.03164
3.61681
3.23958
2.62626
1.52653
3.20638
3.82911
4.96405
4.90531
4.51856
3.98395
3.58101
3.28119
2.71211
1.52446
3.25573
4.45365
5.25158
4.98517
4.46868
3.85192
3.51646
3.28922
2.82565
1.56751
3.45657
5.12444
5.36499
5.00245
4.30271
3.62297
3.36121
3.26563
2.89583
1.62198
3.97972
5.57946
5.42186
4.89503
4.09743
3.40632
3.18667
3.17441
2.91073
1.66473
4.80954
5.84869
5.43833
4.67049
3.86057
3.21406
3.02706
3.04304
2.86423
1.68705
5.69063
5.99152
5.31307
4.43759
3.62914
3.03119
2.8863
2.91973
2.77466
1.69005
6.42437
5.95742
5.0963
4.20092
3.40657
2.85554
2.74747
2.80673
2.69163
1.67278
6.80174
5.93213
4.86983
3.9842
3.18376
2.67229
2.61753
2.71889
2.6454
1.66884
6.90198
5.73156
4.61483
3.76119
2.96272
2.49603
2.48799
2.63001
2.5934
1.66213
6.87265
5.50066
4.36586
3.5363
2.72881
2.32333
2.36071
2.54023
2.54242
1.65745
6.7124
5.28924
4.13094
3.29693
2.49332
2.15633
2.22943
2.45857
2.50014
1.65042
6.7124
5.28924
4.13094
3.29693
2.49332
2.15633
2.22943
2.45857
2.50014
1.65042
6.87265
5.50066
4.36586
3.5363
2.72881
2.32333
2.36071
2.54023
2.54242
1.65745
6.90198
5.73156
4.61482
3.76119
2.96272
2.49603
2.48799
2.63001
2.5934
1.66213
6.80174
5.93213
4.86983
3.9842
3.18376
2.67229
2.61753
2.71889
2.6454
1.66884
6.42437
5.95742
5.0963
4.20092
3.40657
2.85554
2.74747
2.80673
2.69163
1.67278
5.69063
5.99151
5.31306
4.43758
3.62914
3.03119
2.8863
2.91973
2.77465
1.69005
4.80954
5.84868
5.43833
4.67049
3.86057
3.21406
3.02706
3.04304
2.86423
1.68705
3.97971
5.57945
5.42185
4.89503
4.09744
3.40632
3.18667
3.17441
2.91073
1.66473
3.45656
5.12443
5.36498
5.00245
4.30271
3.62297
3.3612
3.26563
2.89582
1.62199
3.25572
4.45365
5.25158
4.98517
4.46869
3.85192
3.51646
3.28922
2.82564
1.56751
3.20636
3.82912
4.96406
4.90531
4.51856
3.98395
3.58101
3.28119
2.71211
1.52446
3.19119
3.46268
4.4604
4.74473
4.51603
4.03164
3.61681
3.23958
2.62626
1.52653
3.18388
3.31911
3.9653
4.45702
4.40884
4.03376
3.61845
3.19256
2.66021
1.556
3.1797
3.26993
3.65996
4.10855
4.1706
3.94025
3.57547
3.21761
2.71703
1.59747
3.17976
3.24858
3.52057
3.83882
3.92346
3.81308
3.53332
3.25517
2.7782
1.64323
3.18061
3.23697
3.44218
3.71438
3.80338
3.80729
3.59615
3.31619
2.8362
1.68429
3.18346
3.23012
3.38497
3.67293
3.86221
3.86727
3.66549
3.37157
2.87942
1.71333
3.18671
3.22702
3.34312
3.65341
3.91363
3.92731
3.73572
3.40934
2.88739
1.72913
3.18986
3.22592
3.31573
3.63737
3.96488
3.96321
3.78411
3.44195
2.90062
1.74306
3.19239
3.2256
3.29975
3.62034
4.00695
3.98791
3.8117
3.46554
2.90327
1.74474
2.76116
2.90652
3.11043
3.39129
3.59589
3.71896
4.76821
7.42201
7.94582
7.73333
2.75701
2.90472
3.12766
3.41434
3.60839
3.63569
3.72525
4.96937
7.26664
7.72091
2.76401
2.92977
3.16595
3.47301
3.6175
3.62292
3.58865
3.71723
5.26468
7.30159
2.78781
2.96582
3.2302
3.54484
3.62434
3.60951
3.57903
3.54254
3.85657
5.87446
2.82679
3.01835
3.33375
3.60658
3.64062
3.65026
3.64069
3.56872
3.53971
4.17352
2.87372
3.09281
3.44796
3.65883
3.73131
3.74332
3.67539
3.57396
3.45489
3.45573
2.92486
3.18193
3.55483
3.7644
3.81851
3.76996
3.65705
3.527
3.36291
3.25609
2.9717
3.26167
3.65966
3.83816
3.83971
3.76437
3.60447
3.39338
3.26598
3.22132
3.00578
3.31224
3.71688
3.85062
3.83731
3.73197
3.51156
3.28826
3.23242
3.2116
3.01616
3.31973
3.72005
3.83811
3.82
3.70511
3.48952
3.27667
3.21883
3.20247
3.01241
3.30072
3.69459
3.81803
3.8037
3.70537
3.50668
3.28385
3.20533
3.18992
3.00462
3.27647
3.66404
3.80876
3.80081
3.71219
3.52387
3.29978
3.1959
3.1768
2.99984
3.26053
3.64229
3.80024
3.79591
3.71616
3.53984
3.31834
3.19533
3.17054
2.99725
3.255
3.63555
3.80403
3.80298
3.72944
3.5607
3.33681
3.19794
3.16893
2.995
3.2557
3.64102
3.81541
3.81478
3.74205
3.57087
3.33927
3.19954
3.17032
2.99643
3.26256
3.65243
3.82424
3.82195
3.74653
3.57254
3.34163
3.20398
3.17438
2.99889
3.26837
3.66055
3.82712
3.82363
3.74632
3.5693
3.33933
3.20895
3.18033
3.00114
3.27229
3.6648
3.82746
3.82267
3.7428
3.56341
3.33465
3.21096
3.18514
3.00312
3.27431
3.66623
3.82673
3.82145
3.73989
3.55895
3.33138
3.21055
3.18744
3.00408
3.27496
3.66628
3.82605
3.82055
3.73906
3.55754
3.32938
3.20983
3.18846
1
1
1
1
1
1
1.00013
1.01147
1.21552
2.09123
1
1
1
1
1
1
1.00014
1.01126
1.21944
2.09254
1
1
1
1
1
1.00001
1.00014
1.01124
1.21991
2.09436
1
1
1
1
1
1.00001
1.00015
1.01123
1.21886
2.1001
1
1
1
1
1
1.00001
1.00015
1.01114
1.21676
2.11126
1
1
1
1
1
1.00001
1.00016
1.01094
1.21486
2.12526
1
1
1
1
1
1.00001
1.00016
1.01067
1.21368
2.13993
1
1
1
1
1
1.00001
1.00017
1.01041
1.21319
2.15394
1
1
1
1
1
1.00001
1.00018
1.01018
1.21381
2.16777
1
1
1
1
1
1.00001
1.00019
1.00997
1.21511
2.17753
1
1
1
1
1
1.00001
1.0002
1.00974
1.21669
2.18403
1
1
1
1
1
1
1.0002
1.00949
1.21841
2.1887
1
1
1
1
1
1
1.00021
1.00923
1.21996
2.19194
1
1
1
1
1
1
1.00022
1.00908
1.22083
2.19245
1
1
1
1
1
1
1.00023
1.00905
1.22101
2.18916
1
1
1
1
1
1
1.00023
1.00904
1.22088
2.18684
1
1
1
1
1
1
1.00023
1.00906
1.22055
2.18647
1
1
1
1
1
1
1.00022
1.00909
1.2199
2.1867
1
1
1
1
1
1
1.00022
1.00913
1.21927
2.18772
1
1
1
1
1
1
1.00022
1.00914
1.21906
2.18846
1
1
1
1
1
1
1.00022
1.00914
1.21908
2.18829
1
1
1
1
1
1
1.00022
1.00913
1.21929
2.18758
1
1
1
1
1
1
1.00022
1.00909
1.21991
2.18661
1
1
1
1
1
1
1.00023
1.00906
1.22056
2.18638
1
1
1
1
1
1
1.00023
1.00904
1.22089
2.18674
1
1
1
1
1
1
1.00023
1.00905
1.22101
2.18906
1
1
1
1
1
1
1.00022
1.00908
1.22084
2.1924
1
1
1
1
1
1
1.00021
1.00923
1.21996
2.19191
1
1
1
1
1
1
1.0002
1.00949
1.21841
2.18869
1
1
1
1
1
1.00001
1.0002
1.00974
1.21669
2.18401
1
1
1
1
1
1.00001
1.00019
1.00997
1.21511
2.17753
1
1
1
1
1
1.00001
1.00018
1.01018
1.2138
2.16777
1
1
1
1
1
1.00001
1.00017
1.01041
1.21319
2.15395
1
1
1
1
1
1.00001
1.00016
1.01067
1.21368
2.13994
1
1
1
1
1
1.00001
1.00016
1.01094
1.21486
2.12527
1
1
1
1
1
1.00001
1.00015
1.01114
1.21676
2.11126
1
1
1
1
1
1.00001
1.00015
1.01123
1.21886
2.1001
1
1
1
1
1
1.00001
1.00014
1.01124
1.21991
2.09436
1
1
1
1
1
1
1.00014
1.01126
1.21944
2.09254
1
1
1
1
1
1
1.00013
1.01147
1.21552
2.09123
3.00354
3.27409
3.66532
3.826
3.8207
3.73963
3.55872
3.33061
3.2101
3.18847
3.00261
3.27346
3.66533
3.82669
3.82161
3.74047
3.56005
3.3325
3.21083
3.18747
3.00068
3.27149
3.66394
3.82735
3.82274
3.74326
3.56435
3.33564
3.21124
3.1852
2.99854
3.26776
3.65987
3.82701
3.82365
3.74666
3.57006
3.34018
3.20919
3.18039
2.9962
3.2622
3.65196
3.82422
3.82203
3.74685
3.57314
3.34229
3.20419
3.17445
2.99482
3.25545
3.64071
3.81547
3.81492
3.74234
3.57142
3.33974
3.19971
3.17041
2.99718
3.25494
3.63551
3.80408
3.80306
3.72956
3.56081
3.33696
3.19806
3.16903
2.99981
3.26049
3.64228
3.80027
3.79593
3.7162
3.53992
3.31843
3.19544
3.17063
3.00462
3.2765
3.66409
3.80878
3.80082
3.7122
3.52386
3.29979
3.19596
3.17687
3.01242
3.30078
3.69466
3.81806
3.80371
3.70534
3.50662
3.28381
3.20537
3.18998
3.01621
3.31981
3.72012
3.83813
3.82
3.70505
3.4894
3.27662
3.21884
3.2025
3.0058
3.31229
3.71693
3.85062
3.83729
3.73193
3.5115
3.28823
3.23242
3.21161
2.97172
3.26169
3.65967
3.83815
3.83969
3.76434
3.60442
3.39334
3.26597
3.22132
2.92487
3.18194
3.55483
3.76439
3.81849
3.76994
3.65703
3.52698
3.36289
3.25608
2.87373
3.09281
3.44796
3.65882
3.7313
3.74331
3.67538
3.57395
3.45488
3.45572
2.8268
3.01835
3.33375
3.60657
3.64062
3.65026
3.64068
3.56872
3.5397
4.17352
2.78781
2.96582
3.2302
3.54484
3.62434
3.60951
3.57903
3.54254
3.85656
5.87445
2.76401
2.92977
3.16595
3.47301
3.61749
3.62292
3.58865
3.71723
5.26468
7.30158
2.75701
2.90472
3.12766
3.41434
3.60839
3.63569
3.72525
4.96937
7.26664
7.72091
2.76116
2.90652
3.11043
3.39129
3.59589
3.71896
4.76821
7.42201
7.94582
7.73332
)
;

boundaryField
{
    inlet
    {
        type            fixedValue;
        value           uniform 1;
    }
    outlet
    {
        type            zeroGradient;
    }
    triangle
    {
        type            zeroGradient;
    }
    top
    {
        type            symmetryPlane;
    }
    bottom
    {
        type            symmetryPlane;
    }
    defaultFaces
    {
        type            empty;
    }
}


// ************************************************************************* //
