/*--------------------------------*- C++ -*----------------------------------*\
  =========                 |
  \\      /  F ield         | OpenFOAM: The Open Source CFD Toolbox
   \\    /   O peration     | Website:  https://openfoam.org
    \\  /    A nd           | Version:  7
     \\/     M anipulation  |
\*---------------------------------------------------------------------------*/
FoamFile
{
    version     2.0;
    format      ascii;
    class       volScalarField;
    location    "0.5";
    object      T;
}
// * * * * * * * * * * * * * * * * * * * * * * * * * * * * * * * * * * * * * //

dimensions      [0 0 0 1 0 0 0];

internalField   nonuniform List<scalar> 
2600
(
1.41624
1.37936
1.25761
1.2868
1.36168
1.46721
1.54094
1.51823
1.40934
1.15731
1.47138
1.41647
1.34001
1.3571
1.40881
1.48209
1.55974
1.52987
1.40995
1.1524
1.51452
1.42276
1.42793
1.43177
1.46836
1.52239
1.58572
1.54528
1.41132
1.14782
1.50082
1.44788
1.5126
1.51309
1.54514
1.59287
1.63029
1.57425
1.41736
1.14465
1.42104
1.46837
1.59532
1.60353
1.65104
1.6896
1.68701
1.61141
1.42778
1.14305
1.32895
1.46372
1.66086
1.71746
1.76167
1.77679
1.72997
1.64199
1.43436
1.14344
1.29382
1.44496
1.69448
1.81103
1.81089
1.81144
1.74241
1.65625
1.43512
1.14336
1.27713
1.43292
1.69494
1.8473
1.8053
1.7953
1.72804
1.64582
1.42855
1.14296
1.26362
1.42639
1.67502
1.82614
1.76716
1.75228
1.69968
1.62908
1.41712
1.14175
1.25671
1.41372
1.6507
1.79468
1.73532
1.72254
1.67901
1.6199
1.41012
1.14081
1.25671
1.41372
1.6507
1.79468
1.73532
1.72254
1.67901
1.6199
1.41012
1.14081
1.26362
1.42639
1.67502
1.82614
1.76716
1.75228
1.69968
1.62908
1.41712
1.14175
1.27713
1.43292
1.69494
1.8473
1.8053
1.7953
1.72804
1.64582
1.42855
1.14296
1.29382
1.44496
1.69448
1.81103
1.81089
1.81144
1.74241
1.65625
1.43512
1.14336
1.32895
1.46372
1.66086
1.71746
1.76167
1.77679
1.72997
1.64199
1.43436
1.14344
1.42104
1.46837
1.59532
1.60353
1.65104
1.6896
1.68701
1.61141
1.42778
1.14305
1.50082
1.44788
1.5126
1.51309
1.54514
1.59287
1.63029
1.57425
1.41736
1.14465
1.51452
1.42276
1.42793
1.43177
1.46836
1.52239
1.58572
1.54528
1.41132
1.14782
1.47138
1.41647
1.34001
1.3571
1.40881
1.48209
1.55974
1.52987
1.40995
1.1524
1.41624
1.37936
1.25761
1.2868
1.36168
1.46721
1.54094
1.51823
1.40934
1.15731
1.70467
1.33147
1.16176
1.17545
1.30661
1.46504
1.52536
1.50792
1.40868
1.16244
1.7111
1.31726
1.15057
1.06475
1.18631
1.46131
1.51422
1.49948
1.40719
1.16738
1.71312
1.34588
1.15912
1.06667
1.09122
1.42641
1.5053
1.49203
1.40616
1.17211
1.70783
1.37925
1.20665
1.10114
1.08646
1.36729
1.49371
1.48371
1.40591
1.17689
1.70113
1.41246
1.24129
1.12816
1.08408
1.29911
1.47812
1.47527
1.40602
1.18136
1.70134
1.43736
1.27564
1.1575
1.10637
1.24912
1.46049
1.46739
1.40577
1.18541
1.7056
1.46429
1.3118
1.19059
1.12478
1.2105
1.44086
1.46003
1.40338
1.18916
1.71568
1.49088
1.34162
1.22331
1.13679
1.1708
1.41278
1.45021
1.39957
1.19329
1.7305
1.51837
1.3752
1.25828
1.15829
1.16358
1.36749
1.43415
1.39382
1.19773
1.74681
1.5469
1.40584
1.28988
1.18113
1.17067
1.30239
1.40213
1.38132
1.20176
1.76405
1.57487
1.43665
1.32038
1.20374
1.18285
1.25814
1.36421
1.36544
1.20503
1.78128
1.6013
1.46601
1.34869
1.22946
1.19744
1.25437
1.34521
1.35806
1.20741
1.79672
1.62736
1.49328
1.37378
1.25314
1.21354
1.25679
1.33949
1.35454
1.20885
1.81126
1.65116
1.51913
1.39908
1.27852
1.22831
1.2626
1.33633
1.35308
1.21003
1.82432
1.67311
1.54224
1.42131
1.30252
1.24163
1.26911
1.33502
1.35346
1.21166
1.83569
1.69328
1.56396
1.44279
1.32742
1.25479
1.27624
1.33601
1.3552
1.2139
1.8458
1.71126
1.58365
1.46403
1.34841
1.2695
1.28515
1.33916
1.35825
1.21688
1.8548
1.72747
1.60161
1.48346
1.36789
1.28407
1.29401
1.34221
1.36164
1.22057
1.86288
1.74165
1.61785
1.50252
1.38577
1.29879
1.30484
1.34683
1.36569
1.22457
1.86983
1.75448
1.63295
1.52022
1.40343
1.31341
1.31574
1.35165
1.36968
1.22845
2.56569
2.51571
2.46394
2.41911
2.38433
2.35682
2.33101
2.30119
2.25572
2.21543
2.47868
2.43586
2.396
2.36391
2.33956
2.31776
2.29429
2.26383
2.21615
2.13274
2.40151
2.37183
2.33881
2.31071
2.28896
2.26895
2.24649
2.21671
2.171
2.06527
2.31998
2.29706
2.26756
2.24048
2.21783
2.19686
2.17398
2.14486
2.10142
2.0006
2.24531
2.22478
2.19705
2.17261
2.1503
2.12929
2.1068
2.07948
2.03824
1.95355
2.15497
2.14316
2.12281
2.10537
2.08942
2.07169
2.05139
2.02778
1.98914
1.92277
2.04589
2.06554
2.0586
2.05072
2.04287
2.02978
2.01376
1.99422
1.95942
1.90814
1.944
2.00689
2.01356
2.01473
2.0141
2.0059
1.99444
1.97866
1.94614
1.90401
1.83551
1.96869
1.99297
2.00048
2.0019
1.99579
1.98627
1.97155
1.94339
1.90585
1.71653
1.93563
1.99056
1.99686
1.99866
1.99314
1.98348
1.97
1.94539
1.91108
1.61314
1.86736
1.9847
2.00268
2.00077
1.99501
1.9843
1.97182
1.94937
1.9172
1.53334
1.70541
1.97064
2.00808
2.00247
1.99569
1.98678
1.97516
1.95333
1.92186
1.48362
1.54856
1.88108
2.01223
2.00606
1.99973
1.99175
1.97885
1.95567
1.92517
1.45349
1.48351
1.67865
1.98136
2.00745
2.00224
1.99489
1.97981
1.9569
1.92831
1.4314
1.45903
1.51635
1.85494
1.99328
2.00228
1.99405
1.97748
1.95589
1.93045
1.41379
1.4434
1.47129
1.6339
1.94638
1.9977
1.98939
1.97321
1.95466
1.93218
1.40312
1.43081
1.45845
1.50583
1.80768
1.9703
1.98319
1.968
1.95339
1.93393
1.397
1.42214
1.45218
1.48104
1.60875
1.89577
1.97757
1.96405
1.95353
1.93611
1.39263
1.41592
1.44619
1.47871
1.5175
1.74006
1.93721
1.96641
1.95644
1.93829
1.38945
1.41178
1.44095
1.4784
1.50192
1.57802
1.84457
1.97099
1.95993
1.93928
1
1
1
1
1
1
1.0002
1.0018
1.03143
1.85762
1
1
1
1
1
1
1.00019
1.00177
1.03287
1.83481
1
1
1
1
1
1
1.00016
1.00172
1.03597
1.79026
1
1
1
1
1
1
1.00013
1.00165
1.04121
1.73274
1
1
1
1
1
1
1.00011
1.00159
1.04222
1.67502
1
1
1
1
1
1
1.00009
1.00157
1.04027
1.6165
1
1
1
1
1
1
1.00008
1.0016
1.04047
1.55588
1
1
1
1
1
1
1.00006
1.00168
1.04055
1.48585
1
1
1
1
1
1
1.00006
1.00181
1.0411
1.42789
1
1
1
1
1
1
1.00005
1.00198
1.04171
1.38523
1
1
1
1
1
1
1.00005
1.00219
1.04253
1.35437
1
1
1
1
1
1
1.00004
1.00244
1.04376
1.33058
1
1
1
1
1
1
1.00004
1.0027
1.04542
1.30975
1
1
1
1
1
1
1.00004
1.00297
1.04733
1.29361
1
1
1
1
1
1
1.00004
1.00318
1.0495
1.28215
1
1
1
1
1
1
1.00004
1.00333
1.05171
1.27449
1
1
1
1
1
1
1.00004
1.00341
1.05408
1.26924
1
1
1
1
1
1
1.00004
1.00343
1.05635
1.26596
1
1
1
1
1
1
1.00004
1.00341
1.05839
1.26391
1
1
1
1
1
1
1.00004
1.00334
1.06037
1.26335
1
1
1
1
1
1
1.00004
1.00334
1.06037
1.26335
1
1
1
1
1
1
1.00004
1.00341
1.05839
1.26391
1
1
1
1
1
1
1.00004
1.00343
1.05635
1.26596
1
1
1
1
1
1
1.00004
1.00341
1.05408
1.26924
1
1
1
1
1
1
1.00004
1.00333
1.05171
1.27449
1
1
1
1
1
1
1.00004
1.00318
1.0495
1.28215
1
1
1
1
1
1
1.00004
1.00297
1.04733
1.29361
1
1
1
1
1
1
1.00004
1.0027
1.04542
1.30975
1
1
1
1
1
1
1.00004
1.00244
1.04376
1.33058
1
1
1
1
1
1
1.00005
1.00219
1.04253
1.35437
1
1
1
1
1
1
1.00005
1.00198
1.04171
1.38523
1
1
1
1
1
1
1.00006
1.00181
1.0411
1.42789
1
1
1
1
1
1
1.00006
1.00168
1.04055
1.48585
1
1
1
1
1
1
1.00008
1.0016
1.04047
1.55588
1
1
1
1
1
1
1.00009
1.00157
1.04027
1.6165
1
1
1
1
1
1
1.00011
1.00159
1.04222
1.67502
1
1
1
1
1
1
1.00013
1.00165
1.04121
1.73274
1
1
1
1
1
1
1.00016
1.00172
1.03597
1.79026
1
1
1
1
1
1
1.00019
1.00177
1.03287
1.83481
1
1
1
1
1
1
1.0002
1.0018
1.03143
1.85762
1.38945
1.41178
1.44095
1.4784
1.50192
1.57802
1.84457
1.97099
1.95993
1.93928
1.39263
1.41592
1.44619
1.47871
1.5175
1.74006
1.93721
1.96641
1.95644
1.93829
1.397
1.42214
1.45218
1.48104
1.60875
1.89577
1.97757
1.96405
1.95353
1.93611
1.40312
1.43081
1.45845
1.50583
1.80768
1.9703
1.98319
1.968
1.95339
1.93393
1.41379
1.4434
1.47129
1.6339
1.94638
1.9977
1.98939
1.97321
1.95466
1.93218
1.4314
1.45903
1.51635
1.85494
1.99328
2.00228
1.99405
1.97748
1.95589
1.93045
1.45349
1.48351
1.67865
1.98136
2.00745
2.00224
1.99489
1.97981
1.9569
1.92831
1.48362
1.54856
1.88108
2.01223
2.00606
1.99973
1.99175
1.97885
1.95567
1.92517
1.53334
1.70541
1.97064
2.00808
2.00247
1.99569
1.98678
1.97516
1.95333
1.92186
1.61314
1.86736
1.9847
2.00268
2.00077
1.99501
1.9843
1.97182
1.94937
1.9172
1.71653
1.93563
1.99056
1.99686
1.99866
1.99314
1.98348
1.97
1.94539
1.91108
1.83551
1.96869
1.99297
2.00048
2.0019
1.99579
1.98627
1.97155
1.94339
1.90585
1.944
2.00689
2.01356
2.01473
2.0141
2.0059
1.99444
1.97866
1.94614
1.90401
2.04589
2.06554
2.0586
2.05072
2.04287
2.02978
2.01376
1.99422
1.95942
1.90814
2.15497
2.14316
2.12281
2.10537
2.08942
2.07169
2.05139
2.02778
1.98914
1.92277
2.24531
2.22478
2.19705
2.17261
2.1503
2.12929
2.1068
2.07948
2.03824
1.95355
2.31998
2.29706
2.26756
2.24048
2.21783
2.19686
2.17398
2.14486
2.10142
2.0006
2.40151
2.37183
2.33881
2.31071
2.28896
2.26895
2.24649
2.21671
2.171
2.06527
2.47868
2.43586
2.396
2.36391
2.33956
2.31776
2.29429
2.26383
2.21615
2.13274
2.56569
2.51571
2.46394
2.41911
2.38433
2.35682
2.33101
2.30119
2.25572
2.21543
1.86983
1.75448
1.63295
1.52022
1.40343
1.31341
1.31574
1.35165
1.36968
1.22845
1.86288
1.74165
1.61785
1.50252
1.38577
1.29879
1.30484
1.34683
1.36569
1.22457
1.8548
1.72747
1.60161
1.48346
1.36789
1.28407
1.29401
1.34221
1.36164
1.22057
1.8458
1.71126
1.58365
1.46403
1.34841
1.2695
1.28515
1.33916
1.35825
1.21688
1.83569
1.69328
1.56396
1.44279
1.32742
1.25479
1.27624
1.33601
1.3552
1.2139
1.82432
1.67311
1.54224
1.42131
1.30252
1.24163
1.26911
1.33502
1.35346
1.21166
1.81126
1.65116
1.51913
1.39908
1.27852
1.22831
1.2626
1.33633
1.35308
1.21003
1.79672
1.62736
1.49328
1.37378
1.25314
1.21354
1.25679
1.33949
1.35454
1.20885
1.78128
1.6013
1.46601
1.34869
1.22946
1.19744
1.25437
1.34521
1.35806
1.20741
1.76405
1.57487
1.43665
1.32038
1.20374
1.18285
1.25814
1.36421
1.36544
1.20503
1.74681
1.5469
1.40584
1.28988
1.18113
1.17067
1.30239
1.40213
1.38132
1.20176
1.7305
1.51837
1.3752
1.25828
1.15829
1.16358
1.36749
1.43415
1.39382
1.19773
1.71568
1.49088
1.34162
1.22331
1.13679
1.1708
1.41278
1.45021
1.39957
1.19329
1.7056
1.46429
1.3118
1.19059
1.12478
1.2105
1.44086
1.46003
1.40338
1.18916
1.70134
1.43736
1.27564
1.1575
1.10637
1.24912
1.46049
1.46739
1.40577
1.18541
1.70113
1.41246
1.24129
1.12816
1.08408
1.29911
1.47812
1.47527
1.40602
1.18136
1.70783
1.37925
1.20665
1.10114
1.08646
1.36729
1.49371
1.48371
1.40591
1.17689
1.71312
1.34588
1.15912
1.06667
1.09122
1.42641
1.5053
1.49203
1.40616
1.17211
1.7111
1.31726
1.15057
1.06475
1.18631
1.46131
1.51422
1.49948
1.40719
1.16738
1.70467
1.33147
1.16176
1.17545
1.30661
1.46504
1.52536
1.50792
1.40868
1.16244
1.48534
1.50706
1.52575
1.57215
1.60723
1.59296
1.55742
1.50154
1.42166
1.24189
1.48509
1.50679
1.52802
1.57531
1.6017
1.58973
1.55443
1.49865
1.42118
1.24194
1.48473
1.50638
1.53212
1.57886
1.59447
1.58511
1.54915
1.4946
1.41908
1.23869
1.48411
1.50611
1.53884
1.5817
1.58756
1.5787
1.54087
1.48953
1.41779
1.23533
1.48314
1.50638
1.54849
1.58468
1.58119
1.57265
1.53214
1.48192
1.41189
1.229
1.48227
1.50741
1.56074
1.59628
1.59604
1.57426
1.52389
1.47361
1.40426
1.21961
1.4817
1.51011
1.57887
1.62581
1.62569
1.58967
1.5286
1.46847
1.39641
1.20863
1.48183
1.51681
1.61672
1.6635
1.65333
1.60041
1.53335
1.46515
1.38929
1.1984
1.4824
1.53647
1.67504
1.69402
1.66476
1.60024
1.53282
1.47141
1.3853
1.19133
1.48429
1.5866
1.72581
1.7132
1.66476
1.5946
1.5283
1.47735
1.39931
1.19219
1.49076
1.66811
1.75193
1.72195
1.66094
1.57986
1.52026
1.47942
1.41773
1.20515
1.51767
1.74292
1.76373
1.72422
1.64408
1.55378
1.50074
1.47763
1.42991
1.22212
1.58672
1.78703
1.77335
1.71595
1.62251
1.52844
1.47785
1.46703
1.43384
1.23652
1.69692
1.81857
1.77849
1.69622
1.59724
1.50512
1.45527
1.45014
1.42905
1.24558
1.80219
1.83667
1.77219
1.67561
1.57197
1.48182
1.4338
1.433
1.41751
1.24793
1.86613
1.83414
1.75557
1.65335
1.54685
1.45784
1.41185
1.41618
1.40571
1.24426
1.88996
1.83052
1.73495
1.63113
1.52066
1.42991
1.39168
1.4021
1.39859
1.24298
1.89242
1.8146
1.70966
1.60551
1.49327
1.39935
1.37239
1.38797
1.3903
1.24021
1.89153
1.79203
1.68204
1.57723
1.46262
1.36695
1.35344
1.37363
1.38227
1.23739
1.87831
1.77109
1.65528
1.54523
1.42991
1.33489
1.33258
1.36049
1.37576
1.2332
1.87831
1.77109
1.65528
1.54523
1.42991
1.33489
1.33258
1.36049
1.37576
1.2332
1.89153
1.79203
1.68204
1.57723
1.46262
1.36695
1.35344
1.37363
1.38227
1.23739
1.89242
1.8146
1.70966
1.60551
1.49327
1.39935
1.37239
1.38797
1.3903
1.24021
1.88996
1.83052
1.73495
1.63113
1.52066
1.42991
1.39168
1.4021
1.39859
1.24298
1.86613
1.83414
1.75557
1.65335
1.54685
1.45784
1.41185
1.41618
1.40571
1.24426
1.80219
1.83667
1.77219
1.67561
1.57197
1.48182
1.4338
1.433
1.41751
1.24793
1.69692
1.81857
1.77849
1.69622
1.59724
1.50512
1.45527
1.45014
1.42905
1.24558
1.58672
1.78703
1.77335
1.71595
1.62251
1.52844
1.47785
1.46703
1.43384
1.23652
1.51767
1.74292
1.76373
1.72422
1.64408
1.55378
1.50074
1.47763
1.42991
1.22212
1.49076
1.66811
1.75193
1.72195
1.66094
1.57986
1.52026
1.47942
1.41773
1.20515
1.48428
1.5866
1.72581
1.7132
1.66476
1.5946
1.5283
1.47735
1.39931
1.19219
1.4824
1.53647
1.67504
1.69402
1.66476
1.60024
1.53282
1.47141
1.3853
1.19133
1.48183
1.51681
1.61672
1.6635
1.65333
1.60041
1.53335
1.46515
1.38929
1.1984
1.4817
1.51011
1.57887
1.62581
1.62569
1.58967
1.5286
1.46847
1.39641
1.20863
1.48227
1.50741
1.56074
1.59628
1.59604
1.57426
1.52389
1.47361
1.40426
1.21961
1.48314
1.50639
1.54849
1.58468
1.58119
1.57265
1.53214
1.48192
1.41189
1.229
1.48411
1.50611
1.53885
1.5817
1.58756
1.5787
1.54087
1.48953
1.41779
1.23533
1.48474
1.50638
1.53212
1.57886
1.59447
1.58511
1.54915
1.4946
1.41908
1.23869
1.48509
1.5068
1.52803
1.57531
1.6017
1.58973
1.55443
1.49865
1.42118
1.24194
1.48535
1.50707
1.52575
1.57216
1.60723
1.59296
1.55742
1.50154
1.42166
1.24189
1.38705
1.40957
1.43926
1.47772
1.50404
1.5208
1.64817
1.89579
1.94856
1.93833
1.38608
1.40889
1.44147
1.47967
1.50336
1.5122
1.52823
1.67966
1.89179
1.94079
1.38659
1.41182
1.44633
1.48444
1.50573
1.51283
1.51343
1.53259
1.71174
1.90606
1.38932
1.41622
1.4539
1.4917
1.50866
1.51219
1.51143
1.51003
1.55174
1.77876
1.39417
1.42281
1.46579
1.50017
1.51196
1.51748
1.51731
1.50881
1.51197
1.59659
1.40018
1.43233
1.47928
1.50907
1.52326
1.52599
1.5194
1.50841
1.49986
1.50513
1.40705
1.44398
1.49301
1.52331
1.5322
1.52731
1.51519
1.50198
1.48675
1.48097
1.41369
1.45473
1.50704
1.53257
1.53345
1.52557
1.50753
1.48572
1.47499
1.47538
1.41882
1.4618
1.51476
1.53407
1.53305
1.52151
1.49599
1.47318
1.4707
1.47353
1.4206
1.46306
1.51532
1.53297
1.53143
1.51892
1.49359
1.47158
1.46905
1.4724
1.42036
1.4608
1.5122
1.53126
1.53024
1.51981
1.49653
1.47242
1.46768
1.47025
1.4196
1.45787
1.50833
1.53069
1.53055
1.52149
1.49976
1.47449
1.46683
1.46839
1.41911
1.45592
1.50548
1.52993
1.53037
1.52247
1.50242
1.47698
1.46688
1.46767
1.41873
1.4552
1.50455
1.53033
1.5313
1.52411
1.50513
1.47921
1.46713
1.46751
1.41829
1.45517
1.50521
1.53151
1.53247
1.52535
1.50622
1.47925
1.46713
1.46765
1.41834
1.45592
1.5066
1.53238
1.53304
1.52562
1.50609
1.47936
1.46746
1.46812
1.41859
1.4566
1.50761
1.53263
1.53309
1.52541
1.50536
1.47899
1.46804
1.4688
1.4189
1.4571
1.50818
1.53267
1.53296
1.52496
1.50454
1.47845
1.4684
1.46931
1.41922
1.45741
1.50838
1.53263
1.53286
1.52466
1.50402
1.47814
1.46846
1.46953
1.41937
1.45751
1.50838
1.53257
1.53278
1.5246
1.50387
1.47795
1.46843
1.46962
1
1
1
1
1
1
1.00004
1.00324
1.06252
1.26342
1
1
1
1
1
1
1.00004
1.00318
1.06365
1.2635
1
1
1
1
1
1
1.00004
1.00317
1.06388
1.2635
1
1
1
1
1
1
1.00004
1.00317
1.06372
1.26402
1
1
1
1
1
1
1.00004
1.00315
1.06328
1.26536
1
1
1
1
1
1
1.00005
1.00309
1.06287
1.26718
1
1
1
1
1
1
1.00005
1.00301
1.06267
1.26928
1
1
1
1
1
1
1.00005
1.00294
1.06264
1.27157
1
1
1
1
1
1
1.00005
1.00288
1.06294
1.27412
1
1
1
1
1
1
1.00005
1.00282
1.06341
1.27606
1
1
1
1
1
1
1.00006
1.00275
1.06391
1.27745
1
1
1
1
1
1
1.00006
1.00268
1.0644
1.27851
1
1
1
1
1
1
1.00006
1.00261
1.06481
1.2792
1
1
1
1
1
1
1.00006
1.00257
1.06502
1.27931
1
1
1
1
1
1
1.00006
1.00256
1.06505
1.27866
1
1
1
1
1
1
1.00006
1.00256
1.06499
1.27815
1
1
1
1
1
1
1.00006
1.00256
1.06489
1.27802
1
1
1
1
1
1
1.00006
1.00257
1.06472
1.27805
1
1
1
1
1
1
1.00006
1.00258
1.06456
1.27823
1
1
1
1
1
1
1.00006
1.00259
1.06451
1.27836
1
1
1
1
1
1
1.00006
1.00259
1.06451
1.27836
1
1
1
1
1
1
1.00006
1.00258
1.06456
1.27823
1
1
1
1
1
1
1.00006
1.00257
1.06472
1.27805
1
1
1
1
1
1
1.00006
1.00256
1.06489
1.27802
1
1
1
1
1
1
1.00006
1.00256
1.06499
1.27814
1
1
1
1
1
1
1.00006
1.00256
1.06505
1.27866
1
1
1
1
1
1
1.00006
1.00257
1.06502
1.2793
1
1
1
1
1
1
1.00006
1.00261
1.06481
1.2792
1
1
1
1
1
1
1.00006
1.00268
1.0644
1.27851
1
1
1
1
1
1
1.00006
1.00275
1.06391
1.27744
1
1
1
1
1
1
1.00005
1.00282
1.06341
1.27606
1
1
1
1
1
1
1.00005
1.00288
1.06294
1.27412
1
1
1
1
1
1
1.00005
1.00294
1.06264
1.27157
1
1
1
1
1
1
1.00005
1.00301
1.06267
1.26928
1
1
1
1
1
1
1.00005
1.00309
1.06287
1.26718
1
1
1
1
1
1
1.00004
1.00315
1.06328
1.26536
1
1
1
1
1
1
1.00004
1.00317
1.06372
1.26402
1
1
1
1
1
1
1.00004
1.00317
1.06388
1.2635
1
1
1
1
1
1
1.00004
1.00318
1.06365
1.2635
1
1
1
1
1
1
1.00004
1.00324
1.06252
1.26342
1.41935
1.45749
1.50835
1.53257
1.53279
1.52461
1.50391
1.47798
1.46844
1.46962
1.4192
1.45738
1.50835
1.53263
1.53286
1.52468
1.50405
1.47818
1.46847
1.46954
1.41889
1.45708
1.50815
1.53267
1.53297
1.52497
1.50457
1.47848
1.4684
1.46932
1.41858
1.45658
1.50759
1.53263
1.53309
1.52542
1.50539
1.47902
1.46805
1.4688
1.41833
1.45591
1.50658
1.53238
1.53304
1.52563
1.50611
1.47938
1.46747
1.46812
1.41829
1.45516
1.5052
1.53151
1.53247
1.52536
1.50624
1.47927
1.46714
1.46765
1.41873
1.45519
1.50454
1.53033
1.5313
1.52412
1.50514
1.47921
1.46713
1.46751
1.4191
1.45592
1.50548
1.52993
1.53037
1.52247
1.50243
1.47698
1.46689
1.46767
1.4196
1.45787
1.50833
1.53069
1.53055
1.52149
1.49976
1.47449
1.46683
1.46839
1.42036
1.4608
1.51221
1.53126
1.53024
1.51981
1.49653
1.47242
1.46769
1.47025
1.4206
1.46306
1.51532
1.53297
1.53143
1.51892
1.49359
1.47158
1.46905
1.4724
1.41882
1.4618
1.51476
1.53407
1.53305
1.52151
1.49599
1.47318
1.4707
1.47353
1.4137
1.45473
1.50704
1.53257
1.53345
1.52557
1.50753
1.48572
1.47499
1.47538
1.40705
1.44398
1.49301
1.52331
1.5322
1.52731
1.51518
1.50198
1.48675
1.48097
1.40018
1.43233
1.47928
1.50907
1.52326
1.52599
1.5194
1.50841
1.49986
1.50512
1.39417
1.42281
1.46579
1.50017
1.51196
1.51748
1.51731
1.50881
1.51197
1.59659
1.38932
1.41622
1.4539
1.4917
1.50866
1.51219
1.51143
1.51003
1.55174
1.77876
1.38659
1.41182
1.44633
1.48444
1.50573
1.51283
1.51343
1.53259
1.71174
1.90606
1.38608
1.40889
1.44147
1.47967
1.50336
1.5122
1.52823
1.67966
1.89179
1.94079
1.38705
1.40957
1.43926
1.47772
1.50404
1.5208
1.64817
1.89579
1.94856
1.93833
)
;

boundaryField
{
    inlet
    {
        type            fixedValue;
        value           uniform 1;
    }
    outlet
    {
        type            inletOutlet;
        inletValue      uniform 1;
        value           nonuniform List<scalar> 
100
(
1.23007
1.23414
1.23675
1.23947
1.24072
1.24424
1.24154
1.23215
1.21756
1.20067
1.18827
1.18769
1.19485
1.20509
1.21613
1.22564
1.23204
1.23554
1.23888
1.23888
1.15899
1.16395
1.16872
1.17353
1.17799
1.18203
1.18579
1.18992
1.19443
1.19859
1.20201
1.20446
1.20596
1.20717
1.2088
1.21101
1.21394
1.21758
1.22154
1.22538
1.15385
1.14896
1.14439
1.14123
1.1396
1.14
1.13992
1.13955
1.13842
1.13753
1.13753
1.13842
1.13955
1.13992
1.14
1.1396
1.14123
1.14439
1.14896
1.15385
1.22538
1.22154
1.21758
1.21394
1.21101
1.2088
1.20717
1.20596
1.20446
1.20201
1.19859
1.19443
1.18992
1.18579
1.18203
1.17799
1.17353
1.16872
1.16395
1.15899
1.23888
1.23888
1.23554
1.23204
1.22564
1.21613
1.20509
1.19485
1.18769
1.18827
1.20067
1.21756
1.23215
1.24154
1.24424
1.24072
1.23947
1.23675
1.23414
1.23007
)
;
    }
    triangle
    {
        type            zeroGradient;
    }
    top
    {
        type            symmetryPlane;
    }
    bottom
    {
        type            symmetryPlane;
    }
    defaultFaces
    {
        type            empty;
    }
}


// ************************************************************************* //
