/*--------------------------------*- C++ -*----------------------------------*\
  =========                 |
  \\      /  F ield         | OpenFOAM: The Open Source CFD Toolbox
   \\    /   O peration     | Website:  https://openfoam.org
    \\  /    A nd           | Version:  7
     \\/     M anipulation  |
\*---------------------------------------------------------------------------*/
FoamFile
{
    version     2.0;
    format      ascii;
    class       volVectorField;
    location    "0.5";
    object      U;
}
// * * * * * * * * * * * * * * * * * * * * * * * * * * * * * * * * * * * * * //

dimensions      [0 1 -1 0 0 0 0];

internalField   nonuniform List<vector> 
2600
(
(1.77435 0.837079 0)
(2.41471 0.707939 0)
(2.39263 0.714447 0)
(2.35474 0.3691 0)
(2.31685 0.165314 0)
(2.19524 0.0704619 0)
(1.94379 0.0439203 0)
(1.86758 0.0937217 0)
(1.71231 0.148597 0)
(1.3192 0.081669 0)
(1.59913 0.512531 0)
(2.28481 0.624288 0)
(2.4404 0.609549 0)
(2.34725 0.333314 0)
(2.34748 0.139427 0)
(2.20419 0.0713679 0)
(1.93752 0.0358175 0)
(1.8534 0.0920659 0)
(1.69331 0.145417 0)
(1.30808 0.0754696 0)
(1.17723 0.22215 0)
(2.04484 0.553548 0)
(2.40839 0.533447 0)
(2.34892 0.282678 0)
(2.36507 0.0892157 0)
(2.22182 0.0724606 0)
(1.93657 0.0446584 0)
(1.84498 0.103704 0)
(1.67862 0.14426 0)
(1.29803 0.0674371 0)
(0.618308 0.12168 0)
(1.68238 0.467709 0)
(2.2985 0.477102 0)
(2.32327 0.235582 0)
(2.36308 0.0663412 0)
(2.2338 0.0726383 0)
(1.93839 0.0548831 0)
(1.8375 0.107805 0)
(1.67219 0.142481 0)
(1.29212 0.0577508 0)
(0.180337 -0.0164642 0)
(1.22667 0.312699 0)
(2.03564 0.420087 0)
(2.23146 0.210409 0)
(2.29562 0.0573658 0)
(2.18506 0.0857099 0)
(1.91142 0.0593005 0)
(1.81039 0.0890185 0)
(1.67437 0.13236 0)
(1.29143 0.0488789 0)
(-0.0713135 -0.132059 0)
(0.730718 0.176253 0)
(1.61506 0.316703 0)
(2.02664 0.142134 0)
(2.04928 0.00977944 0)
(1.96723 0.0731133 0)
(1.79663 0.0761665 0)
(1.75144 0.0847419 0)
(1.662 0.125561 0)
(1.29837 0.0423561 0)
(-0.236596 -0.133855 0)
(0.28063 0.038412 0)
(1.06828 0.245553 0)
(1.59032 0.0896494 0)
(1.5426 0.0308478 0)
(1.54468 0.0813603 0)
(1.56736 0.073516 0)
(1.65529 0.0628967 0)
(1.6279 0.108985 0)
(1.30272 0.0350044 0)
(-0.349273 -0.120951 0)
(-0.0902599 0.0236377 0)
(0.499667 0.13308 0)
(0.963534 0.0830104 0)
(0.958352 0.00916187 0)
(1.07206 0.0523056 0)
(1.29533 0.0696555 0)
(1.52175 0.0466637 0)
(1.56854 0.0900773 0)
(1.30637 0.0270732 0)
(-0.419252 -0.0962696 0)
(-0.319322 0.0309844 0)
(0.0687149 0.0961485 0)
(0.445395 0.0535553 0)
(0.555316 0.0274437 0)
(0.746211 0.0458558 0)
(1.08895 0.0506255 0)
(1.39806 0.0371895 0)
(1.50605 0.0596952 0)
(1.31012 0.0182356 0)
(-0.444488 -0.033552 0)
(-0.399394 0.0112954 0)
(-0.105976 0.0378543 0)
(0.239312 0.0258349 0)
(0.411576 0.0108529 0)
(0.625836 0.0194067 0)
(1.00007 0.0209293 0)
(1.33541 0.0159594 0)
(1.46445 0.0226551 0)
(1.30762 0.00664057 0)
(-0.444488 0.0335524 0)
(-0.399394 -0.011293 0)
(-0.105976 -0.037854 0)
(0.239313 -0.0258354 0)
(0.411576 -0.0108537 0)
(0.625836 -0.0194073 0)
(1.00007 -0.0209283 0)
(1.33541 -0.015959 0)
(1.46445 -0.0226551 0)
(1.30762 -0.00664058 0)
(-0.419252 0.0962699 0)
(-0.319322 -0.0309852 0)
(0.0687151 -0.0961486 0)
(0.445395 -0.0535553 0)
(0.555316 -0.0274432 0)
(0.746212 -0.0458551 0)
(1.08895 -0.0506263 0)
(1.39806 -0.0371899 0)
(1.50605 -0.0596953 0)
(1.31012 -0.0182356 0)
(-0.349272 0.120952 0)
(-0.0902595 -0.0236377 0)
(0.499668 -0.133081 0)
(0.963535 -0.0830107 0)
(0.958353 -0.00916196 0)
(1.07206 -0.0523056 0)
(1.29533 -0.0696559 0)
(1.52175 -0.0466638 0)
(1.56854 -0.0900773 0)
(1.30637 -0.0270732 0)
(-0.236596 0.133855 0)
(0.280631 -0.0384131 0)
(1.06828 -0.245553 0)
(1.59032 -0.0896492 0)
(1.5426 -0.0308477 0)
(1.54468 -0.0813604 0)
(1.56736 -0.0735161 0)
(1.65529 -0.0628967 0)
(1.6279 -0.108985 0)
(1.30272 -0.0350044 0)
(-0.0713137 0.13206 0)
(0.730718 -0.176253 0)
(1.61506 -0.316703 0)
(2.02664 -0.142134 0)
(2.04928 -0.00977961 0)
(1.96723 -0.0731136 0)
(1.79663 -0.0761664 0)
(1.75144 -0.0847418 0)
(1.662 -0.125561 0)
(1.29837 -0.0423561 0)
(0.180337 0.0164654 0)
(1.22667 -0.312698 0)
(2.03564 -0.420087 0)
(2.23146 -0.210409 0)
(2.29562 -0.0573662 0)
(2.18506 -0.0857099 0)
(1.91142 -0.0593004 0)
(1.81039 -0.0890185 0)
(1.67437 -0.13236 0)
(1.29143 -0.0488789 0)
(0.618308 -0.12168 0)
(1.68238 -0.467709 0)
(2.2985 -0.477102 0)
(2.32327 -0.235582 0)
(2.36308 -0.0663413 0)
(2.2338 -0.0726383 0)
(1.93839 -0.054883 0)
(1.8375 -0.107805 0)
(1.67219 -0.142481 0)
(1.29212 -0.0577508 0)
(1.17723 -0.222151 0)
(2.04484 -0.553548 0)
(2.40839 -0.533447 0)
(2.34892 -0.282679 0)
(2.36507 -0.0892157 0)
(2.22182 -0.0724607 0)
(1.93657 -0.0446585 0)
(1.84498 -0.103704 0)
(1.67862 -0.14426 0)
(1.29803 -0.0674371 0)
(1.59913 -0.512531 0)
(2.28481 -0.624288 0)
(2.4404 -0.609549 0)
(2.34725 -0.333314 0)
(2.34748 -0.139427 0)
(2.20419 -0.0713678 0)
(1.93752 -0.0358175 0)
(1.8534 -0.0920659 0)
(1.69331 -0.145417 0)
(1.30808 -0.0754696 0)
(1.77435 -0.837079 0)
(2.41471 -0.707939 0)
(2.39263 -0.714447 0)
(2.35474 -0.3691 0)
(2.31685 -0.165314 0)
(2.19524 -0.0704618 0)
(1.94379 -0.0439202 0)
(1.86758 -0.0937217 0)
(1.71231 -0.148597 0)
(1.3192 -0.081669 0)
(1.97144 -0.337725 0)
(2.34301 -0.710213 0)
(2.36031 -0.843524 0)
(2.42834 -0.642737 0)
(2.37615 -0.324073 0)
(2.19725 -0.0830643 0)
(1.95168 -0.0573227 0)
(1.88624 -0.101212 0)
(1.73403 -0.154923 0)
(1.33104 -0.0866708 0)
(1.90809 -0.0124892 0)
(2.32137 -0.46275 0)
(2.34466 -0.854773 0)
(2.47035 -0.837884 0)
(2.41653 -0.552751 0)
(2.21342 -0.12489 0)
(1.97411 -0.0695214 0)
(1.91077 -0.111356 0)
(1.75508 -0.162917 0)
(1.34277 -0.0905928 0)
(1.85016 0.118042 0)
(2.28772 -0.386113 0)
(2.35149 -0.735896 0)
(2.45941 -0.796872 0)
(2.44328 -0.762736 0)
(2.2435 -0.171187 0)
(2.00399 -0.0786263 0)
(1.93397 -0.118514 0)
(1.77298 -0.166845 0)
(1.35381 -0.0923969 0)
(1.80299 0.196462 0)
(2.20781 -0.182583 0)
(2.33684 -0.6292 0)
(2.46225 -0.759756 0)
(2.45928 -0.768142 0)
(2.32617 -0.276612 0)
(2.03865 -0.0900144 0)
(1.95348 -0.124407 0)
(1.78746 -0.16726 0)
(1.36368 -0.0929977 0)
(1.77575 0.248499 0)
(2.17496 -0.124358 0)
(2.32061 -0.529421 0)
(2.44732 -0.653024 0)
(2.45742 -0.732486 0)
(2.37845 -0.370066 0)
(2.07914 -0.0989383 0)
(1.9706 -0.125995 0)
(1.79784 -0.165049 0)
(1.3714 -0.0927421 0)
(1.75786 0.292235 0)
(2.12783 -0.0111621 0)
(2.29721 -0.403344 0)
(2.41556 -0.582764 0)
(2.45733 -0.700814 0)
(2.39739 -0.444004 0)
(2.12253 -0.115924 0)
(1.98326 -0.131874 0)
(1.8037 -0.163293 0)
(1.37791 -0.0935307 0)
(1.74926 0.32464 0)
(2.1018 0.0434441 0)
(2.28704 -0.336756 0)
(2.38552 -0.502095 0)
(2.45886 -0.679376 0)
(2.41294 -0.518998 0)
(2.17237 -0.146567 0)
(1.9903 -0.141167 0)
(1.81031 -0.160055 0)
(1.38545 -0.0958823 0)
(1.73725 0.357254 0)
(2.07018 0.10863 0)
(2.26389 -0.244003 0)
(2.36697 -0.434431 0)
(2.44629 -0.622615 0)
(2.42437 -0.604491 0)
(2.21834 -0.193213 0)
(1.98555 -0.144911 0)
(1.8164 -0.159315 0)
(1.39574 -0.098736 0)
(1.72672 0.383021 0)
(2.04532 0.152547 0)
(2.24237 -0.178407 0)
(2.34771 -0.358702 0)
(2.43478 -0.574477 0)
(2.42567 -0.621186 0)
(2.27321 -0.283909 0)
(1.98126 -0.170373 0)
(1.82374 -0.16984 0)
(1.40705 -0.101511 0)
(1.71408 0.406445 0)
(2.01246 0.199842 0)
(2.21883 -0.120863 0)
(2.33021 -0.308004 0)
(2.42491 -0.530741 0)
(2.41789 -0.609674 0)
(2.29664 -0.407548 0)
(1.98986 -0.218349 0)
(1.8309 -0.188694 0)
(1.41598 -0.1015 0)
(1.69291 0.429403 0)
(1.98642 0.231878 0)
(2.18776 -0.0609871 0)
(2.30579 -0.244631 0)
(2.40715 -0.462363 0)
(2.40872 -0.583439 0)
(2.30656 -0.487635 0)
(2.0086 -0.288357 0)
(1.83752 -0.212756 0)
(1.42169 -0.0988005 0)
(1.67704 0.445526 0)
(1.95271 0.268622 0)
(2.16358 -0.0190525 0)
(2.28914 -0.206375 0)
(2.3987 -0.418106 0)
(2.40064 -0.549062 0)
(2.31117 -0.487103 0)
(2.02023 -0.316256 0)
(1.84197 -0.220273 0)
(1.42652 -0.0949869 0)
(1.65556 0.461175 0)
(1.92491 0.294133 0)
(2.13221 0.0289351 0)
(2.26403 -0.152184 0)
(2.38587 -0.36519 0)
(2.39297 -0.517061 0)
(2.31151 -0.476565 0)
(2.02886 -0.31723 0)
(1.84497 -0.217541 0)
(1.42941 -0.0908262 0)
(1.63757 0.473524 0)
(1.89639 0.319044 0)
(2.1074 0.065261 0)
(2.24421 -0.116426 0)
(2.38204 -0.322546 0)
(2.38487 -0.488168 0)
(2.30144 -0.452382 0)
(2.03443 -0.312462 0)
(1.84497 -0.209915 0)
(1.43157 -0.0868564 0)
(1.61845 0.483778 0)
(1.86998 0.340087 0)
(2.08057 0.103418 0)
(2.22006 -0.0768327 0)
(2.38495 -0.278214 0)
(2.36962 -0.456855 0)
(2.2865 -0.426682 0)
(2.0363 -0.302071 0)
(1.84585 -0.199529 0)
(1.43476 -0.0832231 0)
(1.60379 0.491473 0)
(1.84602 0.358118 0)
(2.05651 0.136402 0)
(2.19376 -0.0405999 0)
(2.39264 -0.236842 0)
(2.3485 -0.424679 0)
(2.27198 -0.40097 0)
(2.03766 -0.287403 0)
(1.85074 -0.188499 0)
(1.43999 -0.080282 0)
(1.58828 0.497619 0)
(1.8247 0.373139 0)
(2.03421 0.166183 0)
(2.17112 -0.00994306 0)
(2.3942 -0.204141 0)
(2.33448 -0.393683 0)
(2.26457 -0.379054 0)
(2.04496 -0.27622 0)
(1.86064 -0.178623 0)
(1.44689 -0.077196 0)
(1.57566 0.501841 0)
(1.80372 0.387135 0)
(2.0116 0.194437 0)
(2.15278 0.0177317 0)
(2.37646 -0.159864 0)
(2.32847 -0.36197 0)
(2.26115 -0.355305 0)
(2.05492 -0.262258 0)
(1.8737 -0.16906 0)
(1.45531 -0.0749228 0)
(1.56326 0.505927 0)
(1.78576 0.398722 0)
(1.99137 0.218932 0)
(2.13682 0.0468172 0)
(2.35595 -0.133315 0)
(2.32269 -0.328501 0)
(2.25899 -0.32946 0)
(2.06621 -0.247251 0)
(1.8884 -0.158293 0)
(1.46382 -0.0715107 0)
(1.55426 0.509797 0)
(1.76799 0.411673 0)
(1.97113 0.243332 0)
(2.12753 0.0679797 0)
(2.32478 -0.092182 0)
(2.31897 -0.301034 0)
(2.2599 -0.310337 0)
(2.07999 -0.234811 0)
(1.90365 -0.148731 0)
(1.47183 -0.0678935 0)
(0.532073 0.167335 0)
(0.607803 0.222615 0)
(0.658551 0.297387 0)
(0.705209 0.350927 0)
(0.745925 0.388782 0)
(0.789314 0.417167 0)
(0.840171 0.445655 0)
(0.906463 0.47861 0)
(1.00111 0.523834 0)
(1.18271 0.561612 0)
(0.568812 0.21868 0)
(0.61149 0.257776 0)
(0.645768 0.31528 0)
(0.691053 0.359163 0)
(0.736471 0.392967 0)
(0.785321 0.420237 0)
(0.839831 0.449044 0)
(0.907786 0.483051 0)
(1.006 0.527603 0)
(1.18275 0.560885 0)
(0.64595 0.231117 0)
(0.662434 0.254928 0)
(0.686862 0.291247 0)
(0.724338 0.324752 0)
(0.765699 0.357442 0)
(0.813948 0.386166 0)
(0.8682 0.416982 0)
(0.935342 0.451523 0)
(1.0351 0.493202 0)
(1.20891 0.500185 0)
(0.729995 0.270979 0)
(0.740539 0.292749 0)
(0.763622 0.324432 0)
(0.794539 0.351448 0)
(0.828083 0.379692 0)
(0.869798 0.404858 0)
(0.918349 0.432702 0)
(0.982403 0.461626 0)
(1.0792 0.491292 0)
(1.25085 0.498862 0)
(0.843944 0.29341 0)
(0.849895 0.311476 0)
(0.873723 0.339246 0)
(0.895997 0.366418 0)
(0.919616 0.391402 0)
(0.951089 0.412683 0)
(0.991507 0.437652 0)
(1.05058 0.46428 0)
(1.13922 0.48368 0)
(1.29679 0.490407 0)
(0.982228 0.311735 0)
(0.963782 0.34178 0)
(0.975926 0.371879 0)
(0.984008 0.397728 0)
(0.994468 0.422899 0)
(1.01888 0.440931 0)
(1.057 0.459164 0)
(1.11528 0.479842 0)
(1.19872 0.489936 0)
(1.33789 0.496091 0)
(1.13028 0.372658 0)
(1.0692 0.391427 0)
(1.06028 0.406399 0)
(1.05505 0.420172 0)
(1.06048 0.435487 0)
(1.08347 0.44453 0)
(1.11902 0.459634 0)
(1.17524 0.478147 0)
(1.25359 0.490584 0)
(1.37385 0.496934 0)
(1.27268 0.445867 0)
(1.1606 0.451145 0)
(1.12743 0.443924 0)
(1.11739 0.442026 0)
(1.11948 0.453007 0)
(1.14213 0.463962 0)
(1.17477 0.47638 0)
(1.22543 0.491385 0)
(1.29732 0.496619 0)
(1.40116 0.50002 0)
(1.47189 0.485005 0)
(1.2392 0.502794 0)
(1.19565 0.470359 0)
(1.1831 0.462456 0)
(1.18441 0.464864 0)
(1.20203 0.468631 0)
(1.22717 0.47771 0)
(1.26712 0.48841 0)
(1.3305 0.496605 0)
(1.41802 0.503488 0)
(1.74388 0.451158 0)
(1.35144 0.525124 0)
(1.24411 0.490516 0)
(1.23834 0.479004 0)
(1.23656 0.478148 0)
(1.24487 0.482298 0)
(1.26084 0.489868 0)
(1.29372 0.497367 0)
(1.35132 0.502549 0)
(1.42665 0.508076 0)
(1.93046 0.332748 0)
(1.5248 0.487205 0)
(1.26375 0.495281 0)
(1.25875 0.487113 0)
(1.25942 0.486825 0)
(1.2644 0.491687 0)
(1.27798 0.495367 0)
(1.30907 0.49987 0)
(1.36224 0.502883 0)
(1.42909 0.511596 0)
(2.02103 0.221454 0)
(1.78501 0.360736 0)
(1.30358 0.474553 0)
(1.25745 0.488039 0)
(1.26051 0.492319 0)
(1.26565 0.497013 0)
(1.28336 0.496311 0)
(1.31635 0.498183 0)
(1.36492 0.503016 0)
(1.42747 0.515555 0)
(2.08024 0.140215 0)
(2.02076 0.175037 0)
(1.43915 0.427085 0)
(1.25108 0.478624 0)
(1.25577 0.488243 0)
(1.26533 0.491301 0)
(1.2855 0.490083 0)
(1.31924 0.493685 0)
(1.36565 0.503854 0)
(1.42404 0.51877 0)
(2.11944 0.0845857 0)
(2.08047 0.0853578 0)
(1.81143 0.259819 0)
(1.29968 0.445927 0)
(1.25466 0.482697 0)
(1.26651 0.482775 0)
(1.29013 0.482739 0)
(1.3252 0.489249 0)
(1.36853 0.505909 0)
(1.42094 0.523423 0)
(2.14547 0.0409446 0)
(2.09842 0.0448346 0)
(2.03818 0.0785395 0)
(1.4951 0.383548 0)
(1.25163 0.48489 0)
(1.25708 0.478826 0)
(1.28865 0.473711 0)
(1.32858 0.486025 0)
(1.36881 0.507583 0)
(1.41471 0.526114 0)
(2.16196 0.0105423 0)
(2.11395 0.0150398 0)
(2.069 0.0207565 0)
(1.88568 0.18617 0)
(1.30495 0.441897 0)
(1.26438 0.462208 0)
(1.30143 0.465506 0)
(1.33534 0.482456 0)
(1.36671 0.510897 0)
(1.40835 0.528942 0)
(2.17125 -0.00550038 0)
(2.12824 -0.00725681 0)
(2.07477 0.00471361 0)
(2.0203 0.0321854 0)
(1.58883 0.335681 0)
(1.27498 0.455813 0)
(1.29972 0.455045 0)
(1.33747 0.481546 0)
(1.36191 0.513642 0)
(1.40173 0.530027 0)
(2.17872 -0.0194007 0)
(2.14009 -0.0254639 0)
(2.0821 -0.000400373 0)
(2.03237 -0.00494877 0)
(1.90099 0.1207 0)
(1.37868 0.403979 0)
(1.3125 0.434099 0)
(1.3432 0.481961 0)
(1.35957 0.516871 0)
(1.3971 0.531164 0)
(2.18474 -0.0301962 0)
(2.14624 -0.0336552 0)
(2.09018 -0.0105707 0)
(2.02668 -0.0102968 0)
(1.983 0.000662176 0)
(1.69329 0.254684 0)
(1.3279 0.42482 0)
(1.34547 0.487888 0)
(1.36055 0.513185 0)
(1.39611 0.529754 0)
(2.19044 -0.0396749 0)
(2.15101 -0.0382607 0)
(2.09498 -0.0189501 0)
(2.02591 -0.0127587 0)
(1.99221 -0.032075 0)
(1.92043 0.0519279 0)
(1.47524 0.365992 0)
(1.35862 0.469829 0)
(1.36632 0.509121 0)
(1.39854 0.52939 0)
(3 1.12819e-15 0)
(3 2.43391e-13 0)
(3 -1.74891e-11 0)
(3 4.66631e-11 0)
(3 -1.62581e-08 0)
(3 5.40936e-07 0)
(2.99977 -0.00011253 0)
(2.99407 0.000656105 0)
(3.20714 -0.00790388 0)
(1.27272 0.0416648 0)
(3 5.51939e-16 0)
(3 5.13094e-13 0)
(3 -4.41419e-11 0)
(3 1.41584e-10 0)
(3 -1.74419e-08 0)
(3 1.57205e-06 0)
(2.99983 -0.000287225 0)
(2.99407 0.00198634 0)
(3.20887 -0.0229921 0)
(1.32055 0.129455 0)
(3 -2.09263e-16 0)
(3 7.26161e-13 0)
(3 -7.55103e-11 0)
(3 2.32728e-10 0)
(3 -6.31122e-08 0)
(3 2.55683e-06 0)
(2.99995 -0.000403647 0)
(2.99438 0.00327132 0)
(3.1897 -0.0419229 0)
(1.40195 0.199621 0)
(3 1.70025e-15 0)
(3 8.32188e-13 0)
(3 -1.12803e-10 0)
(3 3.22421e-10 0)
(3 -1.00792e-07 0)
(3 3.50391e-06 0)
(3.00007 -0.000465395 0)
(2.99478 0.00449095 0)
(3.15466 -0.0648845 0)
(1.50484 0.265312 0)
(3 7.05374e-16 0)
(3 8.8233e-13 0)
(3 -1.53308e-10 0)
(3 4.11207e-10 0)
(3 -1.26638e-07 0)
(3 4.40034e-06 0)
(3.00015 -0.000488538 0)
(2.99538 0.00569506 0)
(3.06365 -0.0852313 0)
(1.64803 0.319476 0)
(3 -6.20247e-16 0)
(3 9.24695e-13 0)
(3 -1.74011e-10 0)
(3 4.83642e-10 0)
(3 -1.39862e-07 0)
(3 5.23487e-06 0)
(3.00018 -0.000493468 0)
(2.99625 0.00688658 0)
(2.96688 -0.078237 0)
(1.8409 0.327083 0)
(3 -1.07331e-15 0)
(3 9.81771e-13 0)
(3 -1.82957e-10 0)
(3 5.60451e-10 0)
(3 -1.46909e-07 0)
(3 6.00705e-06 0)
(3.00019 -0.000496688 0)
(2.99737 0.00782418 0)
(2.92646 -0.0814103 0)
(2.04602 0.327722 0)
(3 -2.55213e-15 0)
(3 1.04493e-12 0)
(3 -1.86968e-10 0)
(3 6.39743e-10 0)
(3 -1.50768e-07 0)
(3 6.70804e-06 0)
(3.00018 -0.000494079 0)
(2.99806 0.00876424 0)
(2.91188 -0.0768049 0)
(2.20084 0.285805 0)
(3 -1.57057e-15 0)
(3 1.09444e-12 0)
(3 -1.87492e-10 0)
(3 6.98767e-10 0)
(3 -1.5251e-07 0)
(3 7.32611e-06 0)
(3.00017 -0.000487284 0)
(2.99841 0.00956187 0)
(2.9037 -0.0720581 0)
(2.29661 0.216043 0)
(3 9.20942e-16 0)
(3 1.13081e-12 0)
(3 -1.86627e-10 0)
(3 7.51997e-10 0)
(3 -1.52743e-07 0)
(3 7.87228e-06 0)
(3.00016 -0.000478469 0)
(2.99849 0.0102594 0)
(2.89859 -0.0670157 0)
(2.32164 0.165386 0)
(3 -2.26856e-17 0)
(3 1.1447e-12 0)
(3 -1.87133e-10 0)
(3 7.98029e-10 0)
(3 -1.51937e-07 0)
(3 8.3324e-06 0)
(3.00015 -0.000467282 0)
(2.99833 0.010841 0)
(2.89354 -0.0617778 0)
(2.31135 0.115226 0)
(3 6.05825e-16 0)
(3 1.13784e-12 0)
(3 -1.85513e-10 0)
(3 8.42022e-10 0)
(3 -1.50424e-07 0)
(3.00001 8.71753e-06 0)
(3.00013 -0.000455098 0)
(2.99792 0.011252 0)
(2.88704 -0.0558133 0)
(2.31435 0.0723707 0)
(3 2.00661e-15 0)
(3 1.11925e-12 0)
(3 -1.81457e-10 0)
(3 8.84785e-10 0)
(3 -1.48342e-07 0)
(3.00001 9.04408e-06 0)
(3.00012 -0.000441414 0)
(2.99726 0.0114656 0)
(2.87994 -0.0485211 0)
(2.33217 0.0350236 0)
(3 9.85254e-16 0)
(3 1.08498e-12 0)
(3 -1.7521e-10 0)
(3 9.22363e-10 0)
(3 -1.45802e-07 0)
(3.00001 9.31566e-06 0)
(3.0001 -0.000426485 0)
(2.99642 0.0114951 0)
(2.87388 -0.0409627 0)
(2.34666 0.00915464 0)
(3 6.84641e-16 0)
(3 1.04223e-12 0)
(3 -1.65756e-10 0)
(3 9.54658e-10 0)
(3 -1.42859e-07 0)
(3.00001 9.55402e-06 0)
(3.00008 -0.000411088 0)
(2.99553 0.0111728 0)
(2.86856 -0.0328604 0)
(2.35921 -0.0152423 0)
(3 -7.56632e-16 0)
(3 9.96889e-13 0)
(3 -1.52961e-10 0)
(3 9.80155e-10 0)
(3 -1.3943e-07 0)
(3.00001 9.78557e-06 0)
(3.00006 -0.000394697 0)
(2.99476 0.0105998 0)
(2.86454 -0.0254309 0)
(2.36697 -0.0298781 0)
(3 -9.89466e-16 0)
(3 9.51363e-13 0)
(3 -1.37548e-10 0)
(3 1.00248e-09 0)
(3 -1.35601e-07 0)
(3.00001 1.00246e-05 0)
(3.00004 -0.000377492 0)
(2.99419 0.0098378 0)
(2.86055 -0.0176101 0)
(2.37388 -0.0419781 0)
(3 1.55468e-15 0)
(3 9.08555e-13 0)
(3 -1.19785e-10 0)
(3 1.02309e-09 0)
(3 -1.31557e-07 0)
(3.00001 1.03058e-05 0)
(3.00003 -0.000358944 0)
(2.99375 0.00896765 0)
(2.8578 -0.0119981 0)
(2.37775 -0.0469457 0)
(3 1.07552e-15 0)
(3 8.60753e-13 0)
(3 -1.00425e-10 0)
(3 1.04031e-09 0)
(3 -1.27032e-07 0)
(3.00001 1.06258e-05 0)
(3.00001 -0.00033969 0)
(2.99341 0.00810839 0)
(2.85483 -0.00606528 0)
(2.38092 -0.0498046 0)
(3 7.27836e-16 0)
(3 8.16655e-13 0)
(3 -8.04704e-11 0)
(3 1.05353e-09 0)
(3 -1.22095e-07 0)
(3.00001 1.09442e-05 0)
(2.99999 -0.000319778 0)
(2.99326 0.00726897 0)
(2.85257 -0.00175038 0)
(2.38292 -0.0504099 0)
(3 -2.53265e-16 0)
(3 -8.15182e-13 0)
(3 8.04739e-11 0)
(3 -1.05353e-09 0)
(3 1.22096e-07 0)
(3.00001 -1.09442e-05 0)
(2.99999 0.000319779 0)
(2.99326 -0.00726898 0)
(2.85257 0.00175038 0)
(2.38292 0.0504099 0)
(3 1.48297e-16 0)
(3 -8.59139e-13 0)
(3 1.00427e-10 0)
(3 -1.04031e-09 0)
(3 1.27033e-07 0)
(3.00001 -1.06258e-05 0)
(3.00001 0.000339691 0)
(2.99341 -0.00810839 0)
(2.85483 0.00606529 0)
(2.38092 0.0498047 0)
(3 -1.73415e-16 0)
(3 -9.07374e-13 0)
(3 1.19786e-10 0)
(3 -1.02309e-09 0)
(3 1.31557e-07 0)
(3.00001 -1.03058e-05 0)
(3.00003 0.000358945 0)
(2.99375 -0.00896765 0)
(2.8578 0.0119981 0)
(2.37775 0.0469457 0)
(3 4.76906e-16 0)
(3 -9.52412e-13 0)
(3 1.3755e-10 0)
(3 -1.00248e-09 0)
(3 1.35602e-07 0)
(3.00001 -1.00245e-05 0)
(3.00004 0.000377492 0)
(2.99419 -0.0098378 0)
(2.86055 0.0176101 0)
(2.37388 0.0419781 0)
(3 -9.28933e-16 0)
(3 -9.99034e-13 0)
(3 1.52961e-10 0)
(3 -9.8016e-10 0)
(3 1.3943e-07 0)
(3.00001 -9.78556e-06 0)
(3.00006 0.000394697 0)
(2.99476 -0.0105998 0)
(2.86454 0.0254309 0)
(2.36697 0.0298781 0)
(3 -1.71746e-15 0)
(3 -1.04468e-12 0)
(3 1.65757e-10 0)
(3 -9.54653e-10 0)
(3 1.42859e-07 0)
(3.00001 -9.55401e-06 0)
(3.00008 0.000411088 0)
(2.99553 -0.0111728 0)
(2.86856 0.0328604 0)
(2.35921 0.0152424 0)
(3 -2.38006e-15 0)
(3 -1.08501e-12 0)
(3 1.75212e-10 0)
(3 -9.22358e-10 0)
(3 1.45803e-07 0)
(3.00001 -9.31565e-06 0)
(3.0001 0.000426486 0)
(2.99642 -0.0114951 0)
(2.87388 0.0409627 0)
(2.34666 -0.00915462 0)
(3 -2.57902e-15 0)
(3 -1.11939e-12 0)
(3 1.81457e-10 0)
(3 -8.84784e-10 0)
(3 1.48343e-07 0)
(3.00001 -9.04406e-06 0)
(3.00012 0.000441415 0)
(2.99726 -0.0114656 0)
(2.87994 0.0485211 0)
(2.33217 -0.0350236 0)
(3 -9.93815e-16 0)
(3 -1.13848e-12 0)
(3 1.85513e-10 0)
(3 -8.42022e-10 0)
(3 1.50424e-07 0)
(3.00001 -8.71751e-06 0)
(3.00013 0.000455098 0)
(2.99792 -0.011252 0)
(2.88704 0.0558132 0)
(2.31435 -0.0723707 0)
(3 2.87154e-16 0)
(3 -1.14559e-12 0)
(3 1.87136e-10 0)
(3 -7.98027e-10 0)
(3 1.51938e-07 0)
(3 -8.33239e-06 0)
(3.00015 0.000467282 0)
(2.99833 -0.010841 0)
(2.89354 0.0617778 0)
(2.31135 -0.115226 0)
(3 5.35724e-16 0)
(3 -1.13173e-12 0)
(3 1.86626e-10 0)
(3 -7.5199e-10 0)
(3 1.52744e-07 0)
(3 -7.87226e-06 0)
(3.00016 0.000478469 0)
(2.99849 -0.0102594 0)
(2.89859 0.0670157 0)
(2.32164 -0.165386 0)
(3 1.12421e-15 0)
(3 -1.09485e-12 0)
(3 1.87493e-10 0)
(3 -6.98766e-10 0)
(3 1.5251e-07 0)
(3 -7.3261e-06 0)
(3.00017 0.000487285 0)
(2.99841 -0.00956187 0)
(2.9037 0.0720581 0)
(2.29661 -0.216043 0)
(3 2.95348e-15 0)
(3 -1.04468e-12 0)
(3 1.86972e-10 0)
(3 -6.3976e-10 0)
(3 1.50769e-07 0)
(3 -6.70803e-06 0)
(3.00018 0.000494079 0)
(2.99806 -0.00876424 0)
(2.91188 0.0768049 0)
(2.20084 -0.285805 0)
(3 8.79653e-16 0)
(3 -9.82273e-13 0)
(3 1.8296e-10 0)
(3 -5.60481e-10 0)
(3 1.46909e-07 0)
(3 -6.00703e-06 0)
(3.00019 0.000496689 0)
(2.99737 -0.00782418 0)
(2.92646 0.0814103 0)
(2.04602 -0.327722 0)
(3 -9.02408e-16 0)
(3 -9.26252e-13 0)
(3 1.74006e-10 0)
(3 -4.83621e-10 0)
(3 1.39862e-07 0)
(3 -5.23486e-06 0)
(3.00018 0.000493469 0)
(2.99625 -0.00688658 0)
(2.96688 0.078237 0)
(1.8409 -0.327083 0)
(3 -1.68834e-17 0)
(3 -8.80472e-13 0)
(3 1.53302e-10 0)
(3 -4.11151e-10 0)
(3 1.26638e-07 0)
(3 -4.40032e-06 0)
(3.00015 0.000488538 0)
(2.99538 -0.00569506 0)
(3.06365 0.0852312 0)
(1.64803 -0.319476 0)
(3 -8.08219e-16 0)
(3 -8.31424e-13 0)
(3 1.128e-10 0)
(3 -3.22395e-10 0)
(3 1.00792e-07 0)
(3 -3.5039e-06 0)
(3.00007 0.000465395 0)
(2.99478 -0.00449095 0)
(3.15466 0.0648841 0)
(1.50484 -0.265312 0)
(3 -5.62983e-16 0)
(3 -7.26098e-13 0)
(3 7.55069e-11 0)
(3 -2.32712e-10 0)
(3 6.3112e-08 0)
(3 -2.55681e-06 0)
(2.99995 0.000403647 0)
(2.99438 -0.00327131 0)
(3.1897 0.0419225 0)
(1.40195 -0.199621 0)
(3 1.13892e-15 0)
(3 -5.1204e-13 0)
(3 4.41417e-11 0)
(3 -1.41568e-10 0)
(3 1.74422e-08 0)
(3 -1.57204e-06 0)
(2.99983 0.000287225 0)
(2.99407 -0.00198634 0)
(3.20888 0.02299 0)
(1.32055 -0.129454 0)
(3 3.34191e-16 0)
(3 -2.42301e-13 0)
(3 1.74862e-11 0)
(3 -4.66479e-11 0)
(3 1.62583e-08 0)
(3 -5.40922e-07 0)
(2.99977 0.00011253 0)
(2.99407 -0.000656106 0)
(3.20713 0.00790694 0)
(1.27272 -0.0416656 0)
(2.19044 0.0396749 0)
(2.15101 0.0382607 0)
(2.09498 0.0189501 0)
(2.02591 0.0127587 0)
(1.99221 0.032075 0)
(1.92043 -0.0519278 0)
(1.47525 -0.365992 0)
(1.35862 -0.469829 0)
(1.36632 -0.509121 0)
(1.39854 -0.52939 0)
(2.18474 0.0301962 0)
(2.14624 0.0336552 0)
(2.09018 0.0105707 0)
(2.02668 0.0102968 0)
(1.983 -0.000662155 0)
(1.69329 -0.254684 0)
(1.3279 -0.42482 0)
(1.34547 -0.487888 0)
(1.36055 -0.513185 0)
(1.39611 -0.529754 0)
(2.17872 0.0194008 0)
(2.14009 0.0254639 0)
(2.0821 0.000400386 0)
(2.03237 0.00494877 0)
(1.90099 -0.1207 0)
(1.37868 -0.403979 0)
(1.3125 -0.434099 0)
(1.3432 -0.481961 0)
(1.35957 -0.516871 0)
(1.3971 -0.531164 0)
(2.17125 0.00550042 0)
(2.12824 0.00725685 0)
(2.07477 -0.0047136 0)
(2.0203 -0.0321853 0)
(1.58883 -0.335681 0)
(1.27498 -0.455813 0)
(1.29972 -0.455045 0)
(1.33747 -0.481546 0)
(1.36191 -0.513642 0)
(1.40173 -0.530027 0)
(2.16196 -0.0105423 0)
(2.11395 -0.0150398 0)
(2.069 -0.0207564 0)
(1.88568 -0.18617 0)
(1.30495 -0.441897 0)
(1.26438 -0.462208 0)
(1.30143 -0.465506 0)
(1.33534 -0.482456 0)
(1.36671 -0.510897 0)
(1.40835 -0.528942 0)
(2.14547 -0.0409446 0)
(2.09842 -0.0448346 0)
(2.03818 -0.0785394 0)
(1.4951 -0.383547 0)
(1.25163 -0.48489 0)
(1.25708 -0.478826 0)
(1.28865 -0.473711 0)
(1.32858 -0.486025 0)
(1.36881 -0.507583 0)
(1.41471 -0.526114 0)
(2.11944 -0.0845857 0)
(2.08047 -0.0853578 0)
(1.81143 -0.259819 0)
(1.29968 -0.445927 0)
(1.25466 -0.482697 0)
(1.26651 -0.482775 0)
(1.29013 -0.482739 0)
(1.3252 -0.489249 0)
(1.36853 -0.505909 0)
(1.42094 -0.523423 0)
(2.08024 -0.140215 0)
(2.02076 -0.175037 0)
(1.43915 -0.427085 0)
(1.25108 -0.478624 0)
(1.25577 -0.488243 0)
(1.26533 -0.491301 0)
(1.2855 -0.490083 0)
(1.31924 -0.493685 0)
(1.36565 -0.503854 0)
(1.42404 -0.51877 0)
(2.02103 -0.221454 0)
(1.78501 -0.360736 0)
(1.30358 -0.474553 0)
(1.25745 -0.488039 0)
(1.26051 -0.492319 0)
(1.26565 -0.497013 0)
(1.28336 -0.496311 0)
(1.31635 -0.498183 0)
(1.36492 -0.503016 0)
(1.42747 -0.515555 0)
(1.93046 -0.332748 0)
(1.5248 -0.487205 0)
(1.26375 -0.495281 0)
(1.25875 -0.487113 0)
(1.25942 -0.486825 0)
(1.2644 -0.491687 0)
(1.27798 -0.495367 0)
(1.30907 -0.49987 0)
(1.36224 -0.502883 0)
(1.42909 -0.511596 0)
(1.74388 -0.451158 0)
(1.35144 -0.525124 0)
(1.24411 -0.490516 0)
(1.23834 -0.479004 0)
(1.23656 -0.478148 0)
(1.24487 -0.482298 0)
(1.26084 -0.489868 0)
(1.29372 -0.497367 0)
(1.35132 -0.502549 0)
(1.42665 -0.508076 0)
(1.47189 -0.485005 0)
(1.2392 -0.502794 0)
(1.19565 -0.470359 0)
(1.1831 -0.462456 0)
(1.18441 -0.464864 0)
(1.20203 -0.468631 0)
(1.22717 -0.47771 0)
(1.26713 -0.48841 0)
(1.3305 -0.496605 0)
(1.41802 -0.503488 0)
(1.27268 -0.445867 0)
(1.1606 -0.451145 0)
(1.12743 -0.443924 0)
(1.11739 -0.442026 0)
(1.11948 -0.453007 0)
(1.14213 -0.463962 0)
(1.17477 -0.47638 0)
(1.22543 -0.491384 0)
(1.29732 -0.496619 0)
(1.40116 -0.50002 0)
(1.13028 -0.372658 0)
(1.0692 -0.391427 0)
(1.06028 -0.406399 0)
(1.05505 -0.420172 0)
(1.06048 -0.435487 0)
(1.08347 -0.44453 0)
(1.11902 -0.459634 0)
(1.17524 -0.478147 0)
(1.25359 -0.490584 0)
(1.37385 -0.496934 0)
(0.982228 -0.311735 0)
(0.963782 -0.34178 0)
(0.975926 -0.371879 0)
(0.984008 -0.397728 0)
(0.994468 -0.422899 0)
(1.01888 -0.440931 0)
(1.057 -0.459164 0)
(1.11528 -0.479842 0)
(1.19872 -0.489936 0)
(1.33789 -0.496091 0)
(0.843944 -0.29341 0)
(0.849895 -0.311476 0)
(0.873723 -0.339246 0)
(0.895997 -0.366418 0)
(0.919616 -0.391402 0)
(0.951089 -0.412683 0)
(0.991507 -0.437652 0)
(1.05058 -0.46428 0)
(1.13922 -0.48368 0)
(1.29679 -0.490407 0)
(0.729995 -0.270979 0)
(0.740539 -0.292749 0)
(0.763622 -0.324432 0)
(0.794539 -0.351448 0)
(0.828083 -0.379692 0)
(0.869798 -0.404858 0)
(0.918349 -0.432702 0)
(0.982403 -0.461626 0)
(1.0792 -0.491292 0)
(1.25085 -0.498862 0)
(0.64595 -0.231117 0)
(0.662434 -0.254928 0)
(0.686862 -0.291247 0)
(0.724338 -0.324752 0)
(0.765699 -0.357442 0)
(0.813948 -0.386166 0)
(0.8682 -0.416982 0)
(0.935342 -0.451523 0)
(1.0351 -0.493202 0)
(1.20891 -0.500185 0)
(0.568812 -0.21868 0)
(0.61149 -0.257776 0)
(0.645768 -0.31528 0)
(0.691053 -0.359164 0)
(0.736471 -0.392967 0)
(0.785321 -0.420237 0)
(0.839831 -0.449044 0)
(0.907786 -0.483051 0)
(1.006 -0.527603 0)
(1.18275 -0.560885 0)
(0.532075 -0.167334 0)
(0.607805 -0.222615 0)
(0.658552 -0.297387 0)
(0.705209 -0.350927 0)
(0.745925 -0.388782 0)
(0.789314 -0.417167 0)
(0.840171 -0.445655 0)
(0.906463 -0.47861 0)
(1.00111 -0.523834 0)
(1.18271 -0.561612 0)
(1.55426 -0.509797 0)
(1.76799 -0.411673 0)
(1.97113 -0.243332 0)
(2.12753 -0.0679796 0)
(2.32478 0.0921821 0)
(2.31897 0.301034 0)
(2.2599 0.310337 0)
(2.07999 0.234811 0)
(1.90365 0.148731 0)
(1.47183 0.0678934 0)
(1.56326 -0.505927 0)
(1.78576 -0.398722 0)
(1.99137 -0.218932 0)
(2.13682 -0.0468171 0)
(2.35595 0.133315 0)
(2.32269 0.328501 0)
(2.25899 0.32946 0)
(2.06621 0.247251 0)
(1.8884 0.158293 0)
(1.46382 0.0715106 0)
(1.57566 -0.501841 0)
(1.80372 -0.387135 0)
(2.0116 -0.194437 0)
(2.15278 -0.0177316 0)
(2.37646 0.159864 0)
(2.32847 0.361971 0)
(2.26115 0.355305 0)
(2.05492 0.262258 0)
(1.8737 0.16906 0)
(1.45531 0.0749227 0)
(1.58828 -0.497619 0)
(1.8247 -0.373139 0)
(2.03421 -0.166183 0)
(2.17112 0.00994315 0)
(2.3942 0.204141 0)
(2.33448 0.393684 0)
(2.26457 0.379054 0)
(2.04496 0.27622 0)
(1.86064 0.178623 0)
(1.44689 0.077196 0)
(1.60379 -0.491473 0)
(1.84602 -0.358118 0)
(2.05651 -0.136402 0)
(2.19376 0.0406 0)
(2.39264 0.236842 0)
(2.3485 0.424679 0)
(2.27198 0.40097 0)
(2.03766 0.287403 0)
(1.85074 0.188499 0)
(1.43999 0.0802819 0)
(1.61845 -0.483778 0)
(1.86998 -0.340087 0)
(2.08057 -0.103418 0)
(2.22006 0.0768327 0)
(2.38495 0.278215 0)
(2.36962 0.456856 0)
(2.2865 0.426682 0)
(2.0363 0.302071 0)
(1.84585 0.199529 0)
(1.43476 0.083223 0)
(1.63757 -0.473524 0)
(1.89639 -0.319044 0)
(2.1074 -0.065261 0)
(2.24421 0.116426 0)
(2.38204 0.322546 0)
(2.38487 0.488168 0)
(2.30144 0.452382 0)
(2.03443 0.312462 0)
(1.84497 0.209915 0)
(1.43157 0.0868564 0)
(1.65556 -0.461175 0)
(1.92491 -0.294133 0)
(2.13221 -0.0289351 0)
(2.26403 0.152184 0)
(2.38587 0.36519 0)
(2.39297 0.517061 0)
(2.31151 0.476565 0)
(2.02886 0.31723 0)
(1.84497 0.217541 0)
(1.42941 0.0908262 0)
(1.67704 -0.445526 0)
(1.95271 -0.268622 0)
(2.16358 0.0190525 0)
(2.28914 0.206375 0)
(2.3987 0.418106 0)
(2.40064 0.549062 0)
(2.31117 0.487103 0)
(2.02023 0.316256 0)
(1.84197 0.220273 0)
(1.42652 0.0949869 0)
(1.69291 -0.429403 0)
(1.98642 -0.231878 0)
(2.18776 0.060987 0)
(2.30579 0.244631 0)
(2.40715 0.462363 0)
(2.40872 0.583439 0)
(2.30656 0.487634 0)
(2.0086 0.288357 0)
(1.83752 0.212756 0)
(1.42169 0.0988005 0)
(1.71408 -0.406445 0)
(2.01246 -0.199842 0)
(2.21883 0.120863 0)
(2.33021 0.308004 0)
(2.42491 0.530741 0)
(2.41789 0.609674 0)
(2.29664 0.407548 0)
(1.98986 0.218349 0)
(1.8309 0.188694 0)
(1.41598 0.1015 0)
(1.72672 -0.383021 0)
(2.04532 -0.152547 0)
(2.24237 0.178407 0)
(2.34771 0.358702 0)
(2.43478 0.574477 0)
(2.42567 0.621186 0)
(2.27321 0.283909 0)
(1.98126 0.170373 0)
(1.82374 0.16984 0)
(1.40705 0.101511 0)
(1.73725 -0.357254 0)
(2.07018 -0.10863 0)
(2.26389 0.244003 0)
(2.36697 0.434431 0)
(2.44629 0.622615 0)
(2.42437 0.604491 0)
(2.21834 0.193213 0)
(1.98555 0.144911 0)
(1.8164 0.159314 0)
(1.39574 0.098736 0)
(1.74926 -0.32464 0)
(2.1018 -0.0434441 0)
(2.28704 0.336755 0)
(2.38552 0.502095 0)
(2.45886 0.679376 0)
(2.41294 0.518998 0)
(2.17237 0.146567 0)
(1.9903 0.141167 0)
(1.81031 0.160055 0)
(1.38545 0.0958823 0)
(1.75786 -0.292235 0)
(2.12783 0.0111621 0)
(2.29721 0.403344 0)
(2.41556 0.582764 0)
(2.45733 0.700814 0)
(2.39739 0.444004 0)
(2.12253 0.115924 0)
(1.98326 0.131874 0)
(1.8037 0.163293 0)
(1.37791 0.0935307 0)
(1.77575 -0.248499 0)
(2.17496 0.124359 0)
(2.32061 0.529421 0)
(2.44732 0.653024 0)
(2.45742 0.732486 0)
(2.37845 0.370066 0)
(2.07914 0.0989384 0)
(1.9706 0.125995 0)
(1.79785 0.165049 0)
(1.3714 0.0927422 0)
(1.80299 -0.196462 0)
(2.20781 0.182583 0)
(2.33684 0.6292 0)
(2.46225 0.759756 0)
(2.45928 0.768142 0)
(2.32617 0.276611 0)
(2.03865 0.0900144 0)
(1.95348 0.124407 0)
(1.78746 0.16726 0)
(1.36368 0.0929978 0)
(1.85016 -0.118041 0)
(2.28772 0.386113 0)