/*--------------------------------*- C++ -*----------------------------------*\
  =========                 |
  \\      /  F ield         | OpenFOAM: The Open Source CFD Toolbox
   \\    /   O peration     | Website:  https://openfoam.org
    \\  /    A nd           | Version:  7
     \\/     M anipulation  |
\*---------------------------------------------------------------------------*/
FoamFile
{
    version     2.0;
    format      ascii;
    class       volScalarField;
    location    "1.3";
    object      rho;
}
// * * * * * * * * * * * * * * * * * * * * * * * * * * * * * * * * * * * * * //

dimensions      [1 -3 0 0 0 0 0];

internalField   nonuniform List<scalar> 
325
(
0.934322
1.0496
1.19404
1.34662
1.32574
1.35099
2.14205
0.919831
1.05306
1.18795
1.29595
1.25024
1.28866
2.05039
0.895881
1.04042
1.14479
1.22342
1.1805
1.25325
1.97693
0.868238
1.0066
1.07792
1.13796
1.12947
1.25365
1.9198
0.829196
0.951779
0.99797
1.07369
1.1162
1.26605
1.88922
0.79955
0.898394
0.949236
1.04279
1.11653
1.28369
1.87554
0.775837
0.866112
0.92446
2.04957
1.63961
1.24475
1.09579
1.159
1.51341
2.39681
1.97393
1.58555
1.20081
1.0822
1.14501
1.49821
2.4342
1.89094
1.52503
1.15421
1.0697
1.13357
1.47782
2.47495
1.8005
1.45676
1.11454
1.06539
1.12728
1.48901
2.52452
1.71136
1.39344
1.07935
1.06484
1.12117
1.51539
2.57362
1.61891
1.32307
1.05307
1.05705
1.12778
1.57166
2.6225
1.52942
1.26631
1.04486
1.04833
1.13589
1.63282
2.66218
1.44642
1.20758
1.03695
1.04302
1.14898
1.68866
2.6922
1.37288
1.15822
1.03015
1.04195
1.16013
1.73287
2.71353
1.2944
1.11663
1.02395
1.04032
1.1713
1.76101
2.72604
1.21964
1.08768
1.0198
1.04152
1.19002
1.77757
2.73228
1.15263
1.06155
1.01544
1.04947
1.21503
1.78439
2.73164
1.09557
1.04169
1.0191
1.06878
1.24556
1.78228
2.72161
1.03885
1.02862
1.02667
1.09929
1.2805
1.77436
2.70614
1.00837
1.01819
1.04331
1.14687
1.31706
1.76062
2.68664
1.0004
1.01326
1.07167
1.20804
1.34944
1.73618
2.64976
0.996619
1.02015
1.10632
1.27265
1.37383
1.69495
2.59226
1.0034
1.02977
1.14153
1.3258
1.38508
1.63813
2.5113
0.986202
1.0338
1.1692
1.35742
1.38836
1.5562
2.40002
0.955978
1.04229
1.18771
1.36521
1.36682
1.45185
2.2655
1.40001
1.40246
1.80821
4.05295
4.25592
3.64839
2.6238
1.40001
1.40421
1.83092
4.08261
4.26116
3.66077
2.62162
1.40002
1.40967
1.86122
4.13704
4.27304
3.68981
2.64369
1.40014
1.43242
1.89892
4.11281
4.25112
3.71308
2.67381
1.4008
1.51899
1.96669
3.98056
4.22241
3.77611
2.72688
1.40392
1.72513
2.0894
3.6956
4.0471
3.657
2.72085
1.41681
2.01806
2.26299
3.31034
3.87081
3.55862
2.74746
1.46215
2.30944
2.41581
2.98558
3.66791
3.42425
2.68316
1.59917
2.49612
2.50904
2.70166
3.41345
3.26002
2.639
1.8875
2.57648
2.52902
2.44453
3.11168
3.07285
2.58702
2.23631
2.60905
2.4771
2.20536
2.7786
2.87882
2.52361
2.51414
2.64404
2.41351
2.02949
2.44523
2.70605
2.44814
2.6601
2.64483
2.32748
1.88672
2.16196
2.53768
2.37634
2.71256
2.58798
2.18503
1.73997
1.92761
2.35937
2.32197
2.71736
2.47751
2.02004
1.59433
1.73354
2.16144
2.28802
2.69946
2.36173
1.86816
1.47117
1.57499
1.97479
2.26469
2.63403
2.21273
1.71732
1.36416
1.44755
1.82401
2.25586
2.49536
2.03845
1.57343
1.27135
1.33953
1.70403
2.25506
2.36888
1.89169
1.44769
1.19946
1.26122
1.61356
2.30247
2.18773
1.74501
1.32819
1.13295
1.19417
1.54947
2.35328
)
;

boundaryField
{
    inlet
    {
        type            calculated;
        value           nonuniform 0();
    }
    outlet
    {
        type            calculated;
        value           nonuniform List<scalar> 
46
(
2.14216
2.05053
1.97706
1.91984
1.88901
1.87507
2.39681
2.43427
2.47505
2.5247
2.57381
2.62263
2.66228
2.69222
2.71347
2.72592
2.73212
2.73143
2.72137
2.70603
2.68655
2.64956
2.59201
2.5111
2.3999
2.2655
2.62414
2.62187
2.64386
2.67388
2.72663
2.72072
2.74746
2.68316
2.63901
2.58706
2.52367
2.44819
2.37639
2.32194
2.2879
2.26459
2.25583
2.25493
2.3026
2.35332
)
;
    }
    triangle
    {
        type            calculated;
        value           nonuniform 0();
    }
    top
    {
        type            symmetryPlane;
    }
    bottom
    {
        type            symmetryPlane;
    }
    defaultFaces
    {
        type            empty;
    }
    procBoundary3to2
    {
        type            processor;
        value           nonuniform List<scalar> 
47
(
0.895146
0.860615
0.820846
0.793565
0.765401
0.75385
0.749222
2.55172
2.4877
2.43091
2.37435
2.30374
2.22352
2.1379
2.04748
1.9639
1.87373
1.78428
1.68132
1.58019
1.46607
1.35764
1.24813
1.16045
1.09724
1.01921
0.936371
1.40001
1.40001
1.40001
1.40001
1.40001
1.40003
1.40013
1.40056
1.40231
1.40905
1.43629
1.53529
1.79017
2.15862
2.4828
2.67399
2.7457
2.73648
2.73361
2.6698
)
;
    }
    procBoundary3to7
    {
        type            processor;
        value           nonuniform List<scalar> 8(1.04159 1.12339 1.30913 1.86929 0.762986 0.855895 1.04159 0.922898);
    }
}


// ************************************************************************* //
