/*--------------------------------*- C++ -*----------------------------------*\
  =========                 |
  \\      /  F ield         | OpenFOAM: The Open Source CFD Toolbox
   \\    /   O peration     | Website:  https://openfoam.org
    \\  /    A nd           | Version:  8
     \\/     M anipulation  |
\*---------------------------------------------------------------------------*/
FoamFile
{
    version     2.0;
    format      ascii;
    class       volScalarField;
    location    "1.3";
    object      T;
}
// * * * * * * * * * * * * * * * * * * * * * * * * * * * * * * * * * * * * * //

dimensions      [0 0 0 1 0 0 0];

internalField   nonuniform List<scalar> 
325
(
1.3437
1.36076
1.41091
1.4818
1.65364
1.92786
2.0838
1.40888
1.42783
1.47493
1.56064
1.78823
2.03544
2.1542
1.48087
1.50591
1.55786
1.6885
1.93862
2.08573
2.22092
1.56515
1.60613
1.67885
1.84986
2.04036
2.10161
2.27611
1.64903
1.73155
1.81859
1.99466
2.07844
2.09619
2.31212
1.72824
1.84927
1.93935
2.06291
2.07697
2.07312
2.32161
1.77459
1.91281
1.9904
1.57373
1.45067
1.31136
1.23801
1.2588
1.407
1.67368
1.55168
1.42721
1.29247
1.23017
1.2512
1.39982
1.693
1.52742
1.40406
1.27244
1.22291
1.24544
1.3902
1.71171
1.50121
1.38149
1.25685
1.2212
1.24459
1.39435
1.73072
1.47451
1.36223
1.24396
1.22325
1.24466
1.40432
1.74682
1.4457
1.33986
1.23353
1.22462
1.25088
1.42486
1.76035
1.41697
1.3213
1.23058
1.22512
1.25953
1.44851
1.76993
1.38908
1.30003
1.22679
1.22552
1.26918
1.47045
1.77638
1.36112
1.27913
1.22318
1.22651
1.27724
1.48955
1.78035
1.32913
1.25999
1.22082
1.2276
1.28625
1.50515
1.78248
1.29667
1.24542
1.22039
1.23046
1.29918
1.5185
1.78466
1.26777
1.23299
1.2198
1.2367
1.31436
1.52951
1.78679
1.24245
1.2239
1.2221
1.24768
1.33024
1.53641
1.78834
1.21684
1.21773
1.22343
1.26252
1.3455
1.54087
1.79195
1.20258
1.2117
1.22962
1.28188
1.3596
1.54619
1.7998
1.20059
1.20981
1.24215
1.30494
1.37403
1.5549
1.81199
1.20311
1.21545
1.25915
1.33017
1.39348
1.57261
1.83282
1.21822
1.22932
1.28208
1.35667
1.42203
1.612
1.86929
1.24175
1.25535
1.31316
1.38883
1.46943
1.68407
1.92681
1.28493
1.30165
1.35732
1.42955
1.54434
1.79825
2.00453
1
1.0007
1.11139
1.8278
1.96555
1.86903
1.67405
1
1.0012
1.11532
1.80475
1.94524
1.85335
1.66399
1
1.00273
1.12557
1.75764
1.89612
1.81252
1.6411
1.00004
1.00899
1.14463
1.70524
1.83254
1.75878
1.60667
1.00023
1.03312
1.17178
1.67091
1.77703
1.71901
1.58018
1.00112
1.09609
1.21253
1.63611
1.72189
1.66575
1.54871
1.00475
1.19172
1.26955
1.5748
1.69647
1.64221
1.53168
1.01722
1.27111
1.32216
1.51283
1.681
1.62776
1.5048
1.05454
1.31602
1.3615
1.45637
1.66128
1.61731
1.49636
1.13451
1.35889
1.38328
1.41118
1.63238
1.60615
1.49291
1.23448
1.40443
1.39277
1.38343
1.58629
1.58672
1.49377
1.31812
1.44129
1.40471
1.36646
1.52863
1.56882
1.49328
1.38684
1.46071
1.41278
1.35798
1.47284
1.55189
1.49411
1.46073
1.47156
1.41522
1.34851
1.42678
1.53277
1.49884
1.51297
1.48882
1.40884
1.33279
1.38988
1.51206
1.50633
1.5484
1.50178
1.40329
1.31877
1.36049
1.49053
1.51879
1.56693
1.50811
1.39643
1.30558
1.33712
1.47115
1.53874
1.57933
1.49992
1.37979
1.28907
1.31404
1.45328
1.5628
1.59283
1.49149
1.36092
1.27325
1.29453
1.43518
1.6062
1.59472
1.47798
1.33678
1.2527
1.27286
1.41887
1.64521
)
;

boundaryField
{
    inlet
    {
        type            fixedValue;
        value           nonuniform List<scalar> 0();
    }
    outlet
    {
        type            inletOutlet;
        inletValue      uniform 1;
        value           nonuniform List<scalar> 
46
(
2.0837
2.15407
2.22077
2.27606
2.31238
2.32219
1.67367
1.69294
1.71163
1.73059
1.74669
1.76025
1.76986
1.77636
1.78039
1.78256
1.78476
1.78693
1.78849
1.79203
1.79986
1.81212
1.833
1.86943
1.92691
2.00453
1.67383
1.66383
1.64098
1.60663
1.58033
1.54879
1.53168
1.5048
1.49635
1.49288
1.49373
1.49325
1.49408
1.49887
1.50641
1.51885
1.53875
1.56289
1.60615
1.64517
)
;
    }
    triangle
    {
        type            zeroGradient;
    }
    top
    {
        type            symmetryPlane;
    }
    bottom
    {
        type            symmetryPlane;
    }
    defaultFaces
    {
        type            empty;
    }
    procBoundary3to2
    {
        type            processor;
        value           nonuniform List<scalar> 
47
(
1.4342
1.48405
1.52811
1.5811
1.62
1.65322
1.67654
1.69431
1.69721
1.68575
1.66951
1.64811
1.62419
1.60353
1.58442
1.56544
1.53649
1.50182
1.46206
1.42096
1.37418
1.32891
1.29109
1.27443
1.28851
1.32431
1.37353
1
1
1
1
1
1.00001
1.00003
1.00016
1.00066
1.00257
1.01013
1.03699
1.10715
1.21633
1.32259
1.41303
1.51848
1.60013
1.6497
1.67655
)
;
    }
    procBoundary3to7
    {
        type            processor;
        value           nonuniform List<scalar> 8(2.07802 2.05803 2.04597 2.31647 1.78957 1.92668 2.07802 1.99945);
    }
}


// ************************************************************************* //
