/*--------------------------------*- C++ -*----------------------------------*\
  =========                 |
  \\      /  F ield         | OpenFOAM: The Open Source CFD Toolbox
   \\    /   O peration     | Website:  https://openfoam.org
    \\  /    A nd           | Version:  8
     \\/     M anipulation  |
\*---------------------------------------------------------------------------*/
FoamFile
{
    version     2.0;
    format      ascii;
    class       volScalarField;
    location    "0.9";
    object      T;
}
// * * * * * * * * * * * * * * * * * * * * * * * * * * * * * * * * * * * * * //

dimensions      [0 0 0 1 0 0 0];

internalField   nonuniform List<scalar> 
2600
(
1.03744
0.998956
0.945626
0.907481
0.904085
0.924938
1.01851
1.08637
1.0828
1.06687
1.03393
1.01232
0.971968
0.937122
0.930923
0.947355
1.02826
1.08991
1.08671
1.07257
1.02872
1.01147
0.986573
0.965763
0.962935
0.978591
1.04709
1.0954
1.09233
1.08385
1.02529
1.00887
0.994332
0.991843
1.00069
1.01848
1.07675
1.10587
1.10214
1.09883
1.02554
1.00956
1.00213
1.01594
1.04138
1.06282
1.11362
1.125
1.11953
1.11759
1.03008
1.01391
1.01038
1.0343
1.07369
1.0913
1.14565
1.15106
1.14481
1.13808
1.03576
1.01856
1.01594
1.04135
1.0854
1.10035
1.15949
1.1797
1.17364
1.15715
1.04128
1.02392
1.01729
1.03987
1.08104
1.09626
1.1607
1.2006
1.19746
1.17338
1.04463
1.02607
1.01599
1.03483
1.07212
1.08638
1.15845
1.21025
1.21074
1.18306
1.0466
1.02705
1.01449
1.03131
1.06634
1.08104
1.15525
1.21217
1.21463
1.186
1.0466
1.02726
1.01545
1.03136
1.06632
1.08104
1.15528
1.21187
1.21492
1.1864
1.04462
1.02623
1.01624
1.0349
1.0721
1.08637
1.15845
1.20996
1.21093
1.18325
1.04126
1.02401
1.01743
1.03988
1.08104
1.09623
1.16068
1.20059
1.19753
1.17328
1.03575
1.01858
1.0161
1.04143
1.08544
1.10027
1.15946
1.1798
1.17349
1.15707
1.03007
1.01383
1.01025
1.03436
1.07376
1.0912
1.14557
1.15105
1.1446
1.13809
1.02555
1.00953
1.00195
1.01596
1.04148
1.06276
1.11349
1.12486
1.11964
1.1176
1.02535
1.00894
0.994496
0.991909
1.00076
1.01845
1.07667
1.10586
1.10225
1.0988
1.0288
1.01154
0.986856
0.965787
0.963022
0.978573
1.04719
1.09552
1.09227
1.08377
1.03396
1.01236
0.972073
0.937052
0.93111
0.947568
1.02839
1.09001
1.08669
1.07268
1.03744
0.998968
0.945478
0.90752
0.904149
0.925029
1.01858
1.08643
1.08286
1.06694
1.03575
0.958691
0.911958
0.878711
0.879949
0.907348
1.01357
1.08467
1.08059
1.06291
1.0172
0.922873
0.885356
0.8568
0.859274
0.893484
1.01074
1.08441
1.07969
1.05959
1.01179
0.903876
0.868218
0.844237
0.845153
0.883938
1.00971
1.08409
1.07879
1.05688
1.01232
0.900284
0.860827
0.837714
0.835716
0.87745
1.01039
1.08339
1.07735
1.05427
1.01846
0.904373
0.858418
0.83446
0.829486
0.872476
1.01167
1.0825
1.07528
1.05175
1.02755
0.913447
0.86128
0.832113
0.826282
0.868381
1.01256
1.08155
1.07291
1.04922
1.03779
0.926385
0.868721
0.831145
0.825124
0.865355
1.0128
1.08013
1.07043
1.04671
1.04745
0.939822
0.879008
0.834181
0.82498
0.863809
1.01152
1.07818
1.06781
1.0443
1.05617
0.952843
0.890796
0.838843
0.825483
0.863314
1.00786
1.07611
1.06496
1.04196
1.06409
0.965094
0.901728
0.844967
0.826407
0.864627
1.0043
1.07388
1.06213
1.03978
1.07149
0.976562
0.912757
0.852059
0.827989
0.867117
0.999146
1.07144
1.05956
1.03781
1.07844
0.98753
0.922851
0.859556
0.831246
0.870953
0.99386
1.06866
1.05712
1.03599
1.08476
0.998011
0.932526
0.867984
0.83656
0.875243
0.987739
1.06539
1.0545
1.03419
1.09018
1.00794
0.941443
0.876563
0.84425
0.87954
0.981198
1.06164
1.05155
1.03206
1.09454
1.01704
0.949735
0.885882
0.854167
0.883436
0.974109
1.05747
1.04835
1.02984
1.09773
1.02511
0.95734
0.895594
0.86556
0.887187
0.966783
1.05287
1.04493
1.02733
1.09992
1.03199
0.964398
0.90576
0.878798
0.890994
0.958978
1.04756
1.04169
1.02494
1.10141
1.03776
0.970932
0.916361
0.892567
0.895229
0.951625
1.0423
1.03865
1.02263
1.10261
1.0425
0.977207
0.927574
0.90642
0.899904
0.944872
1.03704
1.03559
1.0204
1.10394
1.04647
0.983386
0.939128
0.919076
0.904922
0.939137
1.03174
1.0323
1.01833
1.36198
1.34364
1.33147
1.31868
1.30503
1.29071
1.27493
1.2568
1.23069
1.20629
1.33151
1.31272
1.30442
1.29447
1.28387
1.2718
1.25759
1.23946
1.21258
1.17534
1.31659
1.30138
1.29258
1.28172
1.27149
1.26029
1.24683
1.22891
1.20243
1.16263
1.29952
1.28759
1.27971
1.26927
1.25963
1.24838
1.23487
1.21679
1.19096
1.15025
1.28438
1.27504
1.26903
1.25986
1.25075
1.23937
1.2258
1.20768
1.18255
1.14269
1.27098
1.26377
1.25909
1.25129
1.24315
1.23209
1.21871
1.20056
1.17611
1.13791
1.26131
1.25622
1.25254
1.24562
1.23791
1.22682
1.21349
1.19524
1.17138
1.13576
1.25609
1.25227
1.24888
1.24224
1.23461
1.22343
1.21012
1.19176
1.16841
1.13529
1.25296
1.24963
1.24629
1.23992
1.23254
1.22159
1.20847
1.19018
1.16737
1.13609
1.24716
1.24437
1.24162
1.23626
1.22982
1.21973
1.20736
1.18968
1.16766
1.13815
1.23923
1.23664
1.23454
1.23034
1.22517
1.21658
1.20565
1.18924
1.16843
1.14097
1.2311
1.22853
1.22667
1.22311
1.21881
1.21168
1.20246
1.18802
1.16898
1.14374
1.22365
1.22116
1.2193
1.21596
1.21204
1.20588
1.19804
1.18556
1.16861
1.14564
1.21709
1.21485
1.21301
1.20986
1.20604
1.20034
1.19321
1.18215
1.16715
1.14621
1.21185
1.20992
1.20818
1.20519
1.20131
1.19565
1.18868
1.17835
1.16467
1.14576
1.20795
1.20636
1.20465
1.20156
1.19744
1.19158
1.18454
1.17451
1.1617
1.14448
1.2059
1.20387
1.20172
1.19814
1.19369
1.18761
1.18052
1.17077
1.15851
1.14256
1.20549
1.20173
1.19852
1.19434
1.18968
1.18357
1.17659
1.16724
1.15552
1.14058
1.20237
1.19801
1.1946
1.19032
1.18569
1.17974
1.17298
1.16407
1.15292
1.13894
1.19783
1.1938
1.19068
1.18659
1.18214
1.17645
1.16998
1.1615
1.15103
1.13806
1.00329
1.01441
1.0366
1.04933
1.0501
1.04909
1.04659
1.04523
1.16056
1.26512
1.00329
1.01441
1.0366
1.04933
1.0501
1.04909
1.0466
1.04517
1.16
1.26227
1.00329
1.01441
1.0366
1.04933
1.0501
1.04909
1.04661
1.04503
1.15933
1.25732
1.00329
1.01441
1.0366
1.04933
1.0501
1.04909
1.04663
1.04483
1.15853
1.25152
1.00329
1.01441
1.0366
1.04933
1.0501
1.04909
1.04665
1.04457
1.15757
1.24593
1.00329
1.01441
1.0366
1.04933
1.0501
1.0491
1.04667
1.04426
1.15627
1.24061
1.00329
1.01441
1.0366
1.04933
1.0501
1.0491
1.04668
1.0439
1.15444
1.23532
1.00329
1.01441
1.0366
1.04933
1.0501
1.0491
1.0467
1.04355
1.15196
1.22931
1.00329
1.01441
1.0366
1.04933
1.0501
1.0491
1.04672
1.04321
1.14897
1.22254
1.00329
1.01441
1.0366
1.04933
1.05009
1.0491
1.04674
1.04293
1.14576
1.21577
1.00329
1.01441
1.0366
1.04933
1.05009
1.0491
1.04676
1.04273
1.14247
1.2095
1.00329
1.01441
1.0366
1.04933
1.05009
1.0491
1.04677
1.04268
1.13908
1.20377
1.00329
1.01441
1.03661
1.04933
1.05009
1.0491
1.04678
1.0427
1.13552
1.19849
1.00329
1.01441
1.03661
1.04933
1.05009
1.0491
1.04679
1.04275
1.13177
1.19356
1.00329
1.01441
1.03661
1.04933
1.05009
1.0491
1.0468
1.04279
1.12781
1.18893
1.00329
1.01441
1.03661
1.04933
1.05008
1.04909
1.04681
1.04283
1.12366
1.18468
1.00329
1.01441
1.03661
1.04933
1.05008
1.04909
1.04681
1.04286
1.11939
1.18112
1.00329
1.01441
1.03662
1.04933
1.05008
1.04909
1.04681
1.0429
1.11512
1.17812
1.00329
1.01441
1.03662
1.04933
1.05007
1.04909
1.04681
1.04293
1.11084
1.17589
1.00329
1.01441
1.03662
1.04933
1.05007
1.0491
1.04681
1.04296
1.10653
1.17378
1.00329
1.01441
1.03662
1.04933
1.05007
1.0491
1.04681
1.04296
1.10653
1.17378
1.00329
1.01441
1.03662
1.04933
1.05007
1.04909
1.04681
1.04293
1.11084
1.17589
1.00329
1.01441
1.03662
1.04933
1.05008
1.04909
1.04681
1.0429
1.11511
1.17812
1.00329
1.01441
1.03661
1.04933
1.05008
1.04909
1.04681
1.04286
1.11939
1.18112
1.00329
1.01441
1.03661
1.04933
1.05008
1.04909
1.04681
1.04283
1.12366
1.18468
1.00329
1.01441
1.03661
1.04933
1.05009
1.0491
1.0468
1.04279
1.12781
1.18893
1.00329
1.01441
1.03661
1.04933
1.05009
1.0491
1.04679
1.04275
1.13177
1.19356
1.00329
1.01441
1.03661
1.04933
1.05009
1.0491
1.04678
1.0427
1.13552
1.19849
1.00329
1.01441
1.0366
1.04933
1.05009
1.0491
1.04677
1.04268
1.13908
1.20377
1.00329
1.01441
1.0366
1.04933
1.05009
1.0491
1.04676
1.04273
1.14248
1.2095
1.00329
1.01441
1.0366
1.04933
1.05009
1.0491
1.04674
1.04293
1.14576
1.21577
1.00329
1.01441
1.0366
1.04933
1.0501
1.0491
1.04672
1.04321
1.14897
1.22254
1.00329
1.01441
1.0366
1.04933
1.0501
1.0491
1.0467
1.04355
1.15196
1.22931
1.00329
1.01441
1.0366
1.04933
1.0501
1.0491
1.04668
1.0439
1.15445
1.23532
1.00329
1.01441
1.0366
1.04933
1.0501
1.0491
1.04667
1.04426
1.15627
1.24061
1.00329
1.01441
1.0366
1.04933
1.0501
1.04909
1.04665
1.04457
1.15757
1.24593
1.00329
1.01441
1.0366
1.04933
1.0501
1.04909
1.04663
1.04483
1.15853
1.25152
1.00329
1.01441
1.0366
1.04933
1.0501
1.04909
1.04661
1.04503
1.15933
1.25732
1.00329
1.01441
1.0366
1.04933
1.0501
1.04909
1.0466
1.04517
1.16
1.26227
1.00329
1.01441
1.0366
1.04933
1.0501
1.04909
1.04659
1.04523
1.16056
1.26512
1.19783
1.1938
1.19068
1.18659
1.18214
1.17645
1.16998
1.1615
1.15103
1.13806
1.20237
1.19801
1.1946
1.19032
1.18569
1.17974
1.17298
1.16407
1.15292
1.13894
1.20549
1.20173
1.19852
1.19434
1.18968
1.18357
1.17659
1.16724
1.15552
1.14058
1.2059
1.20387
1.20172
1.19814
1.19369
1.18761
1.18052
1.17077
1.15851
1.14256
1.20795
1.20636
1.20465
1.20156
1.19744
1.19158
1.18453
1.17451
1.1617
1.14448
1.21185
1.20992
1.20818
1.20519
1.20131
1.19565
1.18868
1.17835
1.16467
1.14576
1.21709
1.21485
1.21301
1.20986
1.20604
1.20034
1.19321
1.18215
1.16715
1.14621
1.22365
1.22116
1.21929
1.21596
1.21204
1.20588
1.19804
1.18556
1.16861
1.14564
1.2311
1.22853
1.22667
1.22311
1.21881
1.21168
1.20246
1.18802
1.16898
1.14374
1.23923
1.23664
1.23454
1.23034
1.22516
1.21658
1.20565
1.18924
1.16843
1.14097
1.24716
1.24437
1.24162
1.23626
1.22982
1.21973
1.20736
1.18968
1.16766
1.13815
1.25296
1.24963
1.24629
1.23992
1.23254
1.22159
1.20847
1.19018
1.16737
1.13609
1.25609
1.25227
1.24888
1.24224
1.23461
1.22343
1.21012
1.19176
1.16841
1.13529
1.26131
1.25622
1.25254
1.24562
1.23791
1.22682
1.21349
1.19524
1.17137
1.13576
1.27098
1.26377
1.25909
1.25129
1.24315
1.23209
1.21871
1.20056
1.17611
1.13791
1.28438
1.27504
1.26903
1.25986
1.25075
1.23937
1.2258
1.20768
1.18255
1.14269
1.29952
1.28759
1.27971
1.26927
1.25963
1.24838
1.23487
1.21679
1.19096
1.15025
1.31659
1.30138
1.29258
1.28172
1.27149
1.26029
1.24683
1.22891
1.20243
1.16263
1.33151
1.31272
1.30442
1.29447
1.28387
1.2718
1.25759
1.23946
1.21258
1.17534
1.36198
1.34364
1.33147
1.31868
1.30503
1.29071
1.27493
1.2568
1.23069
1.2063
1.10394
1.04647
0.98339
0.939129
0.919072
0.904904
0.939119
1.03176
1.0323
1.01833
1.10261
1.0425
0.97721
0.927577
0.906415
0.89989
0.944887
1.03707
1.03559
1.0204
1.10141
1.03776
0.970933
0.916361
0.892567
0.895224
0.951652
1.04231
1.03866
1.02263
1.09992
1.03199
0.964395
0.905757
0.878805
0.891006
0.959011
1.04755
1.04168
1.02494
1.09773
1.02511
0.957332
0.895588
0.865574
0.887217
0.966832
1.05286
1.04492
1.02733
1.09453
1.01704
0.949727
0.88587
0.854176
0.883469
0.974165
1.05748
1.04834
1.02983
1.09018
1.00794
0.941437
0.876545
0.844248
0.879561
0.981258
1.06167
1.05157
1.03206
1.08476
0.998015
0.932529
0.86796
0.836536
0.875245
0.987781
1.06542
1.05451
1.03419
1.07843
0.987535
0.922866
0.85952
0.831206
0.870929
0.993867
1.06865
1.05711
1.03599
1.07148
0.976565
0.912778
0.85204
0.827942
0.867063
0.999095
1.0714
1.05954
1.0378
1.06409
0.96509
0.901761
0.84498
0.826361
0.864583
1.00424
1.07384
1.0621
1.03977
1.05617
0.952833
0.890839
0.838893
0.825401
0.863262
1.00781
1.0761
1.06495
1.04196
1.04746
0.939816
0.879042
0.834241
0.825027
0.863844
1.01153
1.07819
1.06782
1.0443
1.0378
0.926397
0.868698
0.831225
0.82523
0.865442
1.0128
1.08014
1.07044
1.04673
1.02755
0.913466
0.861224
0.832182
0.826385
0.868447
1.01255
1.08154
1.07291
1.04923
1.01846
0.904377
0.858398
0.834471
0.82949
0.872507
1.01168
1.0825
1.07528
1.05173
1.01232
0.900271
0.860842
0.837623
0.835645
0.877484
1.01044
1.08342
1.07736
1.05425
1.01181
0.90383
0.868245
0.844145
0.845111
0.884022
1.0098
1.08413
1.07881
1.05689
1.01723
0.922835
0.885335
0.856742
0.859319
0.893627
1.01081
1.08444
1.0797
1.05963
1.03578
0.958744
0.91205
0.878627
0.880026
0.907436
1.01358
1.08465
1.08055
1.0629
1.18852
1.16184
1.13093
1.09679
1.05882
1.01745
0.969996
0.926164
0.928145
0.961654
1.18658
1.16124
1.1306
1.09651
1.05848
1.01698
0.969268
0.926494
0.929888
0.962867
1.18647
1.1615
1.13014
1.096
1.05784
1.0161
0.968099
0.927064
0.930437
0.964165
1.18561
1.1611
1.12949
1.09512
1.05682
1.01477
0.966555
0.927925
0.932496
0.966096
1.18505
1.16077
1.1286
1.09384
1.05532
1.01281
0.964502
0.929141
0.935822
0.967805
1.18447
1.16033
1.12755
1.09218
1.05331
1.01017
0.962031
0.930542
0.939362
0.969955
1.18374
1.15982
1.12627
1.09015
1.05076
1.00674
0.95921
0.93208
0.942841
0.972408
1.18245
1.15925
1.12485
1.08777
1.04766
1.00257
0.956145
0.933631
0.946521
0.975092
1.1779
1.15821
1.12351
1.08511
1.04415
0.997632
0.952822
0.935262
0.950682
0.978014
1.16891
1.15658
1.12208
1.08217
1.04003
0.991996
0.949465
0.937238
0.955714
0.980272
1.15551
1.15148
1.12024
1.07905
1.03568
0.985874
0.946096
0.939546
0.961771
0.982704
1.14026
1.14219
1.11724
1.07547
1.03104
0.97912
0.943241
0.942315
0.969104
0.985332
1.12749
1.12812
1.1111
1.0709
1.02571
0.971967
0.941415
0.945504
0.977303
0.988132
1.11956
1.111
1.10123
1.06495
1.01964
0.964635
0.939215
0.950425
0.985523
0.991061
1.11568
1.09411
1.08608
1.05807
1.01249
0.957354
0.936683
0.957832
0.993572
0.994153
1.11438
1.08036
1.06574
1.04672
1.00308
0.949721
0.934238
0.96767
1.0014
0.997704
1.11364
1.07037
1.04345
1.03201
0.990494
0.940902
0.932532
0.979769
1.00886
1.00163
1.11232
1.06353
1.02326
1.012
0.974864
0.933125
0.931917
0.993854
1.01562
1.00577
1.10989
1.05761
1.0065
0.985968
0.957315
0.924108
0.931535
1.0086
1.02174
1.01017
1.10645
1.05174
0.992753
0.958302
0.936599
0.913481
0.93437
1.02249
1.02769
1.01486
1.10645
1.05174
0.992752
0.958305
0.936595
0.913489
0.934398
1.0225
1.02769
1.01486
1.10989
1.05761
1.0065
0.985967
0.957311
0.924111
0.931551
1.00863
1.02175
1.01017
1.11232
1.06353
1.02326
1.012
0.974865
0.933125
0.931918
0.993861
1.01562
1.00576
1.11364
1.07037
1.04345
1.03201
0.990497
0.940903
0.93253
0.979764
1.00886
1.00163
1.11438
1.08037
1.06574
1.04672
1.00308
0.949721
0.934237
0.967665
1.0014
0.997704
1.11568
1.09411
1.08608
1.05807
1.01249
0.957354
0.936684
0.957832
0.993573
0.994155
1.11956
1.111
1.10123
1.06495
1.01964
0.964635
0.939216
0.950426
0.985524
0.991061
1.12749
1.12812
1.1111
1.0709
1.02571
0.971967
0.941415
0.945504
0.977302
0.98813
1.14026
1.14219
1.11724
1.07547
1.03104
0.97912
0.94324
0.942314
0.969102
0.98533
1.15551
1.15148
1.12024
1.07905
1.03568
0.985873
0.946095
0.939546
0.961771
0.982703
1.16891
1.15658
1.12208
1.08217
1.04003
0.991995
0.949465
0.937238
0.955715
0.980272
1.1779
1.15821
1.12351
1.08511
1.04415
0.997632
0.952822
0.935263
0.950683
0.978015
1.18245
1.15925
1.12485
1.08777
1.04766
1.00257
0.956146
0.933631
0.946521
0.975092
1.18374
1.15982
1.12627
1.09015
1.05076
1.00674
0.95921
0.93208
0.942841
0.972408
1.18447
1.16033
1.12755
1.09218
1.05331
1.01017
0.962031
0.930542
0.939362
0.969955
1.18505
1.16077
1.1286
1.09384
1.05532
1.01281
0.964502
0.929141
0.935822
0.967805
1.18561
1.1611
1.12949
1.09512
1.05682
1.01477
0.966555
0.927925
0.932496
0.966096
1.18647
1.1615
1.13014
1.096
1.05784
1.0161
0.968099
0.927064
0.930437
0.964165
1.18658
1.16124
1.1306
1.09651
1.05848
1.01698
0.969268
0.926494
0.929888
0.962867
1.18852
1.16184
1.13093
1.09679
1.05882
1.01745
0.969996
0.926164
0.928145
0.961654
1.19317
1.18959
1.18674
1.1829
1.1787
1.17335
1.16725
1.15937
1.14971
1.13787
1.18836
1.18527
1.18278
1.17934
1.1755
1.17063
1.16502
1.15793
1.1492
1.1385
1.1841
1.18155
1.17947
1.1766
1.17324
1.16885
1.1636
1.15703
1.14897
1.13918
1.18038
1.17858
1.17679
1.17422
1.17119
1.16714
1.16222
1.15613
1.14863
1.13936
1.1767
1.17602
1.17454
1.17194
1.16899
1.16506
1.16035
1.15451
1.14731
1.13845
1.17144
1.17112
1.17032
1.16806
1.16536
1.16175
1.15741
1.15192
1.14504
1.1364
1.1668
1.16536
1.16489
1.16345
1.1613
1.15824
1.15439
1.14931
1.14275
1.13457
1.1656
1.16286
1.16178
1.16017
1.15819
1.15555
1.15211
1.14748
1.14122
1.13419
1.16644
1.16269
1.16045
1.15829
1.15611
1.15379
1.15058
1.14649
1.14086
1.13643
1.16701
1.16247
1.15963
1.15713
1.15478
1.15234
1.14926
1.14585
1.1423
1.14378
1.16613
1.16169
1.15884
1.15644
1.15405
1.15134
1.14854
1.14642
1.14796
1.15818
1.16399
1.1605
1.15775
1.15537
1.15293
1.1503
1.14854
1.15061
1.16268
1.17603
1.15979
1.15866
1.15628
1.15417
1.15199
1.1505
1.15251
1.16546
1.18274
1.18971
1.15375
1.15589
1.15425
1.15299
1.15205
1.1541
1.16743
1.18695
1.19777
1.19656
1.1444
1.15238
1.15295
1.1528
1.15502
1.16909
1.19093
1.20422
1.20387
1.19822
1.13192
1.14838
1.15188
1.15464
1.16924
1.19445
1.21037
1.21142
1.20591
1.19934
1.11602
1.13948
1.15034
1.16648
1.19629
1.21599
1.2199
1.21503
1.20749
1.20065
1.09982
1.1224
1.15016
1.19306
1.22092
1.22845
1.22538
1.21656
1.2087
1.20175
1.08858
1.10281
1.15188
1.21902
1.23691
1.23548
1.22567
1.21716
1.20928
1.20216
1.08305
1.09139
1.15268
1.23063
1.2457
1.23992
1.22875
1.21994
1.21188
1.2048
1.00329
1.01441
1.03662
1.04933
1.05006
1.0491
1.0468
1.04299
1.10108
1.1706
1.00329
1.01441
1.03663
1.04933
1.05005
1.04911
1.04678
1.04303
1.09456
1.16623
1.00329
1.01441
1.03663
1.04933
1.05004
1.04912
1.04676
1.04307
1.08817
1.16158
1.00329
1.01441
1.03663
1.04933
1.05003
1.04914
1.04673
1.04312
1.08194
1.15694
1.00329
1.01441
1.03664
1.04933
1.05002
1.04915
1.0467
1.04317
1.07595
1.15268
1.00329
1.01441
1.03664
1.04933
1.05002
1.04915
1.04667
1.04323
1.07019
1.14924
1.00329
1.01441
1.03664
1.04932
1.05002
1.04916
1.04664
1.04329
1.06456
1.14565
1.00329
1.01441
1.03664
1.04932
1.05002
1.04916
1.04662
1.04337
1.05923
1.14067
1.00329
1.01441
1.03665
1.04931
1.05003
1.04915
1.04661
1.04344
1.05448
1.13463
1.00329
1.01441
1.03665
1.0493
1.05005
1.04913
1.04662
1.04353
1.05052
1.12795
1.00329
1.01441
1.03665
1.04929
1.05008
1.0491
1.04666
1.04357
1.04745
1.12076
1.00329
1.01441
1.03665
1.04928
1.05011
1.04906
1.04673
1.04348
1.04521
1.11334
1.00329
1.01441
1.03665
1.04926
1.05015
1.049
1.04682
1.04336
1.04361
1.10567
1.00329
1.01441
1.03665
1.04924
1.0502
1.04893
1.0469
1.04333
1.04249
1.09778
1.00329
1.0144
1.03665
1.04922
1.05025
1.04885
1.04699
1.04336
1.04174
1.08991
1.00329
1.0144
1.03665
1.0492
1.05029
1.04876
1.04707
1.0434
1.04117
1.0822
1.00329
1.0144
1.03665
1.04918
1.05034
1.04867
1.04716
1.04345
1.04072
1.07523
1.00329
1.0144
1.03665
1.04917
1.05037
1.04859
1.04723
1.04351
1.04037
1.06968
1.00329
1.0144
1.03665
1.04916
1.0504
1.04853
1.04728
1.04356
1.04013
1.06584
1.00329
1.0144
1.03665
1.04915
1.05042
1.04849
1.04731
1.0436
1.03999
1.06362
1.00329
1.0144
1.03665
1.04915
1.05042
1.04849
1.04731
1.0436
1.03999
1.06362
1.00329
1.0144
1.03665
1.04916
1.0504
1.04853
1.04728
1.04356
1.04013
1.06584
1.00329
1.0144
1.03665
1.04917
1.05037
1.04859
1.04723
1.04351
1.04037
1.06968
1.00329
1.0144
1.03665
1.04918
1.05034
1.04867
1.04716
1.04345
1.04072
1.07523
1.00329
1.0144
1.03665
1.0492
1.05029
1.04876
1.04707
1.0434
1.04117
1.0822
1.00329
1.0144
1.03665
1.04922
1.05025
1.04885
1.04699
1.04336
1.04174
1.08991
1.00329
1.01441
1.03665
1.04924
1.0502
1.04893
1.0469
1.04333
1.04249
1.09778
1.00329
1.01441
1.03665
1.04926
1.05015
1.049
1.04682
1.04336
1.04361
1.10567
1.00329
1.01441
1.03665
1.04928
1.05011
1.04906
1.04673
1.04348
1.04521
1.11334
1.00329
1.01441
1.03665
1.04929
1.05008
1.0491
1.04666
1.04357
1.04745
1.12076
1.00329
1.01441
1.03665
1.0493
1.05005
1.04913
1.04662
1.04353
1.05052
1.12795
1.00329
1.01441
1.03665
1.04931
1.05003
1.04915
1.04661
1.04344
1.05448
1.13463
1.00329
1.01441
1.03664
1.04932
1.05002
1.04916
1.04662
1.04337
1.05923
1.14067
1.00329
1.01441
1.03664
1.04932
1.05002
1.04916
1.04664
1.04329
1.06456
1.14565
1.00329
1.01441
1.03664
1.04933
1.05002
1.04915
1.04667
1.04323
1.07019
1.14924
1.00329
1.01441
1.03664
1.04933
1.05002
1.04915
1.0467
1.04317
1.07595
1.15268
1.00329
1.01441
1.03663
1.04933
1.05003
1.04914
1.04673
1.04312
1.08194
1.15694
1.00329
1.01441
1.03663
1.04933
1.05004
1.04912
1.04676
1.04307
1.08817
1.16158
1.00329
1.01441
1.03663
1.04933
1.05005
1.04911
1.04678
1.04303
1.09456
1.16623
1.00329
1.01441
1.03662
1.04933
1.05006
1.0491
1.0468
1.04299
1.10108
1.1706
1.08305
1.09139
1.15268
1.23063
1.2457
1.23992
1.22875
1.21994
1.21188
1.2048
1.08858
1.10281
1.15188
1.21902
1.23691
1.23548
1.22567
1.21716
1.20928
1.20216
1.09982
1.1224
1.15016
1.19306
1.22092
1.22845
1.22538
1.21656
1.2087
1.20175
1.11602
1.13948
1.15034
1.16648
1.19629
1.21599
1.2199
1.21503
1.20749
1.20065
1.13192
1.14838
1.15188
1.15464
1.16924
1.19445
1.21037
1.21142
1.20591
1.19934
1.1444
1.15238
1.15295
1.1528
1.15502
1.16909
1.19093
1.20422
1.20387
1.19822
1.15375
1.15589
1.15425
1.15299
1.15205
1.1541
1.16743
1.18695
1.19777
1.19656
1.15979
1.15866
1.15628
1.15417
1.15199
1.1505
1.15251
1.16546
1.18274
1.18971
1.16399
1.1605
1.15775
1.15537
1.15293
1.1503
1.14854
1.15061
1.16268
1.17603
1.16613
1.16169
1.15884
1.15644
1.15405
1.15134
1.14854
1.14642
1.14796
1.15818
1.16701
1.16247
1.15963
1.15713
1.15478
1.15234
1.14926
1.14585
1.1423
1.14378
1.16644
1.16269
1.16045
1.15829
1.15611
1.15379
1.15058
1.14649
1.14086
1.13643
1.1656
1.16286
1.16178
1.16017
1.15819
1.15555
1.15211
1.14748
1.14122
1.13419
1.1668
1.16536
1.16489
1.16345
1.1613
1.15824
1.15439
1.14931
1.14275
1.13457
1.17144
1.17112
1.17032
1.16806
1.16536
1.16175
1.15741
1.15192
1.14504
1.1364
1.1767
1.17602
1.17454
1.17194
1.16899
1.16506
1.16035
1.15451
1.14731
1.13845
1.18038
1.17858
1.17679
1.17422
1.17119
1.16714
1.16222
1.15613
1.14863
1.13936
1.1841
1.18155
1.17947
1.1766
1.17324
1.16885
1.1636
1.15703
1.14897
1.13918
1.18836
1.18527
1.18278
1.17934
1.1755
1.17063
1.16502
1.15793
1.1492
1.1385
1.19317
1.18959
1.18674
1.1829
1.1787
1.17335
1.16725
1.15937
1.14971
1.13786
)
;

boundaryField
{
    inlet
    {
        type            fixedValue;
        value           uniform 1;
    }
    outlet
    {
        type            inletOutlet;
        inletValue      uniform 1;
        value           nonuniform List<scalar> 
100
(
1.01491
1.01022
1.00582
1.00167
0.997721
0.99416
0.991037
0.988083
0.985283
0.982672
0.980274
0.978067
0.975138
0.972441
0.96998
0.967825
0.966121
0.964198
0.962896
0.96168
1.06301
1.05968
1.05695
1.05432
1.05177
1.04922
1.0467
1.04427
1.04194
1.03978
1.03782
1.036
1.03419
1.03204
1.02982
1.02733
1.02496
1.02268
1.02046
1.01839
1.0669
1.07214
1.08294
1.0979
1.1167
1.13744
1.15671
1.17288
1.18247
1.18534
1.18572
1.18264
1.17275
1.15664
1.13747
1.11669
1.09785
1.08288
1.07226
1.06697
1.01839
1.02047
1.02268
1.02497
1.02733
1.0298
1.03205
1.03419
1.036
1.03781
1.03976
1.04194
1.04428
1.04671
1.04923
1.05175
1.0543
1.05696
1.05973
1.06301
0.96168
0.962896
0.964198
0.966121
0.967825
0.96998
0.972441
0.975138
0.978066
0.980274
0.982673
0.985284
0.988084
0.991036
0.994158
0.997721
1.00167
1.00582
1.01022
1.01491
)
;
    }
    triangle
    {
        type            zeroGradient;
    }
    top
    {
        type            symmetryPlane;
    }
    bottom
    {
        type            symmetryPlane;
    }
    defaultFaces
    {
        type            empty;
    }
}


// ************************************************************************* //
