/*--------------------------------*- C++ -*----------------------------------*\
  =========                 |
  \\      /  F ield         | OpenFOAM: The Open Source CFD Toolbox
   \\    /   O peration     | Website:  https://openfoam.org
    \\  /    A nd           | Version:  8
     \\/     M anipulation  |
\*---------------------------------------------------------------------------*/
FoamFile
{
    version     2.0;
    format      ascii;
    class       volVectorField;
    location    "0.9";
    object      U;
}
// * * * * * * * * * * * * * * * * * * * * * * * * * * * * * * * * * * * * * //

dimensions      [0 1 -1 0 0 0 0];

internalField   nonuniform List<vector> 
2600
(
(0.528595 -0.0256023 0)
(1.02593 0.112587 0)
(1.34788 0.185817 0)
(1.49295 0.219989 0)
(1.5146 0.188204 0)
(1.5132 0.0886297 0)
(1.22839 0.146928 0)
(1.0213 0.165824 0)
(1.0054 0.146192 0)
(1.02889 0.0960057 0)
(0.144906 -0.1332 0)
(0.65001 0.0564357 0)
(1.11673 0.154892 0)
(1.38698 0.197159 0)
(1.46501 0.170723 0)
(1.49203 0.0769347 0)
(1.22473 0.143303 0)
(1.01935 0.16567 0)
(1.00182 0.141784 0)
(1.02465 0.0922502 0)
(0.00135557 -0.143202 0)
(0.332207 0.019535 0)
(0.817173 0.113623 0)
(1.19569 0.167855 0)
(1.36245 0.153094 0)
(1.42766 0.0645754 0)
(1.20546 0.139337 0)
(1.01462 0.17026 0)
(0.996952 0.139085 0)
(1.02034 0.0801822 0)
(-0.0562817 -0.161335 0)
(0.131782 -0.0342106 0)
(0.514285 0.0628117 0)
(0.927612 0.1226 0)
(1.18259 0.123588 0)
(1.27958 0.051007 0)
(1.1468 0.133484 0)
(0.998368 0.174336 0)
(0.990153 0.133696 0)
(1.01589 0.0648639 0)
(-0.0967983 -0.151353 0)
(-0.0117278 -0.0465692 0)
(0.231092 0.0270185 0)
(0.596476 0.0854142 0)
(0.900499 0.0961717 0)
(1.01249 0.0473217 0)
(1.01465 0.125021 0)
(0.956194 0.168392 0)
(0.974199 0.123465 0)
(1.00687 0.0483287 0)
(-0.134131 -0.145509 0)
(-0.132484 -0.0615273 0)
(-0.0328327 0.000482504 0)
(0.228678 0.0417676 0)
(0.515807 0.0669949 0)
(0.635909 0.0211534 0)
(0.788187 0.109081 0)
(0.87094 0.149606 0)
(0.936609 0.10609 0)
(0.984851 0.0339486 0)
(-0.165456 -0.124245 0)
(-0.247631 -0.0522387 0)
(-0.267169 -0.00198557 0)
(-0.127397 0.0213536 0)
(0.0963177 0.0484575 0)
(0.231834 0.0338109 0)
(0.497891 0.081082 0)
(0.72925 0.129894 0)
(0.862074 0.0909004 0)
(0.945253 0.0309263 0)
(-0.193617 -0.0960914 0)
(-0.347212 -0.0425114 0)
(-0.44307 -0.00197053 0)
(-0.395734 0.00450888 0)
(-0.242859 0.0302313 0)
(-0.0887152 0.0109221 0)
(0.225959 0.0598238 0)
(0.556285 0.0896107 0)
(0.75904 0.0661103 0)
(0.896806 0.0231936 0)
(-0.2136 -0.0597541 0)
(-0.409897 -0.027413 0)
(-0.541821 -0.00254654 0)
(-0.538523 0.00305973 0)
(-0.431768 0.020315 0)
(-0.26846 0.0117651 0)
(0.0485984 0.0348357 0)
(0.407833 0.0634473 0)
(0.661429 0.0473402 0)
(0.85488 0.0176934 0)
(-0.22804 -0.0201733 0)
(-0.436257 -0.0106218 0)
(-0.573825 -0.00247534 0)
(-0.579134 0.000726074 0)
(-0.490284 0.00871103 0)
(-0.324272 0.00479807 0)
(-0.0194727 0.0148058 0)
(0.335293 0.0251152 0)
(0.609543 0.0188486 0)
(0.833716 0.00750407 0)
(-0.227981 0.0200723 0)
(-0.436531 0.0102945 0)
(-0.57389 0.00104164 0)
(-0.57906 -0.000768047 0)
(-0.490325 -0.00848619 0)
(-0.32427 -0.00455606 0)
(-0.0194336 -0.0148751 0)
(0.33522 -0.0252293 0)
(0.609628 -0.0197032 0)
(0.833669 -0.00764479 0)
(-0.213475 0.0595382 0)
(-0.41013 0.0276845 0)
(-0.542548 0.00383773 0)
(-0.538692 -0.00320311 0)
(-0.431905 -0.0201779 0)
(-0.268398 -0.0115161 0)
(0.0487339 -0.0349884 0)
(0.407891 -0.0634081 0)
(0.661513 -0.0466924 0)
(0.854855 -0.0174711 0)
(-0.193694 0.0958521 0)
(-0.347353 0.0429211 0)
(-0.443575 0.00272325 0)
(-0.396199 -0.00447739 0)
(-0.24318 -0.0300951 0)
(-0.0885484 -0.010943 0)
(0.226197 -0.0597566 0)
(0.556371 -0.0899469 0)
(0.759165 -0.0653391 0)
(0.896866 -0.0229236 0)
(-0.165753 0.124101 0)
(-0.24791 0.0520137 0)
(-0.267463 0.00126891 0)
(-0.127913 -0.0214653 0)
(0.0958345 -0.0482941 0)
(0.232093 -0.0337769 0)
(0.498158 -0.0811227 0)
(0.729224 -0.12938 0)
(0.862191 -0.0914251 0)
(0.945318 -0.0312609 0)
(-0.134591 0.145398 0)
(-0.133015 0.0612984 0)
(-0.0332159 -0.000937587 0)
(0.228257 -0.0418088 0)
(0.515305 -0.0668838 0)
(0.636161 -0.0214479 0)
(0.788396 -0.109024 0)
(0.870934 -0.149474 0)
(0.936675 -0.106556 0)
(0.984865 -0.0338303 0)
(-0.0973198 0.151253 0)
(-0.0123438 0.0463146 0)
(0.230618 -0.0274584 0)
(0.596202 -0.0854903 0)
(0.900145 -0.0960505 0)
(1.01268 -0.0473301 0)
(1.01469 -0.125247 0)
(0.956193 -0.168817 0)
(0.974255 -0.122958 0)
(1.00687 -0.0482866 0)
(-0.0567547 0.161338 0)
(0.131282 0.0345163 0)
(0.513961 -0.0618354 0)
(0.927448 -0.122136 0)
(1.18243 -0.12358 0)
(1.27972 -0.0511952 0)
(1.14675 -0.133757 0)
(0.998317 -0.174394 0)
(0.990122 -0.133491 0)
(1.01573 -0.0650291 0)
(0.00104171 0.143181 0)
(0.331805 -0.019344 0)
(0.816858 -0.113347 0)
(1.19551 -0.167763 0)
(1.36246 -0.152954 0)
(1.42782 -0.0647951 0)
(1.20541 -0.139173 0)
(1.01454 -0.170033 0)
(0.996901 -0.139437 0)
(1.02051 -0.0803804 0)
(0.144793 0.133276 0)
(0.649947 -0.0559741 0)
(1.11681 -0.154153 0)
(1.38696 -0.197263 0)
(1.46512 -0.170089 0)
(1.49214 -0.0760915 0)
(1.22471 -0.143087 0)
(1.01933 -0.165614 0)
(1.00183 -0.141848 0)
(1.02465 -0.0920431 0)
(0.528697 0.0255869 0)
(1.02604 -0.112828 0)
(1.34797 -0.186642 0)
(1.49295 -0.219893 0)
(1.51465 -0.188052 0)
(1.51316 -0.0883548 0)
(1.22845 -0.146787 0)
(1.02133 -0.165816 0)
(1.00537 -0.146097 0)
(1.02891 -0.0958333 0)
(1.08802 0.0356344 0)
(1.33322 -0.121125 0)
(1.48654 -0.199706 0)
(1.53903 -0.2383 0)
(1.53874 -0.202384 0)
(1.51669 -0.106116 0)
(1.2272 -0.152574 0)
(1.02372 -0.164836 0)
(1.01108 -0.147238 0)
(1.03373 -0.0952854 0)
(1.24601 0.177999 0)
(1.47728 -0.110503 0)
(1.54372 -0.202319 0)
(1.55423 -0.247539 0)
(1.5486 -0.22077 0)
(1.51063 -0.126738 0)
(1.22314 -0.162837 0)
(1.02663 -0.161965 0)
(1.01799 -0.145244 0)
(1.03942 -0.0929583 0)
(1.28042 0.180044 0)
(1.50761 -0.0980927 0)
(1.54598 -0.204513 0)
(1.55538 -0.25252 0)
(1.55608 -0.233409 0)
(1.50411 -0.144383 0)
(1.22035 -0.172837 0)
(1.03013 -0.161693 0)
(1.02481 -0.144144 0)
(1.04597 -0.0910836 0)
(1.25433 0.211328 0)
(1.49229 -0.054447 0)
(1.5303 -0.192597 0)
(1.55669 -0.25509 0)
(1.56284 -0.243773 0)
(1.51002 -0.166465 0)
(1.22041 -0.182093 0)
(1.03401 -0.162727 0)
(1.0317 -0.142598 0)
(1.05227 -0.0886729 0)
(1.23169 0.214599 0)
(1.47173 -0.0319227 0)
(1.51263 -0.189519 0)
(1.55804 -0.25573 0)
(1.56557 -0.251482 0)
(1.51085 -0.188679 0)
(1.21875 -0.191745 0)
(1.03727 -0.165497 0)
(1.039 -0.141938 0)
(1.05833 -0.086576 0)
(1.21015 0.21905 0)
(1.4396 0.00410718 0)
(1.50436 -0.17121 0)
(1.5535 -0.252808 0)
(1.56799 -0.256851 0)
(1.51597 -0.215312 0)
(1.21999 -0.200744 0)
(1.0416 -0.166502 0)
(1.04613 -0.140296 0)
(1.06396 -0.0847123 0)
(1.19022 0.222242 0)
(1.41447 0.0247957 0)
(1.50049 -0.162823 0)
(1.54608 -0.245423 0)
(1.56877 -0.259797 0)
(1.51329 -0.240441 0)
(1.21921 -0.210581 0)
(1.04635 -0.168131 0)
(1.05365 -0.138532 0)
(1.0695 -0.0831204 0)
(1.17308 0.222489 0)
(1.38679 0.0477097 0)
(1.48873 -0.136053 0)
(1.54495 -0.237208 0)
(1.56786 -0.261411 0)
(1.51396 -0.267588 0)
(1.21742 -0.220935 0)
(1.05178 -0.168583 0)
(1.06142 -0.136628 0)
(1.07472 -0.0814801 0)
(1.15701 0.223397 0)
(1.36278 0.0638597 0)
(1.47777 -0.122044 0)
(1.54431 -0.224305 0)
(1.56693 -0.263701 0)
(1.50709 -0.293053 0)
(1.21666 -0.23003 0)
(1.05689 -0.169867 0)
(1.06943 -0.13557 0)
(1.08035 -0.0799192 0)
(1.14362 0.222477 0)
(1.33987 0.0782162 0)
(1.46056 -0.0980686 0)
(1.5356 -0.200733 0)
(1.56583 -0.265174 0)
(1.50892 -0.318847 0)
(1.22787 -0.241923 0)
(1.06168 -0.171289 0)
(1.07676 -0.133896 0)
(1.08603 -0.0780079 0)
(1.13202 0.222294 0)
(1.31974 0.0889891 0)
(1.44564 -0.0805546 0)
(1.53102 -0.185738 0)
(1.56457 -0.26389 0)
(1.49936 -0.342218 0)
(1.23427 -0.253035 0)
(1.0666 -0.172708 0)
(1.08397 -0.132636 0)
(1.09173 -0.0759569 0)
(1.12259 0.221316 0)
(1.3013 0.0984906 0)
(1.42971 -0.0611328 0)
(1.51726 -0.158052 0)
(1.55995 -0.260365 0)
(1.49454 -0.362454 0)
(1.25082 -0.265245 0)
(1.07267 -0.17447 0)
(1.09057 -0.13083 0)
(1.09662 -0.0735025 0)
(1.11444 0.220692 0)
(1.28562 0.105508 0)
(1.415 -0.0427907 0)
(1.51031 -0.141676 0)
(1.55117 -0.259284 0)
(1.48887 -0.379341 0)
(1.26957 -0.275803 0)
(1.08018 -0.175819 0)
(1.09699 -0.129591 0)
(1.10169 -0.0714931 0)
(1.10717 0.219368 0)
(1.27137 0.112282 0)
(1.40195 -0.0258987 0)
(1.49681 -0.117555 0)
(1.53712 -0.255378 0)
(1.48588 -0.392104 0)
(1.28985 -0.285401 0)
(1.0885 -0.176972 0)
(1.10288 -0.128388 0)
(1.10559 -0.069464 0)
(1.10051 0.217893 0)
(1.25928 0.117388 0)
(1.38876 -0.00802354 0)
(1.48656 -0.102679 0)
(1.52056 -0.256422 0)
(1.48458 -0.401274 0)
(1.31056 -0.293992 0)
(1.09682 -0.177526 0)
(1.1085 -0.127381 0)
(1.1102 -0.0676945 0)
(1.09436 0.215773 0)
(1.2478 0.123035 0)
(1.37852 0.0074098 0)
(1.47252 -0.086671 0)
(1.50603 -0.253072 0)
(1.48352 -0.405615 0)
(1.32761 -0.303877 0)
(1.10499 -0.177992 0)
(1.11301 -0.125853 0)
(1.11299 -0.0661023 0)
(1.08859 0.213708 0)
(1.23813 0.127275 0)
(1.36646 0.0241671 0)
(1.45744 -0.0769008 0)
(1.49592 -0.255669 0)
(1.47683 -0.406639 0)
(1.33859 -0.312601 0)
(1.11325 -0.178484 0)
(1.11773 -0.124212 0)
(1.11588 -0.0640287 0)
(1.08313 0.211077 0)
(1.22832 0.13268 0)
(1.35779 0.0374947 0)
(1.43921 -0.0694401 0)
(1.49256 -0.253886 0)
(1.46229 -0.403306 0)
(1.35109 -0.320761 0)
(1.12181 -0.179845 0)
(1.12267 -0.122249 0)
(1.11881 -0.0614519 0)
(1.07806 0.208879 0)
(1.22048 0.136381 0)
(1.34577 0.0516883 0)
(1.41948 -0.0672553 0)
(1.48615 -0.253627 0)
(1.44883 -0.396044 0)
(1.36439 -0.329449 0)
(1.13211 -0.181936 0)
(1.12688 -0.120356 0)
(1.12102 -0.0586552 0)
(1.07367 0.206393 0)
(1.21132 0.141744 0)
(1.33665 0.0615012 0)
(1.39957 -0.0676719 0)
(1.472 -0.251042 0)
(1.44033 -0.386411 0)
(1.37306 -0.335184 0)
(1.14489 -0.183521 0)
(1.1318 -0.118372 0)
(1.12362 -0.0556321 0)
(0.371088 0.126032 0)
(0.440052 0.158925 0)
(0.479879 0.211026 0)
(0.523359 0.250021 0)
(0.562079 0.283066 0)
(0.600483 0.310797 0)
(0.640811 0.337087 0)
(0.689727 0.362867 0)
(0.75641 0.395661 0)
(0.878879 0.428534 0)
(0.398155 0.15324 0)
(0.45057 0.17495 0)
(0.479118 0.215508 0)
(0.519345 0.250222 0)
(0.556707 0.283 0)
(0.59595 0.310897 0)
(0.637923 0.337456 0)
(0.688984 0.3637 0)
(0.759256 0.396984 0)
(0.880341 0.423312 0)
(0.449499 0.148011 0)
(0.489966 0.162783 0)
(0.506532 0.194726 0)
(0.538026 0.226903 0)
(0.567984 0.260984 0)
(0.604608 0.290681 0)
(0.646726 0.319502 0)
(0.700079 0.346891 0)
(0.774714 0.379953 0)
(0.901175 0.394936 0)
(0.499814 0.157189 0)
(0.533175 0.177039 0)
(0.542491 0.206734 0)
(0.569297 0.231799 0)
(0.593408 0.259253 0)
(0.626133 0.283896 0)
(0.664505 0.309972 0)
(0.714937 0.334381 0)
(0.788301 0.363509 0)
(0.910149 0.369852 0)
(0.544476 0.157804 0)
(0.572086 0.177738 0)
(0.579204 0.206256 0)
(0.603536 0.230334 0)
(0.623393 0.257175 0)
(0.653635 0.28041 0)
(0.689547 0.305064 0)
(0.738841 0.326763 0)
(0.811621 0.352462 0)
(0.93056 0.352935 0)
(0.583765 0.163493 0)
(0.605184 0.182929 0)
(0.610208 0.209235 0)
(0.632154 0.231336 0)
(0.650093 0.256388 0)
(0.679587 0.277446 0)
(0.714227 0.300771 0)
(0.762594 0.319806 0)
(0.832974 0.341088 0)
(0.94472 0.33856 0)
(0.619197 0.169061 0)
(0.634407 0.186448 0)
(0.637407 0.209084 0)
(0.656571 0.228479 0)
(0.672952 0.251744 0)
(0.701698 0.271428 0)
(0.73514 0.293833 0)
(0.782392 0.310899 0)
(0.849317 0.328378 0)
(0.952548 0.325056 0)
(0.64913 0.178049 0)
(0.660249 0.1926 0)
(0.662957 0.211594 0)
(0.680282 0.227969 0)
(0.695331 0.248559 0)
(0.722558 0.265947 0)
(0.754224 0.286841 0)
(0.799918 0.302165 0)
(0.86314 0.316524 0)
(0.95754 0.312572 0)
(0.674384 0.184387 0)
(0.684143 0.195914 0)
(0.687581 0.212295 0)
(0.703808 0.227291 0)
(0.71808 0.246258 0)
(0.74371 0.261783 0)
(0.77298 0.280494 0)
(0.815941 0.293558 0)
(0.874487 0.304987 0)
(0.960867 0.301159 0)
(0.697046 0.187572 0)
(0.706932 0.197962 0)
(0.711102 0.212568 0)
(0.726177 0.226104 0)
(0.73966 0.243247 0)
(0.763796 0.257776 0)
(0.791401 0.275475 0)
(0.831994 0.286921 0)
(0.885838 0.29555 0)
(0.96398 0.291224 0)
(0.718256 0.189911 0)
(0.728361 0.199903 0)
(0.732791 0.213184 0)
(0.74675 0.225534 0)
(0.759431 0.240763 0)
(0.781674 0.253675 0)
(0.807488 0.269617 0)
(0.846211 0.280176 0)
(0.896244 0.286969 0)
(0.967505 0.282708 0)
(0.737671 0.191453 0)
(0.747406 0.200777 0)
(0.751657 0.212648 0)
(0.764415 0.224093 0)
(0.776494 0.23809 0)
(0.797236 0.250222 0)
(0.82179 0.264376 0)
(0.858432 0.273514 0)
(0.905438 0.279165 0)
(0.970329 0.274972 0)
(0.754576 0.192245 0)
(0.763406 0.201076 0)
(0.76729 0.211838 0)
(0.778757 0.222289 0)
(0.790405 0.234837 0)
(0.809998 0.245901 0)
(0.833922 0.258931 0)
(0.868601 0.26665 0)
(0.912693 0.271034 0)
(0.973343 0.268024 0)
(0.768554 0.192622 0)
(0.776215 0.200783 0)
(0.779821 0.210404 0)
(0.790286 0.219764 0)
(0.801889 0.231021 0)
(0.82079 0.240941 0)
(0.844066 0.252681 0)
(0.877715 0.260238 0)
(0.918438 0.263269 0)
(0.974907 0.260821 0)
(0.77959 0.193402 0)
(0.786421 0.20082 0)
(0.790363 0.209288 0)
(0.80056 0.217245 0)
(0.812353 0.227058 0)
(0.83077 0.235687 0)
(0.853337 0.246153 0)
(0.885447 0.253314 0)
(0.924592 0.256682 0)
(0.97687 0.254316 0)
(0.788477 0.193105 0)
(0.795113 0.199169 0)
(0.800006 0.206656 0)
(0.810692 0.213713 0)
(0.822816 0.222734 0)
(0.840885 0.23041 0)
(0.862547 0.239781 0)
(0.892924 0.246537 0)
(0.930121 0.249885 0)
(0.978473 0.247988 0)
(0.797791 0.193042 0)
(0.805818 0.197317 0)
(0.811566 0.203762 0)
(0.822389 0.209981 0)
(0.83419 0.218267 0)
(0.85155 0.225204 0)
(0.871984 0.233725 0)
(0.900394 0.240071 0)
(0.935078 0.243255 0)
(0.980065 0.242119 0)
(0.808242 0.192171 0)
(0.818242 0.195004 0)
(0.82431 0.200775 0)
(0.834802 0.206588 0)
(0.845951 0.214342 0)
(0.862341 0.220665 0)
(0.881378 0.228351 0)
(0.907677 0.234312 0)
(0.939873 0.237364 0)
(0.981334 0.236574 0)
(0.818297 0.189501 0)
(0.829726 0.192541 0)
(0.835738 0.198117 0)
(0.845863 0.203447 0)
(0.856419 0.210575 0)
(0.871862 0.216415 0)
(0.889688 0.223483 0)
(0.913981 0.228944 0)
(0.943804 0.231836 0)
(0.982335 0.231609 0)
(0.827779 0.185871 0)
(0.839088 0.189202 0)
(0.844895 0.19473 0)
(0.854766 0.199844 0)
(0.864866 0.20651 0)
(0.879483 0.212039 0)
(0.896379 0.218673 0)
(0.919422 0.224199 0)
(0.947594 0.227277 0)
(0.982853 0.227109 0)
(1.3738 -5.75571e-08 0)
(1.33915 5.1181e-07 0)
(1.27704 -3.70451e-07 0)
(1.23587 -2.5382e-06 0)
(1.22632 4.17353e-06 0)
(1.21963 -5.3223e-06 0)
(1.21415 6.30247e-06 0)
(1.20943 -0.0001882 0)
(0.88636 0.00490537 0)
(0.462601 0.0136607 0)
(1.3738 -1.77672e-07 0)
(1.33915 1.60112e-06 0)
(1.27704 -1.28175e-06 0)
(1.23587 -7.73059e-06 0)
(1.22632 1.29168e-05 0)
(1.21961 -1.45353e-05 0)
(1.21421 -1.15331e-05 0)
(1.20923 -0.000363509 0)
(0.891169 0.0139632 0)
(0.486583 0.0390372 0)
(1.3738 -2.97438e-07 0)
(1.33915 2.70231e-06 0)
(1.27704 -2.22063e-06 0)
(1.23586 -1.2878e-05 0)
(1.22632 2.1517e-05 0)
(1.21958 -2.52308e-05 0)
(1.21436 1.80137e-05 0)
(1.20898 -0.000542591 0)
(0.89686 0.0213379 0)
(0.51951 0.058431 0)
(1.3738 -4.16759e-07 0)
(1.33915 3.80015e-06 0)
(1.27704 -3.17117e-06 0)
(1.23586 -1.79411e-05 0)
(1.22633 2.9486e-05 0)
(1.21953 -2.9927e-05 0)
(1.21455 1.9031e-06 0)
(1.20865 -0.000671094 0)
(0.90104 0.0287515 0)
(0.550956 0.0769139 0)
(1.3738 -5.36065e-07 0)
(1.33915 4.90529e-06 0)
(1.27704 -4.17419e-06 0)
(1.23586 -2.29196e-05 0)
(1.22634 3.80944e-05 0)
(1.21948 -4.34234e-05 0)
(1.21476 2.47685e-05 0)
(1.20827 -0.000733501 0)
(0.906321 0.0353235 0)
(0.581706 0.0898349 0)
(1.3738 -6.55098e-07 0)
(1.33915 6.01908e-06 0)
(1.27704 -5.23692e-06 0)
(1.23586 -2.77055e-05 0)
(1.22636 4.55128e-05 0)
(1.21943 -4.80156e-05 0)
(1.21494 2.27914e-05 0)
(1.20785 -0.000742514 0)
(0.912219 0.0414489 0)
(0.610106 0.101584 0)
(1.3738 -7.73324e-07 0)
(1.33915 7.13772e-06 0)
(1.27703 -6.37293e-06 0)
(1.23586 -3.24019e-05 0)
(1.22636 5.41913e-05 0)
(1.21938 -5.91577e-05 0)
(1.21508 4.187e-05 0)
(1.20747 -0.000737987 0)
(0.919014 0.046898 0)
(0.637737 0.109899 0)
(1.3738 -8.8995e-07 0)
(1.33915 8.25577e-06 0)
(1.27703 -7.59183e-06 0)
(1.23586 -3.68327e-05 0)
(1.22637 6.16083e-05 0)
(1.21935 -6.64143e-05 0)
(1.21517 5.02499e-05 0)
(1.20719 -0.000664944 0)
(0.926535 0.0517603 0)
(0.664098 0.117075 0)
(1.3738 -1.00389e-06 0)
(1.33915 9.36356e-06 0)
(1.27703 -8.89979e-06 0)
(1.23586 -4.12007e-05 0)
(1.22638 7.00528e-05 0)
(1.21932 -7.59509e-05 0)
(1.21523 8.1211e-05 0)
(1.20703 -0.000712464 0)
(0.93475 0.0562585 0)
(0.688714 0.122603 0)
(1.3738 -1.11378e-06 0)
(1.33915 1.04484e-05 0)
(1.27703 -1.03002e-05 0)
(1.23586 -4.5335e-05 0)
(1.22638 7.7957e-05 0)
(1.21931 -8.7758e-05 0)
(1.21526 0.000107006 0)
(1.20691 -0.000740834 0)
(0.944292 0.0603851 0)
(0.710271 0.127701 0)
(1.3738 -1.21785e-06 0)
(1.33915 1.14956e-05 0)
(1.27702 -1.17891e-05 0)
(1.23586 -4.93137e-05 0)
(1.22639 8.59931e-05 0)
(1.2193 -9.89953e-05 0)
(1.21526 0.000151725 0)
(1.20677 -0.000949477 0)
(0.955247 0.0636776 0)
(0.72903 0.131731 0)
(1.3738 -1.31366e-06 0)
(1.33915 1.24887e-05 0)
(1.27702 -1.33564e-05 0)
(1.23586 -5.32451e-05 0)
(1.22639 9.42317e-05 0)
(1.2193 -0.000110866 0)
(1.21525 0.000178296 0)
(1.20665 -0.000861551 0)
(0.966969 0.0663534 0)
(0.745633 0.135022 0)
(1.3738 -1.39842e-06 0)
(1.33915 1.34083e-05 0)
(1.27702 -1.4983e-05 0)
(1.23586 -5.72399e-05 0)
(1.2264 0.00010284 0)
(1.21929 -0.000122148 0)
(1.21522 0.000206961 0)
(1.20659 -0.000770028 0)
(0.979088 0.0684396 0)
(0.760749 0.137446 0)
(1.3738 -1.46974e-06 0)
(1.33915 1.42318e-05 0)
(1.27701 -1.66342e-05 0)
(1.23586 -6.14064e-05 0)
(1.2264 0.000111992 0)
(1.21929 -0.000132622 0)
(1.21521 0.000224733 0)
(1.2065 -0.000726182 0)
(0.991422 0.0699749 0)
(0.774577 0.139362 0)
(1.3738 -1.52796e-06 0)
(1.33915 1.49352e-05 0)
(1.27701 -1.82569e-05 0)
(1.23586 -6.58488e-05 0)
(1.2264 0.000122015 0)
(1.2193 -0.000143123 0)
(1.2152 0.000239821 0)
(1.2064 -0.000657512 0)
(1.0039 0.0710045 0)
(0.786839 0.140911 0)
(1.3738 -1.57215e-06 0)
(1.33915 1.54962e-05 0)
(1.277 -1.97961e-05 0)
(1.23586 -7.06923e-05 0)
(1.22641 0.00013329 0)
(1.2193 -0.000153865 0)
(1.21519 0.000251423 0)
(1.20633 -0.00059932 0)
(1.01652 0.0715452 0)
(0.797054 0.142187 0)
(1.3738 -1.59608e-06 0)
(1.33915 1.58981e-05 0)
(1.277 -2.12137e-05 0)
(1.23586 -7.61024e-05 0)
(1.22642 0.000146291 0)
(1.2193 -0.000166036 0)
(1.21518 0.000262038 0)
(1.20626 -0.00054307 0)
(1.02929 0.0716779 0)
(0.804933 0.143831 0)
(1.3738 -1.59988e-06 0)
(1.33915 1.61264e-05 0)
(1.27699 -2.25068e-05 0)
(1.23586 -8.21809e-05 0)
(1.22642 0.000161584 0)
(1.21929 -0.000179258 0)
(1.21517 0.000272253 0)
(1.20621 -0.000491062 0)
(1.04225 0.0716836 0)
(0.811874 0.144636 0)
(1.3738 -1.57501e-06 0)
(1.33916 1.62289e-05 0)
(1.27699 -2.36818e-05 0)
(1.23586 -8.90076e-05 0)
(1.22643 0.000179381 0)
(1.21929 -0.000197296 0)
(1.21517 0.000283061 0)
(1.20615 -0.000443354 0)
(1.05524 0.0711851 0)
(0.819347 0.144977 0)
(1.3738 -1.52277e-06 0)
(1.33916 1.59481e-05 0)
(1.27698 -2.45957e-05 0)
(1.23586 -9.65138e-05 0)
(1.22644 0.000199862 0)
(1.21929 -0.00021909 0)
(1.21518 0.000299021 0)
(1.20609 -0.000399865 0)
(1.0677 0.0699882 0)
(0.828101 0.145348 0)
(1.3738 1.52279e-06 0)
(1.33916 -1.59482e-05 0)
(1.27698 2.45957e-05 0)
(1.23586 9.65327e-05 0)
(1.22644 -0.000199912 0)
(1.21929 0.000219134 0)
(1.21518 -0.000299192 0)
(1.20609 0.000399818 0)
(1.0677 -0.069988 0)
(0.828101 -0.145348 0)
(1.3738 1.57501e-06 0)
(1.33916 -1.6229e-05 0)
(1.27699 2.36819e-05 0)
(1.23586 8.90173e-05 0)
(1.22643 -0.000179405 0)
(1.21929 0.000197252 0)
(1.21517 -0.000283202 0)
(1.20615 0.00044348 0)
(1.05524 -0.0711849 0)
(0.819347 -0.144977 0)
(1.3738 1.59987e-06 0)
(1.33915 -1.61261e-05 0)
(1.27699 2.25076e-05 0)
(1.23586 8.21731e-05 0)
(1.22642 -0.000161534 0)
(1.21929 0.000179165 0)
(1.21517 -0.00027235 0)
(1.20621 0.000491416 0)
(1.04225 -0.0716831 0)
(0.811874 -0.144636 0)
(1.3738 1.59609e-06 0)
(1.33915 -1.58984e-05 0)
(1.277 2.12153e-05 0)
(1.23586 7.60579e-05 0)
(1.22642 -0.000146131 0)
(1.2193 0.0001657 0)
(1.21518 -0.000261995 0)
(1.20626 0.00054369 0)
(1.02929 -0.0716771 0)
(0.804933 -0.143831 0)
(1.3738 1.57216e-06 0)
(1.33915 -1.54965e-05 0)
(1.277 1.97985e-05 0)
(1.23586 7.06303e-05 0)
(1.22641 -0.000133049 0)
(1.2193 0.000153395 0)
(1.21519 -0.000251231 0)
(1.20633 0.000600072 0)
(1.01652 -0.0715444 0)
(0.797054 -0.142187 0)
(1.3738 1.52797e-06 0)
(1.33915 -1.49355e-05 0)
(1.27701 1.82596e-05 0)
(1.23586 6.57906e-05 0)
(1.2264 -0.000121773 0)
(1.21929 0.000142628 0)
(1.2152 -0.000239483 0)
(1.2064 0.000658182 0)
(1.0039 -0.0710041 0)
(0.786839 -0.140911 0)
(1.3738 1.46975e-06 0)
(1.33915 -1.42321e-05 0)
(1.27701 1.66367e-05 0)
(1.23586 6.13672e-05 0)
(1.2264 -0.000111826 0)
(1.21929 0.000132242 0)
(1.21521 -0.000224296 0)
(1.2065 0.000726609 0)
(0.991422 -0.0699749 0)
(0.774577 -0.139362 0)
(1.3738 1.39843e-06 0)
(1.33915 -1.34088e-05 0)
(1.27702 1.49849e-05 0)
(1.23586 5.72199e-05 0)
(1.2264 -0.000102773 0)
(1.21929 0.000122021 0)
(1.21522 -0.000206481 0)
(1.20659 0.00077008 0)
(0.979088 -0.0684401 0)
(0.760749 -0.137446 0)
(1.3738 1.31368e-06 0)
(1.33915 -1.24893e-05 0)
(1.27702 1.3358e-05 0)
(1.23586 5.32314e-05 0)
(1.22639 -9.4209e-05 0)
(1.2193 0.000110755 0)
(1.21525 -0.000178056 0)
(1.20665 0.000861499 0)
(0.966969 -0.0663539 0)
(0.745633 -0.135023 0)
(1.3738 1.21788e-06 0)
(1.33915 -1.14964e-05 0)
(1.27702 1.17907e-05 0)
(1.23586 4.92966e-05 0)
(1.22639 -8.59737e-05 0)
(1.2193 9.92168e-05 0)
(1.21526 -0.000151562 0)
(1.20677 0.000948499 0)
(0.955246 -0.063678 0)
(0.72903 -0.131731 0)
(1.3738 1.11382e-06 0)
(1.33915 -1.04491e-05 0)
(1.27703 1.03019e-05 0)
(1.23586 4.5315e-05 0)
(1.22638 -7.79064e-05 0)
(1.21931 8.77099e-05 0)
(1.21526 -0.000107024 0)
(1.20691 0.000740633 0)
(0.944292 -0.0603852 0)
(0.710271 -0.127701 0)
(1.3738 1.00392e-06 0)
(1.33915 -9.36413e-06 0)
(1.27703 8.90121e-06 0)
(1.23586 4.1179e-05 0)
(1.22638 -6.99885e-05 0)
(1.21932 7.58276e-05 0)
(1.21523 -8.13629e-05 0)
(1.20703 0.000712822 0)
(0.93475 -0.0562585 0)
(0.688714 -0.122603 0)
(1.3738 8.89963e-07 0)
(1.33915 -8.25609e-06 0)
(1.27703 7.59264e-06 0)
(1.23586 3.68243e-05 0)
(1.22637 -6.15735e-05 0)
(1.21935 6.61476e-05 0)
(1.21517 -5.01188e-05 0)
(1.20719 0.000665262 0)
(0.926535 -0.0517603 0)
(0.664098 -0.117075 0)
(1.3738 7.73319e-07 0)
(1.33915 -7.13776e-06 0)
(1.27703 6.3729e-06 0)
(1.23586 3.23976e-05 0)
(1.22636 -5.41765e-05 0)
(1.21938 5.90718e-05 0)
(1.21508 -4.19384e-05 0)
(1.20747 0.00073786 0)
(0.919014 -0.0468981 0)
(0.637737 -0.109899 0)
(1.3738 6.5508e-07 0)
(1.33915 -6.01886e-06 0)
(1.27704 5.23604e-06 0)
(1.23586 2.76991e-05 0)
(1.22636 -4.5489e-05 0)
(1.21943 4.79871e-05 0)
(1.21494 -2.2712e-05 0)
(1.20785 0.000742606 0)
(0.912219 -0.0414489 0)
(0.610107 -0.101584 0)
(1.3738 5.36041e-07 0)
(1.33915 -4.90484e-06 0)
(1.27704 4.17258e-06 0)
(1.23586 2.2909e-05 0)
(1.22634 -3.80846e-05 0)
(1.21948 4.35228e-05 0)
(1.21476 -2.50149e-05 0)
(1.20827 0.000733318 0)
(0.906322 -0.0353236 0)
(0.581707 -0.0898347 0)
(1.3738 4.16738e-07 0)
(1.33915 -3.79958e-06 0)
(1.27704 3.16916e-06 0)
(1.23586 1.79313e-05 0)
(1.22633 -2.94795e-05 0)
(1.21953 2.99703e-05 0)
(1.21455 -1.87131e-06 0)
(1.20865 0.000671163 0)
(0.90104 -0.0287517 0)
(0.550956 -0.0769138 0)
(1.3738 2.97424e-07 0)
(1.33915 -2.7017e-06 0)
(1.27704 2.21816e-06 0)
(1.23586 1.28723e-05 0)
(1.22632 -2.15078e-05 0)
(1.21958 2.52147e-05 0)
(1.21436 -1.81669e-05 0)
(1.20898 0.00054275 0)
(0.89686 -0.0213381 0)
(0.51951 -0.058431 0)
(1.3738 1.77667e-07 0)
(1.33915 -1.60048e-06 0)
(1.27704 1.27897e-06 0)
(1.23587 7.72926e-06 0)
(1.22632 -1.29191e-05 0)
(1.21961 1.45675e-05 0)
(1.21421 1.1494e-05 0)
(1.20923 0.000363538 0)
(0.891169 -0.0139634 0)
(0.486583 -0.0390373 0)
(1.3738 5.75584e-08 0)
(1.33915 -5.11272e-07 0)
(1.27704 3.67577e-07 0)
(1.23587 2.54e-06 0)
(1.22632 -4.1893e-06 0)
(1.21963 5.45584e-06 0)
(1.21415 -6.3363e-06 0)
(1.20943 0.000188229 0)
(0.88636 -0.00490545 0)
(0.4626 -0.0136607 0)
(0.827779 -0.185871 0)
(0.839088 -0.189202 0)
(0.844895 -0.19473 0)
(0.854766 -0.199844 0)
(0.864866 -0.20651 0)
(0.879483 -0.212039 0)
(0.896379 -0.218673 0)
(0.919423 -0.224198 0)
(0.947595 -0.227276 0)
(0.982854 -0.227109 0)
(0.818297 -0.189501 0)
(0.829726 -0.192541 0)
(0.835738 -0.198117 0)
(0.845863 -0.203447 0)
(0.856419 -0.210576 0)
(0.871863 -0.216415 0)
(0.889689 -0.223482 0)
(0.913982 -0.228943 0)
(0.943805 -0.231835 0)
(0.982336 -0.231609 0)
(0.808242 -0.192171 0)
(0.818242 -0.195004 0)
(0.82431 -0.200775 0)
(0.834802 -0.206588 0)
(0.845951 -0.214342 0)
(0.862342 -0.220665 0)
(0.881379 -0.228351 0)
(0.907678 -0.234311 0)
(0.939874 -0.237364 0)
(0.981335 -0.236574 0)
(0.797791 -0.193042 0)
(0.805818 -0.197317 0)
(0.811566 -0.203762 0)
(0.822389 -0.209981 0)
(0.83419 -0.218267 0)
(0.85155 -0.225204 0)
(0.871985 -0.233724 0)
(0.900395 -0.240071 0)
(0.935078 -0.243255 0)
(0.980065 -0.242119 0)
(0.788477 -0.193105 0)
(0.795113 -0.199168 0)
(0.800006 -0.206656 0)
(0.810692 -0.213713 0)
(0.822817 -0.222733 0)
(0.840886 -0.230409 0)
(0.862548 -0.23978 0)
(0.892924 -0.246537 0)
(0.930121 -0.249885 0)
(0.978473 -0.247988 0)
(0.77959 -0.193401 0)
(0.786421 -0.20082 0)
(0.790363 -0.209288 0)
(0.800561 -0.217244 0)
(0.812353 -0.227058 0)
(0.830771 -0.235686 0)
(0.853337 -0.246152 0)
(0.885447 -0.253314 0)
(0.924592 -0.256682 0)
(0.97687 -0.254317 0)
(0.768554 -0.192621 0)
(0.776215 -0.200782 0)
(0.779821 -0.210403 0)
(0.790286 -0.219764 0)
(0.801889 -0.231021 0)
(0.82079 -0.24094 0)
(0.844066 -0.25268 0)
(0.877715 -0.260238 0)
(0.918437 -0.263269 0)
(0.974908 -0.26082 0)
(0.754576 -0.192245 0)
(0.763406 -0.201076 0)
(0.76729 -0.211838 0)
(0.778757 -0.222289 0)
(0.790405 -0.234837 0)
(0.809998 -0.245901 0)
(0.833922 -0.258931 0)
(0.868601 -0.26665 0)
(0.912693 -0.271035 0)
(0.973345 -0.268023 0)
(0.737671 -0.191453 0)
(0.747406 -0.200777 0)
(0.751657 -0.212648 0)
(0.764415 -0.224093 0)
(0.776495 -0.23809 0)
(0.797236 -0.250222 0)
(0.82179 -0.264376 0)
(0.858431 -0.273514 0)
(0.905438 -0.279165 0)
(0.970332 -0.27497 0)
(0.718256 -0.189911 0)
(0.728361 -0.199903 0)
(0.732791 -0.213184 0)
(0.74675 -0.225534 0)
(0.759432 -0.240763 0)
(0.781674 -0.253675 0)
(0.807488 -0.269617 0)
(0.846211 -0.280177 0)
(0.896245 -0.286969 0)
(0.96751 -0.282706 0)
(0.697046 -0.187572 0)
(0.706932 -0.197962 0)
(0.711103 -0.212568 0)
(0.726178 -0.226104 0)
(0.739661 -0.243247 0)
(0.763796 -0.257776 0)
(0.7914 -0.275475 0)
(0.831995 -0.286921 0)
(0.88584 -0.295549 0)
(0.963985 -0.291222 0)
(0.674385 -0.184388 0)
(0.684143 -0.195914 0)
(0.687582 -0.212295 0)
(0.703808 -0.22729 0)
(0.718081 -0.246258 0)
(0.74371 -0.261784 0)
(0.77298 -0.280495 0)
(0.815942 -0.293558 0)
(0.874489 -0.304986 0)
(0.96087 -0.30116 0)
(0.649131 -0.178049 0)
(0.66025 -0.192601 0)
(0.662958 -0.211594 0)
(0.680282 -0.227969 0)
(0.695332 -0.248559 0)
(0.722559 -0.265947 0)
(0.754224 -0.286841 0)
(0.799919 -0.302165 0)
(0.863142 -0.316523 0)
(0.95754 -0.312575 0)
(0.619197 -0.169061 0)
(0.634408 -0.186449 0)
(0.637407 -0.209084 0)
(0.656572 -0.228479 0)
(0.672952 -0.251744 0)
(0.701698 -0.271428 0)
(0.735141 -0.293833 0)
(0.782393 -0.310899 0)
(0.849318 -0.328379 0)
(0.952546 -0.325059 0)
(0.583766 -0.163493 0)
(0.605184 -0.182929 0)
(0.610208 -0.209235 0)
(0.632154 -0.231336 0)
(0.650093 -0.256388 0)
(0.679587 -0.277446 0)
(0.714227 -0.300771 0)
(0.762595 -0.319807 0)
(0.832974 -0.341089 0)
(0.944719 -0.338562 0)
(0.544476 -0.157804 0)
(0.572086 -0.177738 0)
(0.579204 -0.206256 0)
(0.603536 -0.230335 0)
(0.623394 -0.257175 0)
(0.653635 -0.28041 0)
(0.689547 -0.305065 0)
(0.738841 -0.326763 0)
(0.811622 -0.352463 0)
(0.930561 -0.352934 0)
(0.499814 -0.157189 0)
(0.533175 -0.177039 0)
(0.542492 -0.206734 0)
(0.569297 -0.231799 0)
(0.593409 -0.259253 0)
(0.626134 -0.283896 0)
(0.664506 -0.309972 0)
(0.714938 -0.334382 0)
(0.788302 -0.363511 0)
(0.910149 -0.369852 0)
(0.449499 -0.148011 0)
(0.489966 -0.162783 0)
(0.506532 -0.194725 0)
(0.538026 -0.226903 0)
(0.567984 -0.260984 0)
(0.604608 -0.290681 0)
(0.646726 -0.319503 0)
(0.700079 -0.346891 0)
(0.774713 -0.379953 0)
(0.901173 -0.394938 0)
(0.398155 -0.153239 0)
(0.45057 -0.17495 0)
(0.479118 -0.215508 0)
(0.519345 -0.250222 0)
(0.556708 -0.283 0)
(0.59595 -0.310897 0)
(0.637923 -0.337456 0)
(0.688985 -0.3637 0)
(0.759256 -0.396984 0)
(0.880338 -0.423312 0)
(0.371088 -0.126032 0)
(0.440052 -0.158924 0)
(0.479879 -0.211026 0)
(0.52336 -0.250021 0)
(0.562079 -0.283066 0)
(0.600483 -0.310797 0)
(0.640811 -0.337087 0)
(0.689727 -0.362867 0)
(0.75641 -0.395661 0)
(0.878878 -0.428535 0)
(1.07367 -0.206393 0)
(1.21132 -0.141746 0)
(1.33665 -0.0615111 0)
(1.39956 0.0676734 0)
(1.472 0.251054 0)
(1.44033 0.386462 0)
(1.37305 0.335229 0)
(1.14488 0.183469 0)
(1.1318 0.11836 0)
(1.12361 0.0556335 0)
(1.07806 -0.20888 0)
(1.22048 -0.136381 0)
(1.34576 -0.0516981 0)
(1.41948 0.0672462 0)
(1.48617 0.253651 0)
(1.44883 0.3961 0)
(1.3644 0.329388 0)
(1.13209 0.181847 0)
(1.12686 0.120334 0)
(1.12101 0.0586482 0)
(1.08313 -0.211078 0)
(1.22832 -0.132683 0)
(1.35779 -0.0374978 0)
(1.43921 0.0694416 0)
(1.49259 0.253896 0)
(1.46228 0.403314 0)
(1.35109 0.320665 0)
(1.12178 0.179803 0)
(1.12268 0.122254 0)
(1.11883 0.0614401 0)
(1.08859 -0.213708 0)
(1.23814 -0.12727 0)
(1.36646 -0.0241575 0)
(1.45744 0.0769059 0)
(1.49593 0.255656 0)
(1.47684 0.406582 0)
(1.33858 0.312514 0)
(1.11323 0.178473 0)
(1.1176 0.124229 0)
(1.11582 0.0640468 0)
(1.09436 -0.21577 0)
(1.2478 -0.123027 0)
(1.37851 -0.00739929 0)
(1.47252 0.0866875 0)
(1.50603 0.253046 0)
(1.48352 0.405518 0)
(1.3276 0.303792 0)
(1.10498 0.17802 0)
(1.11312 0.125873 0)
(1.11302 0.0661006 0)
(1.10051 -0.21789 0)
(1.25928 -0.117384 0)
(1.38878 0.00804939 0)
(1.48656 0.102695 0)
(1.52056 0.256389 0)
(1.48459 0.401161 0)
(1.31057 0.293897 0)
(1.09683 0.17753 0)
(1.10852 0.127359 0)
(1.1102 0.0676934 0)
(1.10717 -0.219363 0)
(1.27138 -0.112283 0)
(1.40194 0.0258894 0)
(1.49682 0.117626 0)
(1.53712 0.255405 0)
(1.48586 0.39204 0)
(1.28988 0.285284 0)
(1.08851 0.176929 0)
(1.10288 0.128367 0)
(1.10562 0.0694591 0)
(1.11444 -0.220687 0)
(1.28562 -0.105523 0)
(1.41502 0.0427984 0)
(1.5103 0.141762 0)
(1.55117 0.259355 0)
(1.48885 0.379342 0)
(1.26959 0.275685 0)
(1.08021 0.175722 0)
(1.09697 0.129563 0)
(1.10167 0.071493 0)
(1.12259 -0.221305 0)
(1.3013 -0.0985019 0)
(1.42972 0.0611047 0)
(1.51725 0.158106 0)
(1.55995 0.260494 0)
(1.49459 0.362498 0)
(1.25068 0.265261 0)