/*--------------------------------*- C++ -*----------------------------------*\
  =========                 |
  \\      /  F ield         | OpenFOAM: The Open Source CFD Toolbox
   \\    /   O peration     | Website:  https://openfoam.org
    \\  /    A nd           | Version:  8
     \\/     M anipulation  |
\*---------------------------------------------------------------------------*/
FoamFile
{
    version     2.0;
    format      ascii;
    class       volScalarField;
    location    "0.9";
    object      p;
}
// * * * * * * * * * * * * * * * * * * * * * * * * * * * * * * * * * * * * * //

dimensions      [1 -1 -2 0 0 0 0];

internalField   nonuniform List<scalar> 
325
(
1.24204
1.21224
0.985392
1.00283
1.22727
1.20444
0.994594
1.00045
1.20062
1.20179
1.01091
1.00355
1.17593
1.20053
1.01058
0.991709
1.14321
1.204
1.01715
0.979344
1.11314
1.08535
1.01213
0.96849
1.08077
1.55836
1.00799
0.953612
1.04263
2.0797
1.03631
0.952528
1.00971
2.42534
1.15664
0.93832
0.986068
2.72026
1.34719
0.924187
0.977142
3.00825
1.50793
0.941789
0.989701
3.26342
1.69822
1.00721
1.00119
3.53452
1.90678
1.10615
1.00332
3.75288
2.09468
1.23878
1.02661
3.97536
2.293
1.38769
1.08152
4.1656
2.49237
1.53093
1.15079
4.34013
2.68818
1.69243
1.24798
4.50334
2.87805
1.8674
1.35264
4.64397
3.04909
2.04959
1.46587
4.79537
3.21637
2.22196
1.59273
4.89535
3.36878
2.39515
1.71387
4.99443
3.52095
2.56246
1.83979
4.97693
3.68365
2.73265
1.96698
4.81846
3.85687
2.91082
2.09156
4.67689
4.04226
3.08852
2.21268
4.34264
4.21763
3.24603
2.32605
7.11969
6.83706
6.45053
5.76713
6.98222
6.65882
6.23529
5.40783
6.99523
6.6992
6.2722
5.41244
6.83981
6.60152
6.13998
5.39821
6.88757
6.64419
6.11801
5.52091
6.82682
6.61422
6.06503
5.61386
6.82876
6.58192
6.09287
5.71978
6.78317
6.56029
6.12217
5.77032
6.73964
6.6219
6.22867
5.87596
5.89402
6.62395
6.34241
5.92041
3.61564
6.47964
6.36652
5.97021
1.50489
5.38807
6.3461
6.01768
1.07275
3.24998
6.09088
6.00076
1.0487
1.46692
5.16463
6.02138
1.03658
1.06056
3.4368
5.79308
1.02741
1.03469
1.72179
5.24947
1.0211
1.02474
1.09823
4.12738
1.01684
1.01909
1.029
2.81437
1.01318
1.01497
1.01958
1.63829
1.01203
1.01458
1.11607
3.68265
4.30281
3.46199
2.50604
3.01942
4.26051
3.66863
2.78704
2.49925
4.20922
3.815
3.0683
1.91464
4.05766
3.97641
3.36276
1.38398
3.72077
4.14718
3.62525
1.08426
3.27249
4.24524
3.79214
0.993402
2.78291
4.19602
3.84981
0.99284
2.2825
4.0879
3.87261
0.994225
1.83416
3.9042
3.92564
0.99594
1.46589
3.66272
4.00207
0.997182
1.20599
3.29647
4.08266
0.998136
1.05256
2.79852
4.14623
0.998904
0.998822
2.22977
4.2138
0.999576
0.991494
1.82356
4.34278
0.999949
0.993189
1.5532
4.62638
1.00009
0.995344
1.37879
4.98427
1.00012
0.996847
1.27162
5.25716
1.00014
0.998019
1.20083
5.71848
1.00015
0.998833
1.1445
5.81988
1.00015
0.999309
1.15425
6.22233
1.00737
1.00877
1.0103
1.01718
1.00555
1.00693
1.00761
1.00343
1.00443
1.00499
1.00205
1.00271
1.00313
1.00122
1.0016
1.00187
1.00073
1.00091
1.00111
1.00043
1.00053
1.00073
1.00025
1.00031
1.00046
1.00015
1.00018
1.00028
1.0001
1.00011
1.00017
1.00006
1.00008
1.00011
1.00005
1.00005
1.00008
1.00004
1.00004
1.00006
1.00003
1.00004
1.00005
1.00003
1.00004
1.00005
1.00003
1.00004
1.00005
1.00003
1.00004
1.00005
1.00003
1.00004
1.00005
1.00004
1.00004
1.00005
1.00004
1.00004
1.00005
)
;

boundaryField
{
    inlet
    {
        type            fixedValue;
        value           nonuniform List<scalar> 0();
    }
    outlet
    {
        type            zeroGradient;
    }
    triangle
    {
        type            zeroGradient;
    }
    top
    {
        type            symmetryPlane;
    }
    bottom
    {
        type            symmetryPlane;
    }
    defaultFaces
    {
        type            empty;
    }
    procBoundary6to2
    {
        type            processor;
        value           nonuniform List<scalar> 5(1.24969 1.20935 0.973386 1.00107 1.00107);
    }
    procBoundary6to5
    {
        type            processor;
        value           nonuniform List<scalar> 
43
(
7.30364
7.18589
7.24182
7.07032
7.07265
7.03842
6.99721
6.56436
4.71724
1.91295
1.10963
1.0682
1.05559
1.04317
1.03245
1.02391
1.01864
1.01484
1.0115
1.01033
1.01033
1.01033
1.00622
1.00465
1.00465
1.00286
1.00172
1.00102
1.00059
1.00034
1.00021
1.00013
1.00008
1.00005
1.00004
1.00003
1.00002
1.00003
1.00003
1.00003
1.00003
1.00003
1.00003
)
;
    }
    procBoundary6to7
    {
        type            processor;
        value           nonuniform List<scalar> 
47
(
1.64332
1.61549
1.5925
1.57444
1.55557
1.5366
1.5012
1.44584
1.39765
1.33654
1.27566
1.21399
1.14823
1.11808
1.1012
1.09942
1.1032
1.12675
1.15551
1.19735
1.25549
1.35189
1.46401
1.56501
1.66742
1.75946
1.85478
1.99064
2.17352
2.39731
2.63856
2.75104
2.86647
2.99451
3.1805
3.47936
4.04074
4.80885
5.60242
6.31188
7.0145
7.58511
7.97784
8.14654
8.19263
8.08419
8.00281
)
;
    }
}


// ************************************************************************* //
