/*--------------------------------*- C++ -*----------------------------------*\
  =========                 |
  \\      /  F ield         | OpenFOAM: The Open Source CFD Toolbox
   \\    /   O peration     | Website:  https://openfoam.org
    \\  /    A nd           | Version:  7
     \\/     M anipulation  |
\*---------------------------------------------------------------------------*/
FoamFile
{
    version     2.0;
    format      ascii;
    class       volVectorField;
    location    "0.9";
    object      U;
}
// * * * * * * * * * * * * * * * * * * * * * * * * * * * * * * * * * * * * * //

dimensions      [0 1 -1 0 0 0 0];

internalField   nonuniform List<vector> 
325
(
(0.647843 -0.0594902 0)
(-0.145642 0.0368685 0)
(0.0240749 0.00834749 0)
(0.445703 -0.0182661 0)
(1.2119 -0.118171 0)
(-0.0420215 0.0367344 0)
(0.291382 -0.0241378 0)
(0.906018 -0.0975531 0)
(1.71583 -0.183789 0)
(0.132511 0.0440152 0)
(0.687913 -0.0949679 0)
(1.40042 -0.166867 0)
(2.07264 -0.250436 0)
(0.486841 -0.0931273 0)
(1.23765 -0.166846 0)
(1.85881 -0.265848 0)
(2.28911 -0.31236 0)
(1.14119 -0.0683557 0)
(1.82179 -0.200138 0)
(2.22311 -0.295591 0)
(2.40613 -0.345339 0)
(1.76588 -0.54585 0)
(2.2677 -0.243698 0)
(2.43364 -0.334733 0)
(2.45315 -0.371552 0)
(2.0772 -0.163844 0)
(2.52939 -0.257266 0)
(2.52151 -0.344853 0)
(2.46689 -0.392886 0)
(2.04854 0.050795 0)
(2.57384 -0.245195 0)
(2.52866 -0.350347 0)
(2.47309 -0.400689 0)
(2.01146 0.179073 0)
(2.48949 -0.190585 0)
(2.50764 -0.352543 0)
(2.46535 -0.408604 0)
(1.98327 0.312975 0)
(2.39697 -0.148097 0)
(2.50734 -0.31343 0)
(2.45546 -0.403249 0)
(2.00898 0.38188 0)
(2.35247 -0.0680409 0)
(2.51886 -0.284237 0)
(2.44353 -0.3894 0)
(2.01969 0.489204 0)
(2.32156 0.0485101 0)
(2.53612 -0.21401 0)
(2.43696 -0.392448 0)
(2.04205 0.560017 0)
(2.3299 0.103958 0)
(2.53695 -0.160127 0)
(2.46867 -0.37331 0)
(2.04794 0.624298 0)
(2.32248 0.21518 0)
(2.51566 -0.0611881 0)
(2.5234 -0.354915 0)
(2.0333 0.685613 0)
(2.32558 0.288225 0)
(2.51369 -0.0203254 0)
(2.57767 -0.319272 0)
(2.02584 0.719029 0)
(2.31066 0.369939 0)
(2.49899 0.0765283 0)
(2.58912 -0.267793 0)
(1.99527 0.753985 0)
(2.29665 0.425505 0)
(2.49359 0.129061 0)
(2.58416 -0.198819 0)
(1.98433 0.769224 0)
(2.27305 0.483336 0)
(2.47018 0.199311 0)
(2.58157 -0.149278 0)
(1.94996 0.789915 0)
(2.25122 0.525762 0)
(2.45445 0.233514 0)
(2.56718 -0.0720047 0)
(1.93625 0.797543 0)
(2.21695 0.570516 0)
(2.42473 0.285167 0)
(2.55803 -0.0243513 0)
(1.90614 0.810709 0)
(2.19339 0.598941 0)
(2.4029 0.312766 0)
(2.53717 0.0381103 0)
(1.89955 0.814975 0)
(2.15145 0.634768 0)
(2.37279 0.347291 0)
(2.51281 0.0895765 0)
(1.89619 0.81447 0)
(2.12203 0.662039 0)
(2.34855 0.368589 0)
(2.4842 0.136784 0)
(1.89083 0.824426 0)
(2.08138 0.688482 0)
(2.31531 0.397725 0)
(2.45461 0.181162 0)
(1.94264 0.804642 0)
(2.06348 0.685478 0)
(2.28658 0.414495 0)
(2.42539 0.223518 0)
(1.99649 0.796947 0)
(2.05037 0.691861 0)
(2.2445 0.448244 0)
(2.39657 0.262925 0)
(0.978193 0.53768 0)
(1.03323 0.558185 0)
(1.11886 0.590645 0)
(1.29863 0.636689 0)
(1.01941 0.591155 0)
(1.05937 0.604629 0)
(1.1355 0.615106 0)
(1.30801 0.663219 0)
(1.17193 0.607727 0)
(1.17906 0.606063 0)
(1.22718 0.595208 0)
(1.39181 0.645894 0)
(1.30085 0.753691 0)
(1.2973 0.735043 0)
(1.32128 0.696354 0)
(1.47901 0.731609 0)
(1.4495 0.829249 0)
(1.45898 0.798328 0)
(1.47154 0.736825 0)
(1.60581 0.753605 0)
(1.5331 0.880885 0)
(1.54614 0.871773 0)
(1.56979 0.825088 0)
(1.68031 0.823342 0)
(1.55725 0.904471 0)
(1.60156 0.893224 0)
(1.64347 0.860076 0)
(1.73741 0.843928 0)
(1.57295 0.909648 0)
(1.62372 0.899308 0)
(1.67781 0.879648 0)
(1.75758 0.862431 0)
(1.61842 0.912659 0)
(1.63657 0.907639 0)
(1.68175 0.893751 0)
(1.75195 0.88004 0)
(1.79167 0.853056 0)
(1.63714 0.908391 0)
(1.67034 0.902994 0)
(1.74176 0.889664 0)
(2.1888 0.690341 0)
(1.64602 0.90747 0)
(1.66479 0.905466 0)
(1.73016 0.890883 0)
(2.91299 0.170456 0)
(1.84818 0.820765 0)
(1.6735 0.896631 0)
(1.72097 0.892199 0)
(2.98092 0.0417012 0)
(2.27977 0.646451 0)
(1.68348 0.899737 0)
(1.71034 0.892474 0)
(2.98473 0.0311738 0)
(2.93611 0.157304 0)
(1.90284 0.801273 0)
(1.71774 0.881846 0)
(2.98809 0.0235554 0)
(2.9889 0.0336021 0)
(2.1959 0.688581 0)
(1.72366 0.893491 0)
(2.99153 0.0164807 0)
(2.9886 0.0231916 0)
(2.87864 0.260332 0)
(1.86984 0.83994 0)
(2.99301 0.0137765 0)
(2.99202 0.0165211 0)
(3.01212 0.0351572 0)
(2.05354 0.747844 0)
(2.99467 0.0105062 0)
(2.99412 0.0114999 0)
(2.99209 0.0202642 0)
(2.35575 0.600065 0)
(2.99569 0.0085943 0)
(2.99516 0.00958757 0)
(2.99397 0.0125309 0)
(2.88408 0.259425 0)
(2.99619 0.00739413 0)
(2.99577 0.00995081 0)
(3.03665 0.0295709 0)
(2.06602 0.816559 0)
(2.01925 0.670818 0)
(2.19219 0.498975 0)
(2.35099 0.31972 0)
(2.16951 0.706219 0)
(2.00063 0.66588 0)
(2.1364 0.549783 0)
(2.29738 0.378211 0)
(2.42058 0.524911 0)
(2.00172 0.663303 0)
(2.08006 0.588023 0)
(2.24571 0.412729 0)
(2.67823 0.350762 0)
(2.00778 0.673659 0)
(2.04119 0.603892 0)
(2.18087 0.436035 0)
(3.02953 0.114037 0)
(2.07707 0.668529 0)
(2.00602 0.592168 0)
(2.12156 0.440139 0)
(3.09614 -0.0116457 0)
(2.24616 0.621781 0)
(1.97431 0.571979 0)
(2.0709 0.471765 0)
(3.02543 -0.00331363 0)
(2.39691 0.550836 0)
(1.96456 0.581726 0)
(2.02975 0.507297 0)
(3.00919 -0.00113781 0)
(2.56707 0.451092 0)
(1.96475 0.605842 0)
(1.99587 0.53949 0)
(3.00556 -0.00244789 0)
(2.77541 0.311834 0)
(1.99735 0.607925 0)
(1.97801 0.561097 0)
(3.00285 -0.00215709 0)
(2.97001 0.153672 0)
(2.06208 0.598044 0)
(1.96748 0.566765 0)
(3.00153 -0.00155032 0)
(3.06604 0.0343701 0)
(2.17576 0.584605 0)
(1.95341 0.54669 0)
(3.00092 -0.00118217 0)
(3.05848 -0.00315473 0)
(2.31427 0.580454 0)
(1.95072 0.541044 0)
(3.00034 -0.00093222 0)
(3.02721 -0.00411315 0)
(2.44047 0.604191 0)
(1.97421 0.529416 0)
(2.99923 -0.000346695 0)
(3.01335 -0.00221616 0)
(2.55443 0.565526 0)
(2.00488 0.504717 0)
(2.99976 -0.000152174 0)
(3.00691 -0.00245808 0)
(2.67713 0.487326 0)
(1.99579 0.411903 0)
(2.99989 -6.41911e-05 0)
(3.00408 -0.00271918 0)
(2.79107 0.393501 0)
(1.92828 0.310662 0)
(2.99989 -5.06452e-05 0)
(3.00182 -0.00210339 0)
(2.87648 0.292407 0)
(1.82608 0.235704 0)
(2.99988 -3.73201e-05 0)
(3.00058 -0.00141466 0)
(2.93854 0.191956 0)
(1.76726 0.148959 0)
(2.99987 -2.24148e-05 0)
(3.00006 -0.000814215 0)
(2.94738 0.10514 0)
(1.67653 0.0726445 0)
(2.99987 -8.14775e-06 0)
(3.00001 -0.000245661 0)
(2.97317 0.0434255 0)
(1.65889 0.0708178 0)
(2.99756 0.00498892 0)
(2.99747 0.00504645 0)
(2.99676 0.00736991 0)
(3.00439 0.00601877 0)
(2.99833 0.00341817 0)
(2.99755 0.00477995 0)
(2.99831 0.0046747 0)
(2.99901 0.00200625 0)
(2.99849 0.00308512 0)
(2.99871 0.00288939 0)
(2.99938 0.00125559 0)
(2.99911 0.00182522 0)
(2.9991 0.00186122 0)
(2.9996 0.000833294 0)
(2.99955 0.000895471 0)
(2.9994 0.0012851 0)
(2.99977 0.000492063 0)
(2.99975 0.000509331 0)
(2.99966 0.000799607 0)
(2.99986 0.000290784 0)
(2.99987 0.000289254 0)
(2.99966 0.000498913 0)
(2.99992 0.000145853 0)
(2.9999 0.000188545 0)
(2.99985 0.000265389 0)
(2.99995 8.7502e-05 0)
(2.99994 0.000102869 0)
(2.99991 0.000153875 0)
(2.99996 4.818e-05 0)
(2.99996 5.68041e-05 0)
(2.99994 8.38698e-05 0)
(2.99997 2.52309e-05 0)
(2.99997 2.95547e-05 0)
(2.99995 4.28904e-05 0)
(2.99998 1.22966e-05 0)
(2.99997 1.43856e-05 0)
(2.99996 1.99582e-05 0)
(2.99998 4.3707e-06 0)
(2.99998 5.22049e-06 0)
(2.99996 6.60841e-06 0)
(2.99998 -2.58352e-07 0)
(2.99998 -4.11709e-07 0)
(2.99996 -1.25714e-06 0)
(2.99998 -1.90377e-06 0)
(2.99997 -3.08299e-06 0)
(2.99996 -3.74879e-06 0)
(2.99998 -2.20934e-06 0)
(2.99997 -5.3835e-06 0)
(2.99997 -2.44392e-06 0)
(2.99998 -2.28927e-06 0)
(2.99997 -7.09911e-06 0)
(2.99997 -1.11562e-06 0)
(2.99998 -2.03904e-06 0)
(2.99997 -6.31269e-06 0)
(2.99996 -1.63231e-06 0)
(2.99997 -1.20282e-06 0)
(2.99997 -4.3432e-06 0)
(2.99996 -1.78032e-06 0)
(2.99997 -2.25517e-07 0)
(2.99997 -1.70742e-06 0)
(2.99996 -7.32998e-07 0)
)
;

boundaryField
{
    inlet
    {
        type            fixedValue;
        value           nonuniform 0();
    }
    outlet
    {
        type            inletOutlet;
        inletValue      nonuniform 0();
        value           nonuniform 0();
    }
    triangle
    {
        type            slip;
    }
    top
    {
        type            symmetryPlane;
    }
    bottom
    {
        type            symmetryPlane;
    }
    defaultFaces
    {
        type            empty;
    }
    procBoundary6to2
    {
        type            processor;
        value           nonuniform List<vector> 5((0.168361 -0.0270456 0) (-0.219741 0.0195417 0) (-0.163598 0.0326864 0) (0.0490147 0.0238457 0) (0.0490147 0.0238457 0));
    }
    procBoundary6to5
    {
        type            processor;
        value           nonuniform List<vector> 
43
(
(0.947175 0.53274 0)
(0.986406 0.585534 0)
(1.16352 0.610214 0)
(1.31126 0.772403 0)
(1.45489 0.841491 0)
(1.52178 0.890453 0)
(1.54235 0.90166 0)
(1.56459 0.918225 0)
(1.94716 0.796973 0)
(2.78569 0.311084 0)
(2.9743 0.0586609 0)
(2.97784 0.0457257 0)
(2.98348 0.0327808 0)
(2.98704 0.0257761 0)
(2.98968 0.020195 0)
(2.99208 0.0158323 0)
(2.99383 0.0121582 0)
(2.99537 0.00898834 0)
(2.99632 0.00723275 0)
(2.9966 0.00679725 0)
(2.9966 0.00679725 0)
(2.9966 0.00679725 0)
(2.9981 0.00369783 0)
(2.99845 0.00315792 0)
(2.99845 0.00315792 0)
(2.99906 0.00190908 0)
(2.99944 0.00111786 0)
(2.9997 0.000593103 0)
(2.99983 0.00034599 0)
(2.9999 0.000204808 0)
(2.99993 0.0001299 0)
(2.99996 7.02826e-05 0)
(2.99997 4.03146e-05 0)
(2.99998 2.08907e-05 0)
(2.99998 9.96595e-06 0)
(2.99998 3.45877e-06 0)
(2.99998 -1.94644e-07 0)
(2.99998 -1.80141e-06 0)
(2.99998 -3.25068e-06 0)
(2.99998 -4.36881e-06 0)
(2.99998 -4.26656e-06 0)
(2.99998 -2.94079e-06 0)
(2.99998 -1.32161e-06 0)
)
;
    }
    procBoundary6to7
    {
        type            processor;
        value           nonuniform List<vector> 
47
(
(1.08112 -0.0503316 0)
(1.59834 -0.11266 0)
(1.99383 -0.100875 0)
(2.19334 -0.138365 0)
(2.24427 -0.15513 0)
(2.23953 -0.168914 0)
(2.23215 -0.182433 0)
(2.2219 -0.209389 0)
(2.24165 -0.234096 0)
(2.26291 -0.259007 0)
(2.29015 -0.28209 0)
(2.32709 -0.305108 0)
(2.35107 -0.334405 0)
(2.39226 -0.357635 0)
(2.43262 -0.354088 0)
(2.43839 -0.365233 0)
(2.47471 -0.350948 0)
(2.51534 -0.339773 0)
(2.54381 -0.314608 0)
(2.55704 -0.285155 0)
(2.55926 -0.25513 0)
(2.55397 -0.204957 0)
(2.55918 -0.173408 0)
(2.55687 -0.116503 0)
(2.55467 -0.0787733 0)
(2.54353 -0.035804 0)
(2.52868 0.00216243 0)
(2.5036 0.0480291 0)
(2.44875 0.125825 0)
(2.39368 0.180492 0)
(2.3444 0.229972 0)
(2.27321 0.2887 0)
(2.23546 0.359318 0)
(2.17782 0.419565 0)
(2.11975 0.444079 0)
(2.05559 0.418159 0)
(1.9802 0.337894 0)
(1.89368 0.248923 0)
(1.75379 0.163951 0)
(1.59037 0.111795 0)
(1.48906 0.0892813 0)
(1.43629 0.082719 0)
(1.4293 0.0751065 0)
(1.46962 0.0489149 0)
(1.54078 0.0530311 0)
(1.59262 0.0285353 0)
(1.62422 0.0111373 0)
)
;
    }
}


// ************************************************************************* //
