/*--------------------------------*- C++ -*----------------------------------*\
  =========                 |
  \\      /  F ield         | OpenFOAM: The Open Source CFD Toolbox
   \\    /   O peration     | Website:  https://openfoam.org
    \\  /    A nd           | Version:  7
     \\/     M anipulation  |
\*---------------------------------------------------------------------------*/
FoamFile
{
    version     2.0;
    format      ascii;
    class       volScalarField;
    location    "0.3";
    object      T;
}
// * * * * * * * * * * * * * * * * * * * * * * * * * * * * * * * * * * * * * //

dimensions      [0 0 0 1 0 0 0];

internalField   nonuniform List<scalar> 
3225
(
1.14162
1.14008
1.13859
1.1372
1.1357
1.13401
1.13232
1.13067
1.12892
1.12707
1.12524
1.12339
1.15761
1.15674
1.15632
1.15568
1.15455
1.15336
1.15221
1.15125
1.15042
1.14926
1.14793
1.14661
1.14541
1.14431
1.14301
1.14155
1.14009
1.13871
1.13729
1.13573
1.13411
1.13251
1.13085
1.12911
1.12733
1.12551
1.12357
1.15746
1.15689
1.15656
1.1556
1.15442
1.15324
1.1522
1.15143
1.15048
1.14922
1.1479
1.14664
1.14554
1.14439
1.14303
1.14158
1.14017
1.1388
1.13737
1.13586
1.1343
1.13269
1.13103
1.12934
1.1276
1.12577
1.12389
1.15746
1.15702
1.1565
1.15547
1.15433
1.15319
1.1522
1.1514
1.15042
1.14921
1.14792
1.1467
1.14558
1.14441
1.14309
1.14169
1.14028
1.1389
1.1375
1.13603
1.13448
1.13287
1.13124
1.12958
1.12787
1.1261
1.12427
1.15758
1.15713
1.15627
1.15522
1.15413
1.15309
1.15222
1.15137
1.15032
1.14913
1.14791
1.14675
1.14563
1.14443
1.14313
1.14177
1.14041
1.13904
1.13763
1.13615
1.13462
1.13307
1.13148
1.12983
1.12815
1.12642
1.12463
1.15771
1.15703
1.15595
1.15484
1.15381
1.15301
1.15234
1.15135
1.15013
1.14891
1.14779
1.14682
1.14575
1.14444
1.14307
1.14176
1.14054
1.13923
1.13775
1.13621
1.13473
1.13328
1.13173
1.13009
1.12842
1.12672
1.12496
1.15748
1.1567
1.15562
1.15456
1.15359
1.15292
1.1523
1.15122
1.14996
1.14875
1.14771
1.14682
1.14574
1.14442
1.14307
1.14181
1.14063
1.13932
1.13784
1.13633
1.13488
1.13343
1.13191
1.13034
1.12871
1.12702
1.12529
1.15683
1.15624
1.15544
1.15447
1.15355
1.15276
1.15197
1.15102
1.14992
1.14877
1.1477
1.14668
1.14558
1.14438
1.14314
1.14188
1.14059
1.13928
1.13793
1.13651
1.13501
1.1335
1.13203
1.13056
1.12897
1.12729
1.12558
1.15628
1.1557
1.15536
1.15457
1.15355
1.15252
1.15154
1.15071
1.14986
1.14882
1.14766
1.14648
1.14538
1.14435
1.14321
1.1419
1.14054
1.13925
1.138
1.13664
1.13514
1.13362
1.13214
1.13068
1.12916
1.12753
1.1258
1.15607
1.15538
1.15515
1.15452
1.15349
1.15237
1.1513
1.15043
1.14973
1.1488
1.14762
1.14639
1.14525
1.14427
1.14322
1.14192
1.14054
1.13922
1.13798
1.13669
1.13526
1.13375
1.13224
1.13076
1.12927
1.12769
1.12602
1.15614
1.15539
1.1549
1.15426
1.15338
1.15236
1.15129
1.15033
1.14958
1.14871
1.14761
1.1464
1.14522
1.14418
1.14314
1.14192
1.14057
1.13922
1.13793
1.13668
1.13533
1.13386
1.13233
1.13082
1.12932
1.12779
1.1262
1.15643
1.15582
1.15489
1.15393
1.15301
1.15219
1.15137
1.15049
1.14956
1.14857
1.14752
1.14642
1.14532
1.14422
1.14309
1.14188
1.1406
1.13929
1.13799
1.1367
1.13536
1.13392
1.13242
1.13091
1.12941
1.1279
1.12633
1.15673
1.15621
1.15509
1.15376
1.15273
1.15201
1.15154
1.15068
1.14955
1.1484
1.14732
1.14639
1.14547
1.14434
1.14306
1.14179
1.14059
1.1394
1.13813
1.13676
1.13537
1.13396
1.13252
1.13103
1.12953
1.12802
1.12645
1.15728
1.15626
1.15467
1.15339
1.15253
1.15219
1.15169
1.15064
1.14945
1.14828
1.14725
1.14647
1.14557
1.14438
1.1431
1.14185
1.14069
1.13953
1.13822
1.13683
1.13547
1.13412
1.13269
1.13119
1.12968
1.12817
1.12662
1.15733
1.15552
1.1538
1.15299
1.153
1.15275
1.15166
1.15037
1.14923
1.14824
1.14752
1.14672
1.14552
1.14426
1.14307
1.14201
1.14093
1.13962
1.13824
1.13691
1.13567
1.13436
1.13288
1.13135
1.12986
1.12838
1.12685
1.15369
1.15341
1.15304
1.15359
1.15408
1.15306
1.15142
1.14992
1.14895
1.14843
1.14789
1.14675
1.14545
1.14418
1.1431
1.14221
1.14106
1.1397
1.13833
1.13709
1.13591
1.13454
1.13304
1.13155
1.13012
1.12867
1.12711
1.13578
1.14759
1.15385
1.155
1.15425
1.15244
1.15072
1.14979
1.14936
1.149
1.1479
1.14659
1.14534
1.14426
1.14344
1.1424
1.14105
1.1397
1.13848
1.1374
1.13613
1.13465
1.13318
1.1318
1.13045
1.12896
1.12737
1.08165
1.12432
1.14943
1.154
1.15298
1.15098
1.15015
1.15025
1.15031
1.14925
1.14772
1.14626
1.14518
1.14451
1.14374
1.14246
1.14107
1.13976
1.13868
1.13764
1.13626
1.13479
1.13338
1.13209
1.13073
1.1292
1.12765
1.01937
1.06493
1.11969
1.14376
1.14818
1.15055
1.15158
1.1515
1.15036
1.14878
1.14736
1.14632
1.14564
1.14497
1.14375
1.14239
1.14111
1.14
1.13903
1.13775
1.13633
1.13496
1.13369
1.1324
1.13094
1.12942
1.12795
1.00117
1.01191
1.05114
1.103
1.13201
1.14833
1.1519
1.15151
1.14956
1.14793
1.14704
1.14682
1.14637
1.14513
1.14364
1.14229
1.14117
1.14037
1.13928
1.13786
1.13646
1.13519
1.13401
1.13263
1.13114
1.12969
1.12829
1.00001
1.00051
1.0067
1.03527
1.0854
1.13075
1.14704
1.14849
1.14848
1.14821
1.14818
1.14753
1.1463
1.14488
1.14362
1.14251
1.14168
1.14068
1.13933
1.13798
1.13673
1.13558
1.13428
1.13282
1.13139
1.13004
1.12863
1
1
1.0002
1.00356
1.02392
1.07406
1.12026
1.1373
1.14653
1.14928
1.1489
1.14757
1.14581
1.14455
1.14367
1.14311
1.14215
1.14079
1.13939
1.13814
1.1371
1.13594
1.13449
1.13304
1.1317
1.13041
1.12891
1
1
1
1.00008
1.00182
1.01555
1.05607
1.10288
1.13662
1.14699
1.1475
1.1465
1.14559
1.14503
1.14456
1.14347
1.14215
1.14082
1.13959
1.13855
1.13748
1.13611
1.13469
1.13335
1.1321
1.13071
1.12916
1
1
1
1
1.00003
1.0008
1.00898
1.04075
1.09469
1.1317
1.14045
1.14454
1.14632
1.14612
1.14496
1.14338
1.14197
1.14085
1.14002
1.13906
1.13767
1.13624
1.13493
1.13376
1.13248
1.13097
1.12946
1
1
1
1
1
1.00001
1.00035
1.00515
1.02995
1.07866
1.1163
1.13908
1.14534
1.14574
1.14441
1.14309
1.14208
1.14147
1.14061
1.13922
1.13774
1.13642
1.13532
1.13424
1.13278
1.13124
1.12984
1
1
1
1
1
1
1
1.00015
1.00265
1.01916
1.06047
1.11042
1.13767
1.1415
1.14276
1.14319
1.14311
1.14217
1.14073
1.13917
1.13785
1.13678
1.13588
1.13459
1.13305
1.13157
1.13027
1
1
1
1
1
1
1
1
1.00005
1.00127
1.01198
1.04871
1.09918
1.12528
1.13899
1.14352
1.14345
1.14205
1.14046
1.1392
1.13836
1.13758
1.13626
1.13476
1.13335
1.13202
1.13074
1
1
1
1
1
1
1
1
1
1.00002
1.00061
1.00709
1.03488
1.0802
1.12026
1.13994
1.14124
1.14097
1.14013
1.13981
1.13946
1.1381
1.13637
1.13486
1.13365
1.13267
1.13125
1
1
1
1
1
1
1
1
1
1
1.00001
1.00024
1.00377
1.02336
1.06861
1.11474
1.13101
1.1381
1.14067
1.14078
1.13975
1.13806
1.13638
1.135
1.13411
1.13334
1.13185
1
1
1
1
1
1
1
1
1
1
1
1
1.0001
1.002
1.01563
1.0547
1.09725
1.12559
1.13949
1.13974
1.1391
1.13795
1.13702
1.13594
1.13474
1.13336
1.13207
1
1
1
1
1
1
1
1
1
1
1
1
1
1.00004
1.00093
1.00924
1.0391
1.08572
1.12435
1.13467
1.13607
1.13701
1.13828
1.13736
1.13547
1.13336
1.13192
1
1
1
1
1
1
1
1
1
1
1
1
1
1
1.00001
1.0004
1.00533
1.02849
1.07466
1.11211
1.12765
1.13571
1.13853
1.13789
1.13601
1.13364
1.13221
1
1
1
1
1
1
1
1
1
1
1
1
1
1
1
1
1.00018
1.00284
1.01898
1.05736
1.10001
1.12776
1.13401
1.13543
1.13551
1.13487
1.13361
1
1
1
1
1
1
1
1
1
1
1
1
1
1
1
1
1
1.00006
1.00136
1.01168
1.04453
1.09135
1.12203
1.12872
1.13255
1.13553
1.13522
1
1
1
1
1
1
1
1
1
1
1
1
1
1
1
1
1
1
1.00002
1.00065
1.00711
1.0329
1.07613
1.11138
1.12587
1.13323
1.13492
1
1
1
1
1
1
1
1
1
1
1
1
1
1
1
1
1
1
1
1.00001
1.00028
1.00379
1.02215
1.06144
1.10392
1.12434
1.12954
1
1
1
1
1
1
1
1
1
1
1
1
1
1
1
1
1
1
1
1
1
1.0001
1.00198
1.01454
1.04944
1.09301
1.11679
1
1
1
1
1
1
1
1
1
1
1
1
1
1
1
1
1
1
1
1
1
1
1.00004
1.00096
1.00885
1.03647
1.07795
1
1
1
1
1
1
1
1
1
1
1
1
1
1
1
1
1
1
1
1
1
1
1
1.00001
1.00041
1.00496
1.02565
1
1
1
1
1
1
1
1
1
1
1
1
1
1
1
1
1
1
1
1
1
1
1
1
1
1.00017
1.0027
1
1
1
1
1
1
1
1
1
1
1
1
1
1
1
1
1
1
1
1
1
1
1
1
1
1
1.00007
1
1
1
1
1
1
1
1
1
1
1
1
1
1
1
1
1
1
1
1
1
1
1
1
1
1
1
1
1
1
1
1
1
1
1
1
1
1
1
1
1
1
1
1
1
1
1
1
1
1
1
1
1
1
1
1
1
1
1
1
1
1
1
1
1
1
1
1
1
1
1
1
1
1
1
1
1
1
1
1
1
1
1
1
1
1
1
1
1
1
1
1
1
1
1
1
1
1
1
1
1
1
1
1
1
1
1
1
1
1
1
1
1
1
1
1
1
1
1
1
1
1
1
1
1
1
1
1
1
1
1
1
1
1
1
1
1
1
1
1
1
1
1
1
1
1
1
1
1
1
1
1
1
1
1
1
1
1
1
1
1
1
1
1
1
1
1
1
1
1
1
1
1
1
1
1
1
1
1
1
1
1
1
1
1
1
1
1
1
1
1
1
1
1
1
1
1
1
1
1
1
1
1
1
1
1
1
1
1
1
1
1
1
1
1
1
1
1
1
1
1
1
1
1
1
1
1
1
1
1
1
1
1
1
1
1
1
1
1
1
1
1
1
1
1
1
1
1
1
1
1
1
1
1
1
1
1
1
1
1
1
1
1
1
1
1
1
1
1
1
1
1
1
1
1
1
1
1
1
1
1
1
1
1
1
1
1
1
1
1
1
1
1
1
1
1
1
1
1
1
1
1
1
1
1
1
1
1
1
1
1
1
1
1
1
1
1
1
1
1
1
1
1
1
1
1
1
1
1
1
1
1
1
1
1
1
1
1
1
1
1
1
1
1
1
1
1
1
1
1
1
1
1
1
1
1
1
1
1
1
1
1
1
1
1
1
1
1
1
1
1
1
1
1
1
1
1
1
1
1
1
1
1
1
1
1
1
1
1
1
1
1
1
1
1
1
1
1
1
1
1
1
1
1
1
1
1
1
1
1
1
1
1
1
1
1
1
1
1
1
1
1
1
1
1
1
1
1
1
1
1
1
1
1
1
1
1
1
1
1
1
1
1
1
1
1
1
1
1
1
1
1
1
1
1
1
1
1
1
1
1
1
1
1
1
1
1
1
1
1
1
1
1
1
1
1
1
1
1
1
1
1
1
1
1
1
1
1
1
1
1
1
1
1
1
1
1
1
1
1
1
1
1
1
1
1
1
1
1
1
1
1
1
1
1
1
1
1
1
1
1
1
1
1
1
1
1
1
1
1
1
1
1
1
1
1
1
1
1
1
1
1
1
1
1
1
1
1
1
1
1
1
1
1
1
1
1
1
1
1
1
1
1
1
1
1
1
1
1
1
1
1
1
1
1
1
1
1
1
1
1
1
1
1
1
1
1
1
1
1
1
1
1
1
1
1
1
1
1
1
1
1
1
1
1
1
1
1
1
1
1
1
1
1
1
1
1
1
1
1
1
1
1
1
1
1
1
1
1
1
1
1
1
1
1
1
1
1
1
1
1
1
1
1
1
1
1
1
1
1
1
1
1
1
1
1
1
1
1
1
1
1
1
1
1
1
1
1
1
1
1
1
1
1
1
1
1
1
1
1
1
1
1
1
1
1
1
1
1
1
1
1
1
1
1
1
1
1
1
1
1
1
1
1
1
1
1
1
1
1
1
1
1
1
1
1
1
1
1
1
1
1
1
1
1
1
1
1
1
1
1
1
1
1
1
1
1
1
1
1
1
1
1
1
1
1
1
1
1
1
1
1
1
1
1
1
1
1
1
1
1
1
1
1
1
1
1
1
1
1
1
1
1
1
1
1
1
1
1
1
1
1
1
1
1
1
1
1
1
1
1
1
1
1
1
1
1
1
1
1
1
1
1
1
1
1
1
1
1
1
1
1
1
1
1
1
1
1
1
1
1
1
1
1
1
1
1
1
1
1
1
1
1
1
1
1
1
1
1
1
1
1
1
1
1
1
1
1
1
1
1
1
1
1
1
1
1
1
1
1
1
1
1
1
1
1
1
1
1
1
1
1
1
1
1
1
1
1
1
1
1
1
1
1
1
1
1
1
1
1
1
1
1
1
1
1
1
1
1
1
1
1
1
1
1
1
1
1
1
1
1
1
1
1
1
1
1
1
1
1
1
1
1
1
1
1
1
1
1
1
1
1
1
1
1
1
1
1
1
1
1
1
1
1
1
1
1
1
1
1
1
1
1
1
1
1
1
1
1
1
1
1
1
1
1
1
1
1
1
1
1
1
1
1
1
1
1
1
1
1
1
1
1
1
1
1
1
1
1
1
1
1
1
1
1
1
1
1
1
1
1
1
1
1
1
1
1
1
1
1
1
1
1
1
1
1
1
1
1
1
1
1
1
1
1
1
1
1
1
1
1
1
1
1
1
1
1
1
1
1
1
1
1
1
1
1
1
1
1
1
1
1
1
1
1
1
1
1
1
1
1
1
1
1
1
1
1
1
1
1
1
1
1
1
1
1
1
1
1
1
1
1
1
1
1
1
1
1
1
1
1
1
1
1
1
1
1
1
1
1
1
1
1
1
1
1
1
1
1
1
1
1
1
1
1
1
1
1
1
1
1
1
1
1
1
1
1
1
1
1
1
1
1
1
1
1
1
1
1
1
1
1
1
1
1
1
1
1
1
1
1
1
1
1
1
1
1
1
1
1
1
1
1
1
1
1
1
1
1
1
1
1
1
1
1
1
1
1
1
1
1
1
1
1
1
1
1
1
1
1
1
1
1
1
1
1
1
1
1
1
1
1
1
1
1
1
1
1
1
1
1
1
1
1
1
1
1
1
1
1
1
1
1
1
1
1
1
1
1
1
1
1
1
1
1
1
1
1
1
1
1
1
1
1
1
1
1
1
1
1
1
1
1
1
1
1
1
1
1
1
1
1
1
1
1
1
1
1
1
1
1
1
1
1
1
1
1
1
1
1
1
1
1
1
1
1
1
1
1
1
1
1
1
1
1
1
1
1
1
1
1
1
1
1
1
1
1
1
1
1
1
1
1
1
1
1
1
1
1
1
1
1
1
1
1
1
1
1
1
1
1
1
1
1
1
1
1
1
1
1
1
1
1
1
1
1
1
1
1
1
1
1
1
1
1
1
1
1
1
1
1
1
1
1
1
1
1
1
1
1
1
1
1
1
1
1
1
1
1
1
1
1
1
1
1
1
1
1
1
1
1
1
1
1
1
1
1
1
1
1
1
1
1
1
1
1
1
1
1
1
1
1
1
1
1
1
1
1
1
1
1
1
1
1
1
1
1
1
1
1
1
1
1
1
1
1
1
1
1
1
1
1
1
1
1
1
1
1
1
1
1
1
1
1
1
1
1
1
1
1
1
1
1
1
1
1
1
1
1
1
1
1
1
1
1
1
1
1
1
1
1
1
1
1
1
1
1
1
1
1
1
1
1
1
1
1
1
1
1
1
1
1
1
1
1
1
1
1
1
1
1
1
1
1
1
1
1
1
1
1
1
1
1
1
1
1
1
1
1
1
1
1
1
1
1
1
1
1
1
1
1
1
1
1
1
1
1
1
1
1
1
1
1
1
1
1
1
1
1
1
1
1
1
1
1
1
1
1
1
1
1
1
1
1
1
1
1
1
1
1
1
1
1
1
1
1
1
1
1
1
1
1
1
1
1
1
1
1
1
1
1
1
1
1
1
1
1
1
1
1
1
1
1
1
1
1
1
1
1
1
1
1
1
1
1
1
1
1
1
1
1
1
1
1
1
1
1
1
1
1
1
1
1
1
1
1
1
1
1
1
1
1
1
1
1
1
1
1
1
1
1
1
1
1
1
1
1
1
1
1
1
1
1
1
1
1
1
1
1
1
1
1
1
1
1
1
1
1
1
1
1
1
1
1
1
1
1
1
1
1
1
1
1
1
1
1
1
1
1
1
1
1
1
1
1
1
1
1
1
1
1
1
1
1
1
1
1
1
1
1
1
1
1
1
1
1
1
1
1
1
1
1
1
1
1
1
1
1
1
1
1
1
1
1
1
1
1
1
1
1
1
1
1
1
1
1
1
1
1
1
1
1
1
1
1
1
1
1
1
1
1
1
1
1
1
1
1
1
1
1
1
1
1
1
1
1
1
1
1
1
1
1
1
1
1
1
1
1
1
1
1
1
1
1
1
1
1
1
1
1
1
1
1
1
1
1
1
1
1
1
1
1
1
1
1
1
1
1
1
1
1
1
1
1
1
1
1
1
1
1
1
1
1
1
1
1
1
1
1
1
1
1
1
1
1
1
1
1
1
1
1
1
1
1
1
1
1
1
1
1
1
1
1
1
1
1
1
1
1
1
1
1
1
1
1
1
1
1
1
1
1
1
1
1
1
1
1
1
1
1
1
1
1
1
1
1
1
1
1
1
1
1
1
1
1
1
1
1
1
1
1
1
1
1
1
1
1
1
1
1
1
1
1
1
1
1
1
1
1
1
1
1
1
1
1
1
1
1
1
1
1
1
1
1
1
1
1
1
1
1
1
1
1
1
1
1
1
1
1
1
1
1
1
1
1
1
1
1
1
1
1
1
1
1
1
1
1
1
1
1
1
1
1
1
1
1
1
1
1
1
1
1
1
1
1
1
1
1
1
1
1
1
1
1
1
1
1
1
1
1
1
1
1
1
1
1
1
1
1
1
1
1
1
1
1
1
1
1
1
1
1
1
1
1
1
1
1
1
1
1
1
1
1
1
1
1
1
1
1
1
1
1
1
1
1
1
1
1
1
1
1
1
1
1
1
1
1
1
1
1
1
1
1
1
1
1
1
1
1
1
1
1
1
1
1
1
1
1
1
1
1
1
1
1
1
1
1
1
1
1
1
1
1
1
1
1
1
1
1
1
1
1
1
)
;

boundaryField
{
    inlet
    {
        type            fixedValue;
        value           nonuniform 0();
    }
    outlet
    {
        type            inletOutlet;
        inletValue      nonuniform 0();
        value           nonuniform 0();
    }
    triangle
    {
        type            zeroGradient;
    }
    top
    {
        type            symmetryPlane;
    }
    bottom
    {
        type            symmetryPlane;
    }
    defaultFaces
    {
        type            empty;
    }
    procBoundary28to20
    {
        type            processor;
        value           nonuniform List<scalar> 
28
(
1.14171
1.14018
1.13853
1.13704
1.13567
1.13407
1.13223
1.13047
1.12877
1.12693
1.12499
1.1231
1.15794
1.15688
1.15603
1.15551
1.15474
1.15359
1.15236
1.15116
1.15017
1.1493
1.14811
1.1467
1.14533
1.14412
1.14301
1.14301
)
;
    }
    procBoundary28to27
    {
        type            processor;
        value           nonuniform List<scalar> 
119
(
1.15877
1.15845
1.15833
1.15814
1.15786
1.15765
1.15749
1.15721
1.15714
1.1571
1.15671
1.15623
1.15722
1.15693
1.14735
1.10177
1.03061
1.00245
1.00004
1
1
1
1
1
1
1
1
1
1
1
1
1
1
1
1
1
1
1
1
1
1
1
1
1
1
1
1
1
1
1
1
1
1
1
1
1
1
1
1
1
1
1
1
1
1
1
1
1
1
1
1
1
1
1
1
1
1
1
1
1
1
1
1
1
1
1
1
1
1
1
1
1
1
1
1
1
1
1
1
1
1
1
1
1
1
1
1
1
1
1
1
1
1
1
1
1
1
1
1
)
;
    }
    procBoundary28to29
    {
        type            processor;
        value           nonuniform List<scalar> 
120
(
1.12137
1.12157
1.12197
1.12238
1.12275
1.12313
1.1235
1.1238
1.12405
1.12433
1.12452
1.12467
1.12482
1.12501
1.12525
1.12551
1.12579
1.12611
1.12646
1.12679
1.12707
1.12734
1.12764
1.12805
1.12858
1.12908
1.12933
1.12957
1.13004
1.13077
1.13124
1.13152
1.13212
1.13329
1.13386
1.13185
1.12537
1.11088
1.06528
1.01713
1.0013
1.00002
1
1
1
1
1
1
1
1
1
1
1
1
1
1
1
1
1
1
1
1
1
1
1
1
1
1
1
1
1
1
1
1
1
1
1
1
1
1
1
1
1
1
1
1
1
1
1
1
1
1
1
1
1
1
1
1
1
1
1
1
1
1
1
1
1
1
1
1
1
1
1
1
1
1
1
1
1
1
)
;
    }
}


// ************************************************************************* //
