/*--------------------------------*- C++ -*----------------------------------*\
  =========                 |
  \\      /  F ield         | OpenFOAM: The Open Source CFD Toolbox
   \\    /   O peration     | Website:  https://openfoam.org
    \\  /    A nd           | Version:  8
     \\/     M anipulation  |
\*---------------------------------------------------------------------------*/
FoamFile
{
    version     2.0;
    format      ascii;
    class       volScalarField;
    location    "2.8";
    object      rho;
}
// * * * * * * * * * * * * * * * * * * * * * * * * * * * * * * * * * * * * * //

dimensions      [1 -3 0 0 0 0 0];

internalField   nonuniform List<scalar> 
2600
(
1.06869
1.07072
1.1531
1.30727
1.59161
1.91156
2.0857
2.15688
2.12671
2.01855
1.04076
1.00478
1.08546
1.28804
1.59703
1.91564
2.08921
2.15638
2.10928
2.01896
1.025
0.969718
1.03426
1.26271
1.58654
1.90213
2.07929
2.15327
2.09749
1.99782
1.02602
0.966129
1.00572
1.23177
1.55814
1.85816
2.03028
2.13948
2.10143
1.9669
1.03242
0.965562
0.988361
1.20007
1.51651
1.807
1.97207
2.07641
2.08657
1.9473
1.03932
0.961213
0.975178
1.15439
1.44182
1.71375
1.90366
2.01041
2.00123
1.89482
1.04257
0.955201
0.956474
1.11056
1.36276
1.6262
1.81349
1.94385
1.91111
1.82195
1.04458
0.952822
0.947754
1.07957
1.31348
1.57265
1.74844
1.85568
1.84995
1.76421
1.04339
0.958871
0.954655
1.08769
1.32044
1.57
1.71776
1.7884
1.81946
1.73656
1.04323
0.963941
0.971983
1.11627
1.32571
1.54818
1.6953
1.79184
1.78977
1.71812
1.04336
0.967517
0.974943
1.11576
1.32664
1.5608
1.71781
1.79001
1.76439
1.71153
1.04313
0.962266
0.967189
1.10352
1.30834
1.56257
1.73882
1.81047
1.77059
1.72076
1.04348
0.958822
0.961269
1.09036
1.29314
1.59085
1.78359
1.8341
1.81916
1.76492
1.04276
0.96015
0.973343
1.11519
1.33499
1.66081
1.85647
1.89835
1.89771
1.81931
1.04023
0.966892
0.990108
1.15375
1.41913
1.74378
1.92638
1.98361
1.97603
1.88963
1.0344
0.971937
1.00266
1.19871
1.48483
1.80511
2.01704
2.09674
2.02806
1.94904
1.02803
0.974977
1.02019
1.23906
1.52016
1.86327
2.08773
2.12923
2.07492
1.98257
1.02612
0.981106
1.05052
1.27228
1.54265
1.89252
2.09511
2.13855
2.12073
1.99945
1.04092
1.01532
1.09855
1.30759
1.55357
1.89377
2.09171
2.15863
2.12683
2.0109
1.06605
1.07918
1.16683
1.33538
1.5507
1.88186
2.09036
2.16672
2.11941
2.01152
1.32229
1.16959
1.23374
1.35409
1.53598
1.85446
2.08414
2.16332
2.10754
2.00805
1.60665
1.25345
1.29431
1.37017
1.51712
1.82085
2.06462
2.14736
2.10395
2.00232
1.84865
1.33965
1.34841
1.38212
1.49506
1.78512
2.03846
2.13537
2.10431
1.99657
2.03119
1.45464
1.39563
1.39119
1.46808
1.74187
2.02086
2.12715
2.09769
1.99235
2.17124
1.58574
1.44478
1.39411
1.44716
1.6886
1.99505
2.11785
2.08678
1.98716
2.27415
1.70283
1.50236
1.4039
1.43622
1.63533
1.9654
2.10993
2.0767
1.98255
2.35607
1.79904
1.55947
1.42949
1.44004
1.59105
1.93079
2.09895
2.07319
1.97938
2.42306
1.88299
1.60604
1.46602
1.44961
1.55653
1.89009
2.0851
2.07165
1.97748
2.47749
1.96289
1.65133
1.49496
1.45757
1.52936
1.84508
2.06857
2.06813
1.97508
2.52404
2.03412
1.71145
1.52248
1.46244
1.50978
1.79704
2.04796
2.06207
1.97075
2.56513
2.09569
1.77533
1.56529
1.46505
1.49857
1.74465
2.0211
2.05627
1.96561
2.60432
2.15179
1.83077
1.62016
1.47584
1.49767
1.69055
1.98828
2.05548
1.96011
2.64104
2.20764
1.88239
1.66812
1.50337
1.49847
1.64016
1.95268
2.05222
1.95408
2.67575
2.26155
1.9371
1.70841
1.54043
1.50109
1.59816
1.91856
2.04577
1.94632
2.70806
2.31214
1.9921
1.75146
1.57126
1.50627
1.56596
1.87892
2.0352
1.93838
2.73747
2.35848
2.0422
1.79946
1.60134
1.51107
1.54342
1.83247
2.02126
1.92884
2.76331
2.40068
2.0878
1.84516
1.63952
1.51626
1.52914
1.77925
2.00384
1.919
2.78597
2.43895
2.13141
1.88628
1.68
1.52996
1.52031
1.72462
1.98296
1.90931
2.8061
2.47385
2.17364
1.92604
1.71663
1.54882
1.51706
1.67319
1.95692
1.89985
2.82424
2.50683
2.21399
1.96545
1.75166
1.56888
1.51628
1.62592
1.92491
1.89083
4.23169
4.0755
3.9618
3.85172
3.74702
3.649
3.54692
3.43397
3.26904
3.05716
4.01857
3.87186
3.80325
3.72595
3.65069
3.5707
3.47861
3.36276
3.19178
2.93846
3.96785
3.8604
3.80903
3.74104
3.6737
3.59603
3.501
3.37907
3.20443
2.96325
3.88542
3.81096
3.77588
3.71868
3.6599
3.58393
3.48944
3.36592
3.19314
2.95012
3.82705
3.77505
3.74659
3.69124
3.6357
3.56188
3.47199
3.35026
3.18243
2.93429
3.76703
3.72567
3.69767
3.64663
3.5973
3.52708
3.44191
3.32259
3.16191
2.91856
3.68772
3.65646
3.63395
3.59143
3.54841
3.48247
3.40296
3.28769
3.13664
2.90958
3.60882
3.58842
3.57177
3.53696
3.49893
3.43724
3.36346
3.25339
3.11314
2.90655
3.5476
3.535
3.5213
3.49111
3.4558
3.39733
3.32843
3.22437
3.09373
2.90678
3.50929
3.49862
3.48438
3.45531
3.42061
3.36466
3.29958
3.20114
3.08002
2.91096
3.48981
3.47664
3.46057
3.43139
3.39666
3.34255
3.27982
3.186
3.07273
2.91901
3.47839
3.46067
3.44312
3.41392
3.37954
3.32757
3.26744
3.17851
3.07172
2.93114
3.46857
3.44715
3.42889
3.39999
3.36623
3.31652
3.25902
3.17516
3.07492
2.94561
3.45771
3.43391
3.41524
3.3868
3.3539
3.30657
3.25179
3.17324
3.07953
2.95994
3.44614
3.42078
3.40181
3.3739
3.34194
3.29693
3.24482
3.17145
3.08384
2.97309
3.43385
3.40746
3.38829
3.36094
3.33001
3.28726
3.23779
3.16935
3.08729
2.98465
3.42104
3.39408
3.37493
3.34825
3.31843
3.27788
3.23095
3.1671
3.09013
2.99463
3.4073
3.3804
3.36163
3.33582
3.30729
3.26892
3.22447
3.16485
3.09259
3.00346
3.3923
3.36651
3.34851
3.3238
3.29668
3.26048
3.21844
3.16269
3.09488
3.01143
3.3756
3.35241
3.3357
3.31238
3.28677
3.25267
3.2129
3.16071
3.09706
3.01878
1.40369
1.4116
1.42062
1.43083
1.44271
1.45683
1.47174
1.48862
2.84891
3.60937
1.40369
1.4116
1.42062
1.43084
1.4427
1.45684
1.47174
1.4888
2.84537
3.60567
1.40369
1.4116
1.42062
1.43084
1.44269
1.45684
1.47174
1.48907
2.84011
3.60145
1.40369
1.41161
1.42062
1.43084
1.44268
1.45685
1.47174
1.48934
2.83132
3.59252
1.40369
1.41161
1.42062
1.43085
1.44267
1.45686
1.47175
1.48972
2.82009
3.57567
1.40369
1.41161
1.42062
1.43085
1.44265
1.45686
1.47179
1.48977
2.80755
3.55393
1.40369
1.41161
1.42061
1.43086
1.44264
1.45687
1.47184
1.48964
2.79719
3.53271
1.40369
1.41161
1.42061
1.43086
1.44263
1.45687
1.47192
1.48924
2.78954
3.51558
1.40369
1.41161
1.42061
1.43086
1.44262
1.45687
1.47201
1.48877
2.78143
3.50287
1.40369
1.41161
1.42061
1.43087
1.44261
1.45686
1.47211
1.48829
2.7706
3.49351
1.40369
1.41161
1.4206
1.43087
1.44261
1.45684
1.47223
1.48793
2.75624
3.48526
1.40369
1.41161
1.4206
1.43087
1.44261
1.45681
1.47234
1.48765
2.73869
3.47692
1.40369
1.41161
1.4206
1.43087
1.44261
1.45677
1.47246
1.48744
2.71893
3.46775
1.40369
1.41161
1.4206
1.43088
1.44261
1.45674
1.47258
1.48731
2.698
3.45778
1.40369
1.41161
1.4206
1.43088
1.44262
1.45668
1.47271
1.48724
2.67655
3.44734
1.40369
1.41161
1.4206
1.43088
1.44262
1.45665
1.47283
1.4872
2.65508
3.43674
1.40369
1.41162
1.42059
1.43088
1.44261
1.45663
1.47296
1.48719
2.63374
3.42656
1.40369
1.41162
1.42059
1.43088
1.44261
1.45662
1.47308
1.48719
2.6127
3.41702
1.40369
1.41162
1.42059
1.43089
1.4426
1.45661
1.47319
1.48721
2.59195
3.4088
1.40368
1.41162
1.42059
1.43089
1.4426
1.45662
1.47329
1.48724
2.57149
3.40204
1.40368
1.41162
1.42059
1.43089
1.4426
1.45662
1.47329
1.48724
2.57146
3.40207
1.40369
1.41162
1.42059
1.43089
1.4426
1.45661
1.47319
1.48721
2.59192
3.40885
1.40369
1.41162
1.42059
1.43088
1.44261
1.45662
1.47308
1.48719
2.61267
3.41708
1.40369
1.41162
1.42059
1.43088
1.44261
1.45663
1.47296
1.48719
2.63371
3.42663
1.40369
1.41161
1.4206
1.43088
1.44262
1.45665
1.47283
1.4872
2.65505
3.43681
1.40369
1.41161
1.4206
1.43088
1.44262
1.45668
1.47271
1.48724
2.67653
3.44741
1.40369
1.41161
1.4206
1.43088
1.44261
1.45674
1.47259
1.48731
2.69798
3.45785
1.40369
1.41161
1.4206
1.43087
1.44261
1.45677
1.47246
1.48744
2.71892
3.46782
1.40369
1.41161
1.4206
1.43087
1.44261
1.45681
1.47234
1.48764
2.73868
3.47697
1.40369
1.41161
1.4206
1.43087
1.44261
1.45684
1.47223
1.48793
2.75622
3.4853
1.40369
1.41161
1.42061
1.43087
1.44261
1.45686
1.47211
1.48829
2.77058
3.49356
1.40369
1.41161
1.42061
1.43086
1.44262
1.45687
1.47201
1.48877
2.7814
3.50294
1.40369
1.41161
1.42061
1.43086
1.44263
1.45687
1.47192
1.48923
2.78951
3.51568
1.40369
1.41161
1.42061
1.43086
1.44264
1.45687
1.47185
1.48963
2.79716
3.53284
1.40369
1.41161
1.42062
1.43085
1.44265
1.45686
1.47179
1.48977
2.80753
3.55409
1.40369
1.41161
1.42062
1.43085
1.44267
1.45686
1.47175
1.48972
2.8201
3.57582
1.40369
1.41161
1.42062
1.43084
1.44268
1.45685
1.47174
1.48936
2.83137
3.59271
1.40369
1.4116
1.42062
1.43084
1.44269
1.45684
1.47173
1.48907
2.84019
3.60164
1.40369
1.4116
1.42062
1.43084
1.4427
1.45684
1.47174
1.48879
2.84547
3.60582
1.40369
1.4116
1.42062
1.43083
1.44271
1.45683
1.47174
1.48862
2.84898
3.60942
3.3758
3.35259
3.33585
3.31252
3.28687
3.25273
3.21288
3.16061
3.09681
3.01837
3.39247
3.36666
3.34865
3.32392
3.29677
3.26052
3.21838
3.16255
3.09458
3.01097
3.40743
3.38053
3.36176
3.33592
3.30736
3.26892
3.22437
3.16464
3.09221
3.00294
3.42113
3.39418
3.37503
3.34832
3.31846
3.27783
3.2308
3.16683
3.08969
2.99407
3.43392
3.40754
3.38836
3.36098
3.33
3.28718
3.2376
3.16902
3.0868
2.98407
3.44621
3.42085
3.40186
3.37392
3.34191
3.29682
3.24459
3.17107
3.0833
2.97249
3.45778
3.43397
3.41528
3.3868
3.35384
3.30642
3.25151
3.17284
3.07896
2.95932
3.46861
3.44719
3.42891
3.39996
3.36615
3.31633
3.25871
3.17473
3.07433
2.94499
3.47841
3.46068
3.44311
3.41387
3.37943
3.32735
3.2671
3.17806
3.07112
2.9305
3.48981
3.47663
3.46054
3.43131
3.39652
3.34232
3.27947
3.18553
3.07214
2.91835
3.50931
3.49862
3.48437
3.45524
3.42048
3.36444
3.29923
3.20067
3.07942
2.91034
3.54766
3.53503
3.52131
3.49107
3.45569
3.39712
3.32809
3.22391
3.09312
2.90626
3.60896
3.58851
3.57183
3.53695
3.49885
3.43706
3.36314
3.25293
3.11251
2.90616
3.6879
3.65658
3.63403
3.59145
3.54836
3.48233
3.40266
3.28725
3.13603
2.90933
3.76724
3.72584
3.69781
3.64671
3.5973
3.52698
3.44165
3.32219
3.16134
2.91853
3.82726
3.77524
3.74676
3.69135
3.63572
3.5618
3.47175
3.34989
3.18191
2.93428
3.88568
3.81119
3.77605
3.71879
3.65993
3.58385
3.48923
3.36559
3.19275
2.94999
3.96817
3.86067
3.80924
3.74117
3.67375
3.59598
3.50085
3.37883
3.20416
2.9633
4.0189
3.87211
3.80345
3.72607
3.65075
3.57068
3.4785
3.36258
3.19158
2.93896
4.23207
4.07579
3.96204
3.85189
3.74711
3.649
3.54686
3.43384
3.26889
3.05766
2.82372
2.50642
2.21387
1.96565
1.75303
1.56973
1.51529
1.62059
1.92242
1.89057
2.80559
2.47378
2.17387
1.92617
1.71773
1.54908
1.5161
1.66739
1.95471
1.8997
2.78546
2.43914
2.13205
1.88598
1.68069
1.53007
1.5196
1.71899
1.98244
1.90937
2.7628
2.40104
2.08839
1.8446
1.63981
1.51694
1.52869
1.7748
2.00509
1.91925
2.73697
2.35883
2.04262
1.79837
1.60096
1.5121
1.5437
1.82795
2.02237
1.9294
2.70765
2.31252
1.99261
1.74909
1.57094
1.50772
1.56677
1.87402
2.03477
1.93851
2.67545
2.26259
1.93779
1.70386
1.54093
1.50311
1.59941
1.91401
2.04417
1.94632
2.64093
2.20956
1.88264
1.66211
1.50418
1.5017
1.64227
1.95009
2.05153
1.95298
2.60426
2.15477
1.82948
1.61163
1.47862
1.50198
1.6949
1.98457
2.05864
1.96063
2.56535
2.09872
1.77339
1.55426
1.4698
1.50698
1.75106
2.01496
2.06416
1.96779
2.52424
2.0372
1.70954
1.50905
1.46856
1.52195
1.8039
2.03986
2.06619
1.97407
2.47788
1.9662
1.64833
1.48023
1.4645
1.54623
1.84999
2.06057
2.06768
1.97645
2.42374
1.88744
1.59722
1.45108
1.45719
1.57732
1.89059
2.0791
2.0708
1.97659
2.35682
1.80487
1.5465
1.41914
1.44476
1.61503
1.92811
2.09473
2.07814
1.97946
2.27462
1.70933
1.4856
1.39723
1.44607
1.66283
1.96255
2.1056
2.08493
1.98661
2.16994
1.5942
1.42743
1.3873
1.46132
1.71687
1.99381
2.11516
2.09022
1.99389
2.02819
1.46379
1.37806
1.38136
1.48913
1.76874
2.01761
2.12557
2.09063
1.99704
1.84419
1.34557
1.33269
1.36667
1.52094
1.81053
2.0317
2.13655
2.09752
1.99491
1.6023
1.25219
1.28203
1.34613
1.54812
1.85066
2.05047
2.14681
2.11266
1.99791
1.32291
1.16336
1.21773
1.3239
1.57252
1.88773
2.06816
2.15368
2.12466
2.00836
3.06075
2.93427
2.76429
2.586
2.38396
2.16698
1.94568
1.74318
1.50385
1.24002
3.05987
2.93197
2.76175
2.58298
2.38077
2.16389
1.94313
1.73954
1.50054
1.24206
3.05821
2.92906
2.76016
2.57806
2.37528
2.15854
1.93845
1.73304
1.49482
1.24539
3.05559
2.92456
2.7559
2.57069
2.36718
2.15063
1.93157
1.72347
1.48741
1.25094
3.05198
2.91841
2.74953
2.56132
2.35651
2.14017
1.92229
1.71064
1.4784
1.25902
3.04727
2.91069
2.74091
2.54949
2.34319
2.12713
1.91049
1.69438
1.4693
1.27014
3.04154
2.90148
2.72982
2.53527
2.32722
2.11142
1.89599
1.67464
1.46042
1.28468
3.03484
2.89071
2.7163
2.51849
2.30856
2.09313
1.87856
1.65183
1.4537
1.30405
3.02722
2.87832
2.70029
2.49906
2.28705
2.0721
1.85806
1.62589
1.44786
1.32963
3.0187
2.86417
2.68166
2.47675
2.26275
2.04821
1.83404
1.59844
1.44184
1.36449
3.00924
2.84816
2.66014
2.45129
2.23518
2.02149
1.8061
1.56985
1.43422
1.41102
2.99873
2.82998
2.63586
2.42252
2.20444
1.99124
1.77449
1.54268
1.42819
1.46506
2.98705
2.80935
2.60785
2.38975
2.17016
1.95772
1.73852
1.51976
1.42885
1.52378
2.97402
2.78599
2.57588
2.35302
2.13189
1.92
1.69966
1.50368
1.43847
1.58796
2.95938
2.7593
2.53963
2.3115
2.09002
1.87778
1.65795
1.4949
1.46343
1.65224
2.94296
2.72867
2.4985
2.26527
2.04334
1.83122
1.61772
1.48937
1.50815
1.71594
2.92436
2.69352
2.45146
2.21355
1.99277
1.77907
1.58067
1.48885
1.57778
1.77269
2.90304
2.65327
2.39817
2.15582
1.9366
1.72413
1.55262
1.494
1.66896
1.81642
2.87805
2.6069
2.33807
2.09198
1.87483
1.66519
1.53009
1.51796
1.76776
1.85013
2.84837
2.55258
2.2704
2.02204
1.80723
1.60902
1.51788
1.56605
1.86257
1.87482
2.84889
2.55317
2.27087
2.02179
1.80587
1.60724
1.51855
1.57012
1.86535
1.87486
2.8785
2.60749
2.33856
2.09209
1.87372
1.66331
1.53006
1.52107
1.77159
1.85041
2.90336
2.65386
2.39883
2.15612
1.93604
1.72252
1.55212
1.49517
1.67279
1.81712
2.92456
2.69399
2.45218
2.2141
1.99258
1.77791
1.58014
1.48921
1.58046
1.77402
2.94306
2.72905
2.4991
2.26588
2.04349
1.8307
1.61711
1.48921
1.50954
1.71744
2.9594
2.75955
2.54016
2.31206
2.09039
1.87764
1.65757
1.49462
1.46381
1.65351
2.97397
2.78613
2.57623
2.35355
2.1323
1.92012
1.69964
1.50343
1.43821
1.58856
2.98694
2.80939
2.60809
2.39013
2.17056
1.95799
1.73868
1.51958
1.42866
1.52365
2.99859
2.82995
2.63593
2.42279
2.20477
1.99154
1.77485
1.54277
1.42811
1.46452
3.0091
2.84807
2.66019
2.45145
2.23544
2.02178
1.80649
1.57008
1.43423
1.41026
3.01856
2.86405
2.68163
2.47682
2.26291
2.04843
1.8344
1.59883
1.44187
1.36377
3.02709
2.87819
2.70021
2.49906
2.28713
2.07224
1.85835
1.62627
1.44791
1.3291
3.03474
2.89059
2.71619
2.51843
2.30856
2.09319
1.87874
1.65216
1.4538
1.30367
3.04146
2.90138
2.72971
2.53517
2.32715
2.11139
1.89607
1.67487
1.46057
1.28443
3.04723
2.9106
2.7408
2.54937
2.34307
2.12704
1.91046
1.69448
1.46944
1.27
3.05197
2.91836
2.74945
2.56119
2.35637
2.14003
1.9222
1.71063
1.47846
1.25896
3.0556
2.92454
2.75584
2.57058
2.36702
2.15046
1.93142
1.72337
1.48736
1.25092
3.05825
2.92907
2.76012
2.57796
2.37512
2.15834
1.93827
1.73287
1.49466
1.2454
3.05993
2.932
2.76171
2.58289
2.38062
2.16368
1.94292
1.73934
1.50031
1.24205
3.06083
2.93431
2.76428
2.58593
2.3838
2.16676
1.94546
1.74295
1.50357
1.24001
3.35295
3.33418
3.31946
3.29829
3.27465
3.24314
3.2061
3.15824
3.09965
3.02829
3.33081
3.31569
3.30261
3.28361
3.26196
3.23326
3.19926
3.1563
3.1035
3.04012
3.31482
3.30099
3.28891
3.27155
3.25148
3.22525
3.19386
3.15499
3.10696
3.04999
3.30299
3.28927
3.27792
3.2618
3.24303
3.21892
3.18982
3.15434
3.11033
3.0586
3.29419
3.28044
3.26959
3.25434
3.23656
3.21418
3.18697
3.15427
3.11374
3.06639
3.28794
3.27427
3.26373
3.24912
3.2321
3.21109
3.18541
3.15495
3.11748
3.07365
3.28431
3.27057
3.26009
3.24585
3.22935
3.20935
3.18493
3.15634
3.12149
3.08061
3.283
3.26902
3.25844
3.24445
3.22827
3.20892
3.1856
3.15849
3.12573
3.0872
3.28307
3.26888
3.25816
3.24427
3.2283
3.2095
3.18714
3.16115
3.1301
3.09354
3.28418
3.26988
3.25899
3.24511
3.22933
3.21095
3.18928
3.16415
3.13452
3.09963
3.28623
3.27174
3.26065
3.24675
3.23107
3.21294
3.1918
3.16738
3.13886
3.10535
3.28888
3.27417
3.26286
3.24891
3.23326
3.21531
3.19457
3.17074
3.14308
3.11074
3.29185
3.2769
3.26539
3.25134
3.2357
3.21786
3.19744
3.17407
3.14713
3.11575
3.29491
3.27973
3.26802
3.25387
3.23821
3.22044
3.20025
3.17724
3.15089
3.12032
3.29785
3.28243
3.27056
3.2563
3.24062
3.22288
3.20287
3.18013
3.15426
3.12434
3.3005
3.28484
3.27283
3.25846
3.24276
3.22503
3.20517
3.18262
3.15713
3.12773
3.30267
3.28678
3.27465
3.26018
3.24446
3.22673
3.20697
3.18457
3.15939
3.13041
3.30427
3.28819
3.27595
3.26141
3.24567
3.22795
3.20829
3.18601
3.16106
3.1324
3.30508
3.28894
3.27667
3.2621
3.24638
3.22869
3.20912
3.18695
3.16216
3.13366
3.30537
3.28932
3.27713
3.26259
3.24691
3.22923
3.2097
3.18756
3.16286
3.13448
1.40368
1.41162
1.42059
1.4309
1.44259
1.45663
1.47342
1.48729
2.54623
3.39626
1.40368
1.41162
1.42058
1.4309
1.44259
1.45663
1.47356
1.48737
2.51585
3.39146
1.40368
1.41162
1.42058
1.43091
1.44259
1.45661
1.47367
1.48746
2.48628
3.38724
1.40368
1.41162
1.42058
1.43091
1.44259
1.45657
1.47377
1.48757
2.4584
3.38304
1.40368
1.41162
1.42058
1.43091
1.4426
1.45653
1.47385
1.48768
2.43302
3.37838
1.40368
1.41162
1.42058
1.43091
1.44262
1.45648
1.47392
1.48778
2.4103
3.37328
1.40368
1.41162
1.42058
1.43091
1.44263
1.45643
1.47396
1.48788
2.38928
3.36861
1.40368
1.41162
1.42058
1.4309
1.44265
1.45639
1.474
1.48797
2.36912
3.36484
1.40368
1.41162
1.42058
1.4309
1.44267
1.45634
1.47402
1.48805
2.3501
3.36175
1.40368
1.41162
1.42058
1.43089
1.44269
1.45631
1.47403
1.48813
2.3323
3.35924
1.40368
1.41162
1.42059
1.43088
1.44271
1.45627
1.47404
1.48819
2.31582
3.35721
1.40368
1.41162
1.42059
1.43087
1.44273
1.45624
1.47406
1.48825
2.30072
3.3556
1.40368
1.41162
1.42059
1.43086
1.44275
1.45622
1.47408
1.48829
2.28708
3.35435
1.40368
1.41162
1.4206
1.43085
1.44277
1.45619
1.47411
1.48833
2.27498
3.35339
1.40368
1.41162
1.4206
1.43085
1.44279
1.45617
1.47416
1.48837
2.26448
3.35264
1.40368
1.41162
1.4206
1.43084
1.4428
1.45615
1.47421
1.48839
2.25565
3.35205
1.40368
1.41162
1.42061
1.43083
1.44282
1.45614
1.47428
1.48841
2.24856
3.35151
1.40368
1.41162
1.42061
1.43083
1.44283
1.45612
1.47433
1.48842
2.24314
3.35101
1.40368
1.41161
1.42061
1.43083
1.44283
1.45612
1.47436
1.48843
2.23927
3.35038
1.40368
1.41161
1.42061
1.43082
1.44285
1.4561
1.47443
1.48843
2.23722
3.35
1.40368
1.41161
1.42061
1.43082
1.44285
1.4561
1.47443
1.48843
2.23722
3.35
1.40368
1.41161
1.42061
1.43083
1.44283
1.45612
1.47436
1.48843
2.23927
3.35039
1.40368
1.41162
1.42061
1.43083
1.44283
1.45612
1.47433
1.48842
2.24314
3.35101
1.40368
1.41162
1.42061
1.43083
1.44282
1.45614
1.47428
1.48841
2.24857
3.35152
1.40368
1.41162
1.4206
1.43084
1.4428
1.45615
1.47421
1.48839
2.25566
3.35205
1.40368
1.41162
1.4206
1.43085
1.44279
1.45617
1.47416
1.48837
2.26448
3.35264
1.40368
1.41162
1.4206
1.43085
1.44277
1.45619
1.47411
1.48833
2.27498
3.35338
1.40368
1.41162
1.42059
1.43086
1.44275
1.45622
1.47408
1.48829
2.28708
3.35434
1.40368
1.41162
1.42059
1.43087
1.44273
1.45624
1.47406
1.48825
2.30072
3.35559
1.40368
1.41162
1.42059
1.43088
1.44271
1.45627
1.47404
1.48819
2.31582
3.35719
1.40368
1.41162
1.42058
1.43089
1.44269
1.45631
1.47403
1.48813
2.33229
3.35922
1.40368
1.41162
1.42058
1.4309
1.44267
1.45634
1.47402
1.48805
2.35009
3.36173
1.40368
1.41162
1.42058
1.4309
1.44265
1.45639
1.474
1.48797
2.36911
3.36482
1.40368
1.41162
1.42058
1.43091
1.44263
1.45643
1.47396
1.48788
2.38926
3.36859
1.40368
1.41162
1.42058
1.43091
1.44262
1.45648
1.47392
1.48778
2.41028
3.37327
1.40368
1.41162
1.42058
1.43091
1.4426
1.45653
1.47385
1.48768
2.43301
3.37838
1.40368
1.41162
1.42058
1.43091
1.44259
1.45657
1.47377
1.48757
2.45838
3.38304
1.40368
1.41162
1.42058
1.43091
1.44259
1.45661
1.47367
1.48746
2.48626
3.38724
1.40368
1.41162
1.42058
1.4309
1.44259
1.45663
1.47356
1.48737
2.51582
3.39147
1.40368
1.41162
1.42059
1.4309
1.44259
1.45663
1.47342
1.48729
2.5462
3.39627
3.30538
3.28934
3.27714
3.26261
3.24692
3.22923
3.20969
3.18754
3.16282
3.13442
3.30509
3.28895
3.27668
3.26211
3.24639
3.22869
3.20911
3.18693
3.16212
3.13361
3.30428
3.2882
3.27596
3.26142
3.24567
3.22794
3.20827
3.18598
3.16103
3.13236
3.30268
3.28679
3.27465
3.26018
3.24445
3.22671
3.20695
3.18455
3.15936
3.13038
3.3005
3.28484
3.27282
3.25845
3.24274
3.22501
3.20514
3.1826
3.15711
3.12772
3.29784
3.28242
3.27054
3.25627
3.24059
3.22285
3.20285
3.18011
3.15425
3.12434
3.29489
3.2797
3.26799
3.25383
3.23818
3.22041
3.20023
3.17722
3.15089
3.12035
3.29182
3.27687
3.26535
3.2513
3.23567
3.21783
3.19742
3.17406
3.14715
3.11581
3.28884
3.27413
3.26282
3.24887
3.23323
3.21528
3.19457
3.17075
3.14313
3.11082
3.28619
3.2717
3.26062
3.24672
3.23105
3.21294
3.19182
3.16743
3.13893
3.10546
3.28414
3.26985
3.25897
3.24509
3.22932
3.21097
3.18932
3.16423
3.13462
3.09977
3.28304
3.26885
3.25815
3.24428
3.22832
3.20955
3.18721
3.16126
3.13023
3.0937
3.28298
3.269
3.25844
3.24447
3.22832
3.20899
3.1857
3.15862
3.12587
3.08735
3.2843
3.27058
3.26012
3.2459
3.22943
3.20945
3.18505
3.15649
3.12164
3.08075
3.28795
3.2743
3.26379
3.2492
3.2322
3.21122
3.18555
3.1551
3.11763
3.07376
3.29423
3.2805
3.26968
3.25445
3.23669
3.21432
3.18712
3.15442
3.11387
3.06646
3.30306
3.28937
3.27804
3.26194
3.24317
3.21907
3.18997
3.15447
3.11041
3.05861
3.31492
3.30112
3.28905
3.2717
3.25163
3.22539
3.19399
3.15508
3.10698
3.04991
3.33095
3.31584
3.30276
3.28376
3.26211
3.23339
3.19935
3.15633
3.10343
3.03994
3.35314
3.33434
3.31962
3.29844
3.27478
3.24323
3.20614
3.1582
3.09949
3.02799
)
;

boundaryField
{
    inlet
    {
        type            calculated;
        value           uniform 1.40001;
    }
    outlet
    {
        type            calculated;
        value           nonuniform List<scalar> 
100
(
1.87513
1.85066
1.81737
1.77427
1.71769
1.65377
1.58881
1.52388
1.46473
1.41045
1.36395
1.32926
1.30382
1.28458
1.27015
1.25911
1.25107
1.24555
1.2422
1.24016
2.00832
2.00257
1.99682
1.99256
1.98739
1.9828
1.97961
1.97773
1.97538
1.97106
1.96587
1.96033
1.95426
1.94652
1.93868
1.92913
1.91926
1.90953
1.90008
1.8911
2.01903
2.01915
1.99678
1.96719
1.94814
1.89468
1.82216
1.76424
1.73658
1.71858
1.71131
1.72102
1.76517
1.81949
1.89001
1.94941
1.98301
1.99965
2.01104
2.01178
1.89085
1.89995
1.90961
1.91953
1.9297
1.93877
1.94642
1.95322
1.96095
1.96819
1.97436
1.97656
1.97674
1.97983
1.98715
1.99415
1.99686
1.99493
1.99832
2.00922
1.24017
1.24221
1.24554
1.25109
1.25917
1.2703
1.28484
1.30421
1.32979
1.36467
1.41121
1.46526
1.524
1.58819
1.65249
1.71619
1.77294
1.81667
1.85038
1.87509
)
;
    }
    triangle
    {
        type            calculated;
        value           nonuniform List<scalar> 
40
(
4.23169
4.0755
3.9618
3.85172
3.74702
3.649
3.54692
3.43397
3.26904
3.05716
1.06869
1.04076
1.025
1.02602
1.03242
1.03932
1.04257
1.04458
1.04339
1.04323
1.04336
1.04313
1.04348
1.04276
1.04023
1.0344
1.02803
1.02612
1.04092
1.06605
4.23207
4.07579
3.96204
3.85189
3.74711
3.649
3.54686
3.43384
3.26889
3.05766
)
;
    }
    top
    {
        type            symmetryPlane;
    }
    bottom
    {
        type            symmetryPlane;
    }
    defaultFaces
    {
        type            empty;
    }
}


// ************************************************************************* //
