/*--------------------------------*- C++ -*----------------------------------*\
  =========                 |
  \\      /  F ield         | OpenFOAM: The Open Source CFD Toolbox
   \\    /   O peration     | Website:  https://openfoam.org
    \\  /    A nd           | Version:  8
     \\/     M anipulation  |
\*---------------------------------------------------------------------------*/
FoamFile
{
    version     2.0;
    format      ascii;
    class       volScalarField;
    location    "2.8";
    object      T;
}
// * * * * * * * * * * * * * * * * * * * * * * * * * * * * * * * * * * * * * //

dimensions      [0 0 0 1 0 0 0];

internalField   nonuniform List<scalar> 
2600
(
1.33355
1.25298
1.14555
1.09854
1.1345
1.19288
1.22967
1.23098
1.22192
1.19274
1.38259
1.30934
1.19234
1.13234
1.16083
1.20969
1.23749
1.23427
1.22131
1.1975
1.39149
1.33538
1.24328
1.17719
1.19496
1.23326
1.24984
1.24358
1.2257
1.20179
1.39326
1.3448
1.2865
1.23272
1.24044
1.2686
1.26733
1.26104
1.24295
1.2118
1.39376
1.34747
1.31899
1.30086
1.30525
1.33156
1.30983
1.2844
1.27191
1.23998
1.39447
1.34859
1.34378
1.36348
1.3787
1.4098
1.38047
1.33184
1.30451
1.27985
1.3954
1.3498
1.35455
1.40557
1.44493
1.4839
1.45431
1.39877
1.35432
1.3265
1.39676
1.35228
1.36057
1.42058
1.48274
1.5252
1.50689
1.45592
1.41379
1.37174
1.39689
1.35738
1.36818
1.43117
1.50183
1.54279
1.52758
1.48894
1.46072
1.40294
1.39738
1.36049
1.3775
1.44426
1.50475
1.53717
1.52696
1.5098
1.47653
1.41121
1.39753
1.36244
1.37844
1.44305
1.50596
1.5406
1.53294
1.51081
1.47126
1.40937
1.39696
1.35869
1.37383
1.43902
1.49756
1.53124
1.52473
1.50557
1.45945
1.39908
1.39636
1.35478
1.36904
1.42999
1.47284
1.49832
1.49334
1.47352
1.43472
1.37423
1.39525
1.3529
1.369
1.42067
1.43132
1.43266
1.43094
1.41818
1.38832
1.32808
1.39387
1.3535
1.36123
1.38666
1.36957
1.35386
1.35443
1.35132
1.32813
1.27955
1.39284
1.35297
1.34027
1.32896
1.29557
1.28742
1.3018
1.30601
1.27421
1.23955
1.3922
1.35095
1.31036
1.26071
1.23202
1.24613
1.27232
1.26638
1.24411
1.21234
1.38971
1.34141
1.26825
1.19591
1.18754
1.21832
1.24914
1.24308
1.2339
1.19786
1.37898
1.3121
1.21326
1.14699
1.15318
1.19704
1.23657
1.2364
1.22525
1.1925
1.32897
1.25306
1.16293
1.11185
1.12554
1.18183
1.23275
1.23379
1.2196
1.18942
1.28499
1.18754
1.12081
1.08491
1.10473
1.17013
1.23208
1.2326
1.21674
1.18766
1.25715
1.14599
1.09267
1.06603
1.09052
1.16162
1.23149
1.23093
1.21708
1.18687
1.25453
1.12915
1.07863
1.05574
1.08092
1.1548
1.22862
1.23033
1.21887
1.18663
1.25904
1.12585
1.0734
1.05216
1.07266
1.14564
1.22493
1.23037
1.21919
1.1868
1.27073
1.1335
1.07333
1.05174
1.06705
1.13234
1.21738
1.22944
1.21795
1.18642
1.28617
1.15
1.08338
1.05623
1.06456
1.11805
1.20774
1.22757
1.21562
1.18545
1.30351
1.17026
1.10023
1.06672
1.06623
1.10602
1.19644
1.22423
1.21436
1.18398
1.32084
1.19164
1.11604
1.07925
1.06819
1.09682
1.18314
1.2203
1.21336
1.18203
1.33668
1.21357
1.13123
1.0873
1.07134
1.08906
1.16793
1.2167
1.21161
1.17943
1.35038
1.23353
1.14963
1.09454
1.07369
1.08239
1.15181
1.21375
1.20854
1.17655
1.36124
1.25029
1.16773
1.10621
1.07494
1.0765
1.13565
1.21043
1.20486
1.17423
1.36967
1.26437
1.18226
1.12091
1.07825
1.07318
1.12099
1.20516
1.20218
1.17276
1.37588
1.2769
1.19462
1.13314
1.08452
1.07166
1.1082
1.19618
1.19979
1.17171
1.3807
1.28773
1.20686
1.14277
1.09172
1.07267
1.09682
1.1839
1.19794
1.17022
1.38481
1.29706
1.21854
1.15271
1.09789
1.07495
1.08717
1.16893
1.19552
1.16858
1.38862
1.30522
1.22871
1.16364
1.10469
1.07712
1.07904
1.15339
1.19247
1.16661
1.39225
1.31262
1.2378
1.17388
1.11419
1.07912
1.07246
1.13842
1.18911
1.1648
1.39575
1.31948
1.24659
1.18304
1.1245
1.0819
1.06911
1.12401
1.18545
1.16324
1.39911
1.32597
1.25528
1.192
1.13378
1.08534
1.06851
1.11012
1.18066
1.16162
1.40234
1.33236
1.26378
1.20101
1.14255
1.08952
1.06892
1.09701
1.17399
1.15961
1.72275
1.69799
1.67955
1.65975
1.63894
1.61817
1.59643
1.57241
1.53771
1.50985
1.6801
1.65471
1.64165
1.62611
1.61028
1.59331
1.57409
1.5502
1.51497
1.4681
1.65897
1.63752
1.6234
1.6074
1.5931
1.5777
1.55936
1.53563
1.50116
1.45132
1.6305
1.61349
1.6013
1.58655
1.57355
1.5587
1.5412
1.51822
1.48545
1.43624
1.60014
1.58923
1.58164
1.56962
1.55825
1.54423
1.5278
1.50563
1.47468
1.42755
1.57788
1.57161
1.56717
1.55822
1.54906
1.53603
1.52028
1.49835
1.4689
1.42452
1.57272
1.56641
1.56207
1.55413
1.54573
1.53299
1.51781
1.49611
1.4677
1.4258
1.57058
1.56557
1.56128
1.5536
1.54524
1.53252
1.51773
1.49626
1.46884
1.42957
1.56804
1.56436
1.56031
1.55306
1.54486
1.53239
1.51794
1.49677
1.47058
1.4342
1.56394
1.56088
1.55696
1.55018
1.54235
1.53049
1.5168
1.49648
1.47158
1.43778
1.55825
1.55512
1.55123
1.54481
1.53734
1.5262
1.51336
1.4944
1.47098
1.43946
1.55201
1.54824
1.54426
1.53804
1.53084
1.5203
1.50822
1.49053
1.46897
1.43992
1.54625
1.54184
1.53771
1.53153
1.52445
1.51436
1.5028
1.48616
1.46626
1.43971
1.54139
1.53647
1.53215
1.52596
1.51893
1.5092
1.49807
1.48238
1.46368
1.43937
1.53729
1.53206
1.52762
1.52145
1.5145
1.50509
1.49434
1.47951
1.46184
1.43933
1.5338
1.52837
1.52386
1.51775
1.51092
1.50184
1.49147
1.47746
1.46073
1.43971
1.53074
1.5252
1.52067
1.51465
1.50798
1.49925
1.48928
1.47604
1.4602
1.44052
1.52785
1.52231
1.51783
1.51195
1.50549
1.49712
1.48755
1.47503
1.46004
1.44159
1.52488
1.51954
1.51521
1.50952
1.5033
1.49531
1.48614
1.47431
1.46009
1.44272
1.52164
1.51678
1.5127
1.50729
1.50135
1.49374
1.48498
1.47378
1.46028
1.44388
1.00105
1.0033
1.00586
1.00875
1.01208
1.01605
1.02017
1.02479
1.4276
1.59529
1.00105
1.0033
1.00586
1.00875
1.01208
1.01605
1.02017
1.02485
1.42688
1.59205
1.00105
1.0033
1.00586
1.00875
1.01208
1.01605
1.02017
1.02492
1.42715
1.58684
1.00105
1.0033
1.00586
1.00875
1.01207
1.01605
1.02017
1.02499
1.42795
1.58287
1.00105
1.0033
1.00586
1.00875
1.01207
1.01605
1.02017
1.02508
1.4288
1.58197
1.00105
1.0033
1.00586
1.00875
1.01207
1.01605
1.02019
1.02509
1.42874
1.58257
1.00105
1.0033
1.00586
1.00875
1.01206
1.01605
1.02021
1.02505
1.42656
1.582
1.00105
1.00331
1.00586
1.00875
1.01206
1.01605
1.02024
1.02493
1.42203
1.57942
1.00105
1.00331
1.00586
1.00876
1.01206
1.01605
1.02027
1.02481
1.41623
1.5742
1.00105
1.00331
1.00586
1.00876
1.01206
1.01604
1.0203
1.02469
1.41023
1.56718
1.00105
1.00331
1.00586
1.00876
1.01206
1.01603
1.02033
1.02459
1.40463
1.55974
1.00105
1.00331
1.00586
1.00876
1.01206
1.01603
1.02036
1.02452
1.39952
1.5529
1.00105
1.00331
1.00586
1.00876
1.01206
1.01601
1.0204
1.02447
1.39476
1.54705
1.00105
1.00331
1.00586
1.00876
1.01206
1.016
1.02043
1.02444
1.39017
1.54221
1.00105
1.00331
1.00585
1.00876
1.01206
1.01599
1.02046
1.02442
1.3856
1.53829
1.00105
1.00331
1.00585
1.00876
1.01206
1.01598
1.0205
1.02441
1.38092
1.5351
1.00105
1.00331
1.00585
1.00876
1.01206
1.01597
1.02053
1.02441
1.37607
1.53253
1.00105
1.00331
1.00585
1.00876
1.01206
1.01597
1.02056
1.02442
1.37098
1.5304
1.00105
1.00331
1.00585
1.00876
1.01206
1.01597
1.0206
1.02442
1.36562
1.52864
1.00105
1.00331
1.00585
1.00876
1.01205
1.01597
1.02063
1.02443
1.35997
1.52717
1.00105
1.00331
1.00585
1.00876
1.01205
1.01597
1.02063
1.02443
1.35996
1.52718
1.00105
1.00331
1.00585
1.00876
1.01206
1.01597
1.0206
1.02442
1.36561
1.52865
1.00105
1.00331
1.00585
1.00876
1.01206
1.01597
1.02056
1.02442
1.37097
1.53041
1.00105
1.00331
1.00585
1.00876
1.01206
1.01597
1.02053
1.02441
1.37606
1.53254
1.00105
1.00331
1.00585
1.00876
1.01206
1.01598
1.0205
1.02441
1.38092
1.53512
1.00105
1.00331
1.00585
1.00876
1.01206
1.01599
1.02046
1.02442
1.38559
1.5383
1.00105
1.00331
1.00586
1.00876
1.01206
1.016
1.02043
1.02444
1.39017
1.54222
1.00105
1.00331
1.00586
1.00876
1.01206
1.01601
1.0204
1.02447
1.39475
1.54707
1.00105
1.00331
1.00586
1.00876
1.01206
1.01603
1.02036
1.02452
1.39952
1.55293
1.00105
1.00331
1.00586
1.00876
1.01206
1.01603
1.02033
1.02459
1.40463
1.55976
1.00105
1.00331
1.00586
1.00876
1.01206
1.01604
1.0203
1.02468
1.41023
1.5672
1.00105
1.00331
1.00586
1.00876
1.01206
1.01605
1.02027
1.02481
1.41623
1.57421
1.00105
1.00331
1.00586
1.00875
1.01206
1.01605
1.02024
1.02493
1.42203
1.57942
1.00105
1.0033
1.00586
1.00875
1.01206
1.01605
1.02021
1.02505
1.42655
1.58199
1.00105
1.0033
1.00586
1.00875
1.01207
1.01605
1.02019
1.02509
1.42873
1.58255
1.00105
1.0033
1.00586
1.00875
1.01207
1.01605
1.02017
1.02508
1.42877
1.58194
1.00105
1.0033
1.00586
1.00875
1.01207
1.01605
1.02017
1.02499
1.42789
1.58282
1.00105
1.0033
1.00586
1.00875
1.01208
1.01605
1.02017
1.02492
1.42706
1.58678
1.00105
1.0033
1.00586
1.00875
1.01208
1.01605
1.02017
1.02484
1.42678
1.59201
1.00105
1.0033
1.00586
1.00875
1.01208
1.01605
1.02017
1.02479
1.42756
1.59528
1.52168
1.51681
1.51273
1.50731
1.50137
1.49375
1.48497
1.47376
1.46023
1.4438
1.52491
1.51957
1.51523
1.50954
1.50331
1.49531
1.48613
1.47428
1.46003
1.44263
1.52787
1.52233
1.51785
1.51196
1.5055
1.49712
1.48753
1.47499
1.45997
1.44149
1.53076
1.52522
1.52069
1.51466
1.50798
1.49924
1.48925
1.47599
1.46012
1.44042
1.53381
1.52838
1.52387
1.51775
1.51092
1.50183
1.49144
1.4774
1.46064
1.4396
1.5373
1.53207
1.52763
1.52146
1.5145
1.50507
1.49429
1.47944
1.46174
1.43921
1.54141
1.53648
1.53216
1.52596
1.51893
1.50918
1.49802
1.48231
1.46358
1.43925
1.54627
1.54186
1.53772
1.53154
1.52444
1.51433
1.50275
1.48609
1.46615
1.43958
1.55203
1.54826
1.54428
1.53804
1.53083
1.52027
1.50816
1.49045
1.46885
1.43979
1.55828
1.55514
1.55124
1.54481
1.53733
1.52616
1.5133
1.49431
1.47086
1.43933
1.56396
1.5609
1.55698
1.55018
1.54233
1.53046
1.51673
1.49639
1.47145
1.43764
1.56805
1.56436
1.56031
1.55305
1.54484
1.53234
1.51787
1.49667
1.47045
1.43407
1.57058
1.56556
1.56127
1.55357
1.5452
1.53247
1.51766
1.49617
1.46872
1.42948
1.57271
1.56638
1.56204
1.55409
1.54568
1.53293
1.51773
1.49602
1.46758
1.42577
1.57786
1.57158
1.56713
1.55818
1.54901
1.53597
1.52021
1.49827
1.4688
1.42454
1.60011
1.5892
1.5816
1.56958
1.55821
1.54419
1.52775
1.50557
1.47458
1.42761
1.63048
1.61346
1.60127
1.58652
1.57352
1.55867
1.54115
1.51816
1.48536
1.43635
1.65896
1.6375
1.62338
1.60739
1.59308
1.57768
1.55933
1.53558
1.50109
1.45147
1.68012
1.65472
1.64165
1.62612
1.61028
1.5933
1.57407
1.55018
1.51494
1.46823
1.7228
1.69802
1.67957
1.65977
1.63895
1.61817
1.59642
1.5724
1.53771
1.50986
1.40223
1.33227
1.26375
1.20107
1.14291
1.08967
1.06867
1.09557
1.17363
1.15958
1.39901
1.32595
1.25533
1.19205
1.13408
1.0853
1.06824
1.10852
1.18034
1.16168
1.39565
1.31952
1.24673
1.18299
1.1247
1.08183
1.06888
1.12243
1.18551
1.16338
1.39214
1.31269
1.23794
1.17377
1.11426
1.07934
1.07218
1.13711
1.18957
1.165
1.38852
1.30528
1.2288
1.16341
1.10456
1.07747
1.079
1.15186
1.19291
1.1669
1.38473
1.29713
1.21863
1.15216
1.09772
1.07537
1.08734
1.16706
1.19567
1.16881
1.38065
1.28794
1.20699
1.14168
1.0917
1.07327
1.09718
1.18202
1.19789
1.17042
1.37586
1.2773
1.19461
1.13168
1.08448
1.07279
1.10883
1.19512
1.19978
1.17164
1.36966
1.26499
1.18181
1.11881
1.07871
1.07465
1.12211
1.20459
1.20253
1.17304
1.3613
1.25089
1.16703
1.10353
1.07595
1.07902
1.13718
1.21003
1.20589
1.17477
1.35046
1.23409
1.14887
1.09148
1.07501
1.08564
1.15318
1.21326
1.20866
1.17729
1.33687
1.21413
1.13025
1.08391
1.07324
1.09368
1.16839
1.21598
1.21103
1.17976
1.32128
1.19239
1.11376
1.07489
1.07166
1.10269
1.1821
1.2194
1.21319
1.18182
1.30431
1.17108
1.09689
1.06332
1.0685
1.11315
1.19461
1.22338
1.21588
1.18406
1.2874
1.1502
1.07856
1.05415
1.06811
1.12621
1.20581
1.22668
1.21786
1.1865
1.27217
1.13248
1.06771
1.04929
1.07115
1.14021
1.21508
1.22897
1.21863
1.18782
1.26058
1.12346
1.0673
1.04844
1.07838
1.15222
1.22024
1.23019
1.21766
1.18771
1.25601
1.12719
1.07014
1.05137
1.088
1.16032
1.22096
1.23063
1.21785
1.18643
1.25751
1.14512
1.08179
1.05882
1.09891
1.16849
1.22245
1.23067
1.21943
1.18652
1.28717
1.18803
1.10565
1.07398
1.11398
1.17924
1.22446
1.2304
1.22084
1.18878
1.44186
1.41401
1.37657
1.33614
1.28892
1.23597
1.17911
1.12344
1.05375
0.97286
1.44174
1.41361
1.37616
1.33559
1.28829
1.2353
1.1785
1.1225
1.05285
0.973442
1.4416
1.41321
1.37608
1.33478
1.28726
1.2342
1.17743
1.12083
1.0513
0.974383
1.44141
1.41263
1.37552
1.33354
1.28575
1.23258
1.17587
1.11839
1.04933
0.975988
1.44119
1.41189
1.37463
1.33194
1.28372
1.23041
1.17376
1.11511
1.04693
0.978374
1.44092
1.41098
1.37341
1.32988
1.28113
1.22764
1.17101
1.11094
1.0445
0.9817
1.44057
1.40987
1.37177
1.32735
1.27794
1.22422
1.16756
1.10582
1.04211
0.986099
1.44012
1.40849
1.36962
1.32425
1.27411
1.22014
1.1633
1.09988
1.04028
0.992128
1.4395
1.40676
1.3669
1.3205
1.26954
1.21533
1.15817
1.09312
1.03857
1.00042
1.43865
1.40458
1.36352
1.31599
1.26423
1.20973
1.15205
1.08603
1.03641
1.01221
1.43752
1.40188
1.35938
1.31067
1.25805
1.20335
1.14482
1.07871
1.03333
1.0278
1.43605
1.3986
1.35452
1.30448
1.25102
1.19602
1.13657
1.07171
1.03135
1.04476
1.43421
1.39466
1.34872
1.29728
1.24308
1.18782
1.12711
1.06587
1.03154
1.06293
1.43194
1.39001
1.34194
1.28909
1.23412
1.17851
1.11685
1.06198
1.03433
1.08193
1.42918
1.38452
1.33412
1.27975
1.22425
1.16801
1.1059
1.05968
1.0419
1.09964
1.42592
1.37811
1.32518
1.26929
1.21319
1.15632
1.09567
1.05617
1.057
1.1154
1.42212
1.3707
1.31494
1.25756
1.20115
1.14306
1.08665
1.05452
1.07738
1.12913
1.41774
1.36225
1.30337
1.24445
1.1877
1.12886
1.08053
1.05583
1.10409
1.13944
1.4127
1.35264
1.29039
1.22992
1.17279
1.1135
1.07595
1.06283
1.13361
1.14773
1.4069
1.34156
1.27586
1.21398
1.15629
1.09924
1.07102
1.07919
1.15908
1.15482
1.407
1.34169
1.27597
1.21391
1.15594
1.0988
1.07123
1.08028
1.15952
1.15492
1.41279
1.35277
1.2905
1.22994
1.17251
1.11301
1.07607
1.06364
1.13461
1.14784
1.41781
1.36238
1.30351
1.24451
1.18756
1.12845
1.08044
1.05612
1.1052
1.13961
1.42216
1.3708
1.31509
1.25768
1.2011
1.14277
1.08652
1.05457
1.07813
1.12946
1.42594
1.37818
1.32531
1.26943
1.21322
1.15619
1.09551
1.05614
1.05739
1.1158
1.42919
1.38457
1.33423
1.27988
1.22434
1.16798
1.1058
1.05963
1.04201
1.10003
1.43193
1.39004
1.34201
1.28921
1.23422
1.17854
1.11684
1.06192
1.03426
1.08214
1.43419
1.39467
1.34877
1.29736
1.24317
1.18788
1.12716
1.06582
1.03149
1.06289
1.43603
1.3986
1.35453
1.30453
1.25109
1.1961
1.13666
1.07173
1.03134
1.04457
1.4375
1.40187
1.35939
1.3107
1.2581
1.20342
1.14492
1.07876
1.03337
1.02752
1.43863
1.40455
1.36351
1.31601
1.26426
1.20978
1.15214
1.08613
1.03644
1.01196
1.43948
1.40673
1.36689
1.3205
1.26956
1.21536
1.15825
1.09322
1.03859
1.00025
1.4401
1.40847
1.3696
1.32424
1.27411
1.22015
1.16334
1.09996
1.04031
0.992006
1.44056
1.40985
1.37174
1.32733
1.27792
1.22422
1.16757
1.10588
1.04215
0.986021
1.44091
1.41096
1.37339
1.32985
1.2811
1.22762
1.171
1.11096
1.04453
0.981655
1.44119
1.41188
1.37462
1.33191
1.28369
1.23038
1.17373
1.11511
1.04694
0.978353
1.44141
1.41262
1.37551
1.33352
1.28572
1.23254
1.17584
1.11836
1.04931
0.975981
1.44161
1.41321
1.37607
1.33476
1.28723
1.23415
1.17739
1.12079
1.05126
0.974381
1.44176
1.41362
1.37615
1.33558
1.28825
1.23526
1.17845
1.12244
1.05278
0.973437
1.44187
1.41401
1.37657
1.33612
1.28888
1.23592
1.17905
1.12338
1.05368
0.972853
1.51722
1.51317
1.50951
1.50453
1.49898
1.49188
1.48363
1.47324
1.46067
1.44556
1.51276
1.50939
1.5061
1.50158
1.49647
1.48994
1.48231
1.47287
1.46141
1.44782
1.50938
1.50627
1.50322
1.49907
1.49432
1.48832
1.48124
1.47263
1.46214
1.4498
1.50669
1.50364
1.50078
1.49693
1.49249
1.48695
1.48038
1.47247
1.46281
1.45155
1.50448
1.50146
1.49875
1.49512
1.49094
1.4858
1.47965
1.47233
1.46341
1.45306
1.50262
1.49966
1.49706
1.49362
1.48964
1.48483
1.47902
1.47221
1.46394
1.45434
1.5011
1.49817
1.49563
1.4923
1.48848
1.48391
1.4784
1.47203
1.46434
1.45539
1.49988
1.49691
1.49439
1.49115
1.48742
1.48303
1.47783
1.47182
1.46461
1.45621
1.49887
1.49589
1.49336
1.49017
1.48653
1.4823
1.47734
1.47159
1.46478
1.45683
1.49805
1.49508
1.49255
1.4894
1.48583
1.48171
1.4769
1.47135
1.46484
1.45727
1.49739
1.4944
1.49185
1.48871
1.48519
1.48114
1.47645
1.47107
1.46481
1.45754
1.49688
1.49385
1.49127
1.48812
1.48461
1.4806
1.47601
1.47076
1.46471
1.45768
1.4965
1.49343
1.4908
1.48764
1.48413
1.48015
1.47562
1.47046
1.46455
1.45773
1.49622
1.49311
1.49044
1.48726
1.48374
1.47976
1.47528
1.47019
1.46439
1.45773
1.49603
1.49287
1.49017
1.48696
1.48343
1.47946
1.475
1.46996
1.46425
1.45772
1.4959
1.4927
1.48997
1.48674
1.4832
1.47923
1.4748
1.4698
1.46417
1.45773
1.49584
1.4926
1.48985
1.4866
1.48306
1.47909
1.47468
1.46971
1.46414
1.45777
1.49585
1.49258
1.48982
1.48656
1.48302
1.47905
1.47465
1.4697
1.46416
1.45785
1.4959
1.49261
1.48983
1.48656
1.48301
1.47904
1.47465
1.46971
1.4642
1.45791
1.49594
1.49267
1.48989
1.48661
1.48306
1.47908
1.4747
1.46976
1.46427
1.45801
1.00105
1.00331
1.00585
1.00876
1.01205
1.01597
1.02066
1.02445
1.35256
1.52575
1.00105
1.00331
1.00585
1.00877
1.01205
1.01597
1.0207
1.02447
1.34346
1.52439
1.00105
1.00331
1.00585
1.00877
1.01205
1.01597
1.02073
1.0245
1.33455
1.52308
1.00105
1.00331
1.00585
1.00877
1.01205
1.01596
1.02076
1.02453
1.32611
1.52174
1.00105
1.00331
1.00585
1.00877
1.01206
1.01595
1.02078
1.02456
1.31834
1.52024
1.00105
1.00331
1.00585
1.00877
1.01206
1.01593
1.0208
1.02459
1.31127
1.51855
1.00105
1.00331
1.00585
1.00877
1.01207
1.01592
1.02081
1.02461
1.30471
1.51681
1.00105
1.00331
1.00585
1.00877
1.01207
1.01591
1.02082
1.02464
1.29849
1.51514
1.00105
1.00331
1.00585
1.00876
1.01208
1.01589
1.02083
1.02466
1.29267
1.51353
1.00105
1.00331
1.00585
1.00876
1.01208
1.01588
1.02083
1.02468
1.28726
1.51202
1.00105
1.00331
1.00585
1.00876
1.01209
1.01587
1.02084
1.0247
1.28227
1.51062
1.00105
1.00331
1.00585
1.00876
1.01209
1.01587
1.02084
1.02471
1.27772
1.50933
1.00105
1.00331
1.00585
1.00875
1.0121
1.01586
1.02085
1.02473
1.27361
1.50819
1.00105
1.00331
1.00585
1.00875
1.0121
1.01585
1.02085
1.02474
1.26997
1.50718
1.00105
1.00331
1.00586
1.00875
1.01211
1.01585
1.02087
1.02475
1.26682
1.50632
1.00105
1.00331
1.00586
1.00875
1.01211
1.01584
1.02088
1.02476
1.26418
1.50561
1.00105
1.00331
1.00586
1.00875
1.01212
1.01584
1.0209
1.02476
1.26204
1.50506
1.00105
1.00331
1.00586
1.00874
1.01212
1.01583
1.02092
1.02477
1.26042
1.50469
1.00105
1.00331
1.00586
1.00874
1.01212
1.01583
1.02092
1.02477
1.25939
1.50448
1.00105
1.00331
1.00586
1.00874
1.01213
1.01583
1.02094
1.02477
1.25896
1.50441
1.00105
1.00331
1.00586
1.00874
1.01213
1.01583
1.02094
1.02477
1.25896
1.50441
1.00105
1.00331
1.00586
1.00874
1.01212
1.01583
1.02092
1.02477
1.25939
1.50448
1.00105
1.00331
1.00586
1.00874
1.01212
1.01583
1.02092
1.02477
1.26042
1.50469
1.00105
1.00331
1.00586
1.00875
1.01212
1.01584
1.0209
1.02476
1.26204
1.50506
1.00105
1.00331
1.00586
1.00875
1.01211
1.01584
1.02088
1.02476
1.26418
1.50561
1.00105
1.00331
1.00586
1.00875
1.01211
1.01585
1.02087
1.02475
1.26682
1.50632
1.00105
1.00331
1.00585
1.00875
1.0121
1.01585
1.02085
1.02474
1.26997
1.50718
1.00105
1.00331
1.00585
1.00875
1.0121
1.01586
1.02085
1.02473
1.27361
1.50819
1.00105
1.00331
1.00585
1.00876
1.01209
1.01587
1.02084
1.02471
1.27772
1.50933
1.00105
1.00331
1.00585
1.00876
1.01209
1.01587
1.02084
1.0247
1.28227
1.51061
1.00105
1.00331
1.00585
1.00876
1.01208
1.01588
1.02083
1.02468
1.28726
1.51202
1.00105
1.00331
1.00585
1.00876
1.01208
1.01589
1.02083
1.02466
1.29267
1.51353
1.00105
1.00331
1.00585
1.00877
1.01207
1.01591
1.02082
1.02464
1.29849
1.51513
1.00105
1.00331
1.00585
1.00877
1.01207
1.01592
1.02081
1.02461
1.30471
1.51681
1.00105
1.00331
1.00585
1.00877
1.01206
1.01593
1.0208
1.02459
1.31127
1.51855
1.00105
1.00331
1.00585
1.00877
1.01206
1.01595
1.02078
1.02456
1.31834
1.52024
1.00105
1.00331
1.00585
1.00877
1.01205
1.01596
1.02076
1.02453
1.32611
1.52174
1.00105
1.00331
1.00585
1.00877
1.01205
1.01597
1.02073
1.0245
1.33454
1.52308
1.00105
1.00331
1.00585
1.00877
1.01205
1.01597
1.0207
1.02447
1.34346
1.52439
1.00105
1.00331
1.00585
1.00876
1.01205
1.01597
1.02066
1.02445
1.35256
1.52576
1.49595
1.49267
1.48989
1.48661
1.48306
1.47909
1.4747
1.46976
1.46426
1.45799
1.4959
1.49261
1.48983
1.48656
1.48301
1.47904
1.47465
1.4697
1.46419
1.4579
1.49586
1.49259
1.48982
1.48656
1.48302
1.47905
1.47465
1.4697
1.46415
1.45784
1.49585
1.4926
1.48985
1.4866
1.48306
1.47909
1.47468
1.46971
1.46413
1.45777
1.4959
1.4927
1.48997
1.48674
1.4832
1.47923
1.47479
1.46979
1.46416
1.45773
1.49603
1.49287
1.49017
1.48696
1.48343
1.47945
1.475
1.46996
1.46425
1.45772
1.49622
1.4931
1.49044
1.48725
1.48373
1.47976
1.47527
1.47018
1.46439
1.45773
1.4965
1.49342
1.4908
1.48764
1.48412
1.48014
1.47561
1.47046
1.46456
1.45774
1.49688
1.49384
1.49126
1.48812
1.4846
1.4806
1.47601
1.47077
1.46472
1.4577
1.49739
1.49439
1.49184
1.48871
1.48518
1.48114
1.47645
1.47108
1.46483
1.45756
1.49804
1.49507
1.49255
1.48939
1.48583
1.48171
1.4769
1.47136
1.46486
1.45729
1.49886
1.49588
1.49336
1.49017
1.48653
1.48231
1.47735
1.47161
1.4648
1.45685
1.49988
1.49691
1.49439
1.49115
1.48743
1.48305
1.47785
1.47184
1.46464
1.45623
1.5011
1.49817
1.49563
1.49231
1.48849
1.48393
1.47843
1.47206
1.46437
1.45542
1.50262
1.49967
1.49707
1.49363
1.48966
1.48485
1.47905
1.47224
1.46397
1.45436
1.50449
1.50147
1.49877
1.49514
1.49096
1.48582
1.47968
1.47236
1.46343
1.45307
1.50671
1.50366
1.5008
1.49695
1.49251
1.48698
1.4804
1.47249
1.46282
1.45155
1.5094
1.50629
1.50324
1.4991
1.49435
1.48834
1.48126
1.47265
1.46214
1.44979
1.51279
1.50942
1.50613
1.50161
1.49649
1.48996
1.48232
1.47288
1.4614
1.44778
1.51725
1.5132
1.50954
1.50455
1.49901
1.49189
1.48364
1.47323
1.46064
1.4455
)
;

boundaryField
{
    inlet
    {
        type            fixedValue;
        value           uniform 1;
    }
    outlet
    {
        type            inletOutlet;
        inletValue      uniform 1;
        value           nonuniform List<scalar> 
100
(
1.15476
1.14769
1.13946
1.1293
1.11564
1.09986
1.08197
1.06273
1.04442
1.02738
1.01182
1.00012
0.991885
0.985902
0.981538
0.978236
0.975864
0.974263
0.973319
0.972735
1.1875
1.18672
1.18648
1.18668
1.18628
1.1853
1.18384
1.18188
1.17925
1.17636
1.17408
1.17263
1.1716
1.1701
1.16841
1.16643
1.16464
1.1631
1.16148
1.15944
1.19246
1.19739
1.20242
1.21163
1.23945
1.27994
1.32635
1.37172
1.40293
1.41083
1.40955
1.39887
1.37403
1.32795
1.27929
1.23932
1.21208
1.19775
1.19242
1.18926
1.15941
1.16153
1.16323
1.16483
1.16672
1.16865
1.17036
1.1715
1.17285
1.17453
1.17711
1.1797
1.18173
1.18383
1.18618
1.18767
1.18782
1.18642
1.18628
1.18827
0.972742
0.973324
0.974265
0.97587
0.978255
0.981581
0.985979
0.992006
1.0003
1.01208
1.02766
1.04461
1.06277
1.08177
1.09948
1.11524
1.12897
1.13929
1.14757
1.15465
)
;
    }
    triangle
    {
        type            zeroGradient;
    }
    top
    {
        type            symmetryPlane;
    }
    bottom
    {
        type            symmetryPlane;
    }
    defaultFaces
    {
        type            empty;
    }
}


// ************************************************************************* //
