/*--------------------------------*- C++ -*----------------------------------*\
  =========                 |
  \\      /  F ield         | OpenFOAM: The Open Source CFD Toolbox
   \\    /   O peration     | Website:  https://openfoam.org
    \\  /    A nd           | Version:  8
     \\/     M anipulation  |
\*---------------------------------------------------------------------------*/
FoamFile
{
    version     2.0;
    format      ascii;
    class       volVectorField;
    location    "2.8";
    object      U;
}
// * * * * * * * * * * * * * * * * * * * * * * * * * * * * * * * * * * * * * //

dimensions      [0 1 -1 0 0 0 0];

internalField   nonuniform List<vector> 
2600
(
(0.712341 0.0707182 0)
(1.30638 0.175734 0)
(1.58827 0.313429 0)
(1.65573 0.374079 0)
(1.57937 0.271166 0)
(1.48955 0.146675 0)
(1.41897 0.0970684 0)
(1.37746 0.0659202 0)
(1.39496 0.0300495 0)
(1.43473 -0.00248996 0)
(0.243723 -0.114433 0)
(0.909075 0.132851 0)
(1.43322 0.294962 0)
(1.61256 0.35415 0)
(1.56454 0.248021 0)
(1.49067 0.128097 0)
(1.42307 0.0901307 0)
(1.37662 0.0643478 0)
(1.3925 0.0381063 0)
(1.4316 -0.00508386 0)
(0.0268366 -0.134691 0)
(0.501176 0.0378899 0)
(1.16643 0.23305 0)
(1.52124 0.318902 0)
(1.53085 0.23365 0)
(1.47716 0.113008 0)
(1.42431 0.0840327 0)
(1.37505 0.0616934 0)
(1.38998 0.0438299 0)
(1.42615 0.00190245 0)
(-0.0570249 -0.164848 0)
(0.200333 -0.00621964 0)
(0.82556 0.158521 0)
(1.34707 0.283871 0)
(1.45359 0.215648 0)
(1.43155 0.107404 0)
(1.41493 0.0925112 0)
(1.3707 0.0540281 0)
(1.38035 0.0331757 0)
(1.41038 0.0122086 0)
(-0.108525 -0.158001 0)
(0.00554132 -0.0552112 0)
(0.47616 0.0852322 0)
(1.07761 0.210234 0)
(1.29828 0.188045 0)
(1.31726 0.0820976 0)
(1.36382 0.0932305 0)
(1.34847 0.0663739 0)
(1.3516 0.0139434 0)
(1.37097 0.00451203 0)
(-0.150206 -0.147289 0)
(-0.145002 -0.0621903 0)
(0.143146 0.047512 0)
(0.70738 0.165686 0)
(1.02944 0.148403 0)
(1.08958 0.0519022 0)
(1.22803 0.0623935 0)
(1.27829 0.071133 0)
(1.28447 0.0410411 0)
(1.29713 -0.00125049 0)
(-0.185995 -0.123829 0)
(-0.268901 -0.063113 0)
(-0.152144 -0.00642601 0)
(0.272344 0.114114 0)
(0.630069 0.144705 0)
(0.743281 0.0666257 0)
(0.980399 0.0588871 0)
(1.13048 0.0481676 0)
(1.16379 0.0386775 0)
(1.1927 0.0121706 0)
(-0.213497 -0.0953111 0)
(-0.370768 -0.0522111 0)
(-0.384879 -0.0165814 0)
(-0.136629 0.0519582 0)
(0.198355 0.0831861 0)
(0.385878 0.0224091 0)
(0.680909 0.0372672 0)
(0.918131 0.0531958 0)
(1.01429 0.0353859 0)
(1.0875 2.62893e-06 0)
(-0.225134 -0.0602199 0)
(-0.442216 -0.0419161 0)
(-0.519616 -0.0212182 0)
(-0.402115 0.030722 0)
(-0.0997056 0.10164 0)
(0.162458 0.0370992 0)
(0.45896 0.0217312 0)
(0.726448 0.0190281 0)
(0.891742 0.0341081 0)
(1.02176 0.0102823 0)
(-0.237971 -0.0272102 0)
(-0.473109 -0.023761 0)
(-0.563241 -0.00326456 0)
(-0.496185 0.041382 0)
(-0.210073 0.0695676 0)
(0.098599 -0.0147526 0)
(0.380907 -0.0147061 0)
(0.633298 0.0341855 0)
(0.836129 0.0144222 0)
(1.00163 0.00166998 0)
(-0.241355 0.00886181 0)
(-0.476857 -0.00150348 0)
(-0.563905 -0.000926735 0)
(-0.50107 0.0296163 0)
(-0.204682 0.0173033 0)
(0.130489 -0.0684998 0)
(0.385877 -0.0465132 0)
(0.619059 0.00885749 0)
(0.830257 -0.00623786 0)
(1.004 -0.00346662 0)
(-0.229786 0.0442334 0)
(-0.451238 0.0197682 0)
(-0.531204 0.00398888 0)
(-0.436167 0.0240838 0)
(-0.0728499 -0.0075778 0)
(0.310263 -0.0718567 0)
(0.484566 -0.0546185 0)
(0.661736 -0.0269907 0)
(0.865644 -0.00827784 0)
(1.03114 0.000815152 0)
(-0.212657 0.079099 0)
(-0.382909 0.0318084 0)
(-0.421399 0.00748196 0)
(-0.220028 0.00123339 0)
(0.245504 -0.0414178 0)
(0.649733 -0.114701 0)
(0.712329 -0.0622454 0)
(0.804193 -0.0180601 0)
(0.974922 -0.0106531 0)
(1.10422 -0.0174363 0)
(-0.18791 0.110548 0)
(-0.280966 0.045628 0)
(-0.21341 -0.00901389 0)
(0.152001 -0.0589473 0)
(0.682693 -0.0892644 0)
(1.0166 -0.0895113 0)
(0.987558 -0.0645022 0)
(1.01147 -0.0594764 0)
(1.13309 -0.0298883 0)
(1.21115 -0.00421183 0)
(-0.154008 0.136366 0)
(-0.157803 0.0486363 0)
(0.0736347 -0.0364896 0)
(0.582741 -0.125436 0)
(1.07484 -0.146171 0)
(1.27172 -0.135463 0)
(1.20233 -0.0846471 0)
(1.1975 -0.0387874 0)
(1.27309 -0.0157685 0)
(1.31454 -0.01127 0)
(-0.113037 0.14927 0)
(-0.00792002 0.0454958 0)
(0.408959 -0.073098 0)
(0.979061 -0.157239 0)
(1.34545 -0.184908 0)
(1.40376 -0.144154 0)
(1.31651 -0.0712368 0)
(1.31294 -0.0237619 0)
(1.35343 -0.0411057 0)
(1.38578 -0.00543094 0)
(-0.0610234 0.156233 0)
(0.190808 0.000128229 0)
(0.772178 -0.130557 0)
(1.28327 -0.227219 0)
(1.50164 -0.230347 0)
(1.45795 -0.152273 0)
(1.36078 -0.0585561 0)
(1.36171 -0.0424104 0)
(1.3874 -0.0355025 0)
(1.4218 -0.00916725 0)
(0.0266857 0.127168 0)
(0.49705 -0.0470274 0)
(1.12502 -0.212791 0)
(1.48491 -0.275547 0)
(1.58014 -0.249873 0)
(1.47952 -0.155336 0)
(1.37355 -0.0781197 0)
(1.37585 -0.0559545 0)
(1.39712 -0.0227745 0)
(1.43567 -0.00912772 0)
(0.25125 0.106944 0)
(0.908024 -0.136796 0)
(1.40609 -0.27362 0)
(1.59402 -0.3099 0)
(1.61211 -0.265705 0)
(1.48427 -0.172302 0)
(1.37582 -0.0907153 0)
(1.37801 -0.0511772 0)
(1.40035 -0.0267021 0)
(1.43904 -0.00454412 0)
(0.734723 -0.0757013 0)
(1.30033 -0.17958 0)
(1.57066 -0.295852 0)
(1.6445 -0.335789 0)
(1.62252 -0.289902 0)
(1.48207 -0.183663 0)
(1.37586 -0.0954396 0)
(1.37891 -0.0505364 0)
(1.40266 -0.03126 0)
(1.44041 -0.00464832 0)
(1.31246 0.00462269 0)
(1.54593 -0.192645 0)
(1.64764 -0.315097 0)
(1.66492 -0.367125 0)
(1.62619 -0.314326 0)
(1.48485 -0.191045 0)
(1.37983 -0.0964933 0)
(1.38224 -0.0533294 0)
(1.40617 -0.036031 0)
(1.4426 -0.00459171 0)
(1.45364 0.123967 0)
(1.64065 -0.18144 0)
(1.68231 -0.321214 0)
(1.67466 -0.38362 0)
(1.63066 -0.341637 0)
(1.49689 -0.20622 0)
(1.39375 -0.0982158 0)
(1.38936 -0.0592536 0)
(1.41163 -0.0346328 0)
(1.4462 -0.00449641 0)
(1.45354 0.161323 0)
(1.65491 -0.168364 0)
(1.68643 -0.314664 0)
(1.66952 -0.389706 0)
(1.63853 -0.368514 0)
(1.5122 -0.227002 0)
(1.40884 -0.107439 0)
(1.39923 -0.0642299 0)
(1.41803 -0.0314218 0)
(1.44986 -0.00367798 0)
(1.40799 0.190385 0)
(1.62909 -0.131142 0)
(1.67887 -0.29886 0)
(1.66263 -0.385307 0)
(1.64417 -0.386928 0)
(1.53314 -0.255379 0)
(1.4302 -0.12189 0)
(1.40924 -0.0659436 0)
(1.42463 -0.0303921 0)
(1.45347 -0.00228359 0)
(1.36838 0.198456 0)
(1.59607 -0.110921 0)
(1.66277 -0.277784 0)
(1.6584 -0.376935 0)
(1.64769 -0.398974 0)
(1.5553 -0.281903 0)
(1.45568 -0.134671 0)
(1.41677 -0.0680274 0)
(1.42964 -0.0322049 0)
(1.45576 -0.000853105 0)
(1.33318 0.202838 0)
(1.56206 -0.076373 0)
(1.64425 -0.26522 0)
(1.65318 -0.370216 0)
(1.64874 -0.406245 0)
(1.57731 -0.307667 0)
(1.48086 -0.149491 0)
(1.41965 -0.0709246 0)
(1.43104 -0.0347971 0)
(1.45687 -0.000272782 0)
(1.3024 0.204583 0)
(1.53301 -0.0494297 0)
(1.6255 -0.249578 0)
(1.64962 -0.36992 0)
(1.64864 -0.409189 0)
(1.59468 -0.331815 0)
(1.50193 -0.165924 0)
(1.41568 -0.0734639 0)
(1.4311 -0.0336697 0)
(1.45706 0.00055011 0)
(1.27856 0.202149 0)
(1.50032 -0.0193208 0)
(1.60863 -0.22363 0)
(1.64571 -0.368188 0)
(1.64488 -0.414858 0)
(1.61075 -0.358992 0)
(1.51847 -0.183862 0)
(1.40926 -0.0774958 0)
(1.43022 -0.0321578 0)
(1.45653 0.0019399 0)
(1.25825 0.200608 0)
(1.47508 -0.00423609 0)
(1.58734 -0.192741 0)
(1.63953 -0.349036 0)
(1.64442 -0.416873 0)
(1.62127 -0.37984 0)
(1.53194 -0.20687 0)
(1.40592 -0.0794388 0)
(1.42956 -0.0321176 0)
(1.45568 0.00285194 0)
(1.24092 0.197921 0)
(1.44953 0.0121684 0)
(1.56745 -0.171857 0)
(1.62798 -0.32221 0)
(1.64394 -0.413722 0)
(1.62824 -0.39427 0)
(1.54473 -0.233196 0)
(1.40971 -0.0856446 0)
(1.42986 -0.0346892 0)
(1.45601 0.00351089 0)
(1.22541 0.19389 0)
(1.42725 0.0250406 0)
(1.54967 -0.157283 0)
(1.61402 -0.301471 0)
(1.64276 -0.404216 0)
(1.62901 -0.400936 0)
(1.55807 -0.259417 0)
(1.41948 -0.0934562 0)
(1.43083 -0.0377875 0)
(1.45818 0.00435434 0)
(1.21195 0.188918 0)
(1.40436 0.0380887 0)
(1.53151 -0.136759 0)
(1.60221 -0.290308 0)
(1.6386 -0.393517 0)
(1.62758 -0.40289 0)
(1.57269 -0.284276 0)
(1.43598 -0.10506 0)
(1.43301 -0.0391271 0)
(1.46213 0.00570329 0)
(1.20031 0.184448 0)
(1.38514 0.0459425 0)
(1.51247 -0.115595 0)
(1.5903 -0.27263 0)
(1.63374 -0.386475 0)
(1.62458 -0.403672 0)
(1.58744 -0.308711 0)
(1.45074 -0.114717 0)
(1.43826 -0.0394391 0)
(1.46801 0.00713275 0)
(1.18996 0.180087 0)
(1.36704 0.0534668 0)
(1.49348 -0.097996 0)
(1.57652 -0.248383 0)
(1.62457 -0.378579 0)
(1.62419 -0.404354 0)
(1.59866 -0.33061 0)
(1.47463 -0.131433 0)
(1.44689 -0.0408897 0)
(1.47366 0.00923413 0)
(1.18071 0.175928 0)
(1.35034 0.0601856 0)
(1.4767 -0.0854387 0)
(1.56063 -0.22685 0)
(1.61515 -0.359525 0)
(1.62456 -0.405105 0)
(1.6083 -0.349536 0)
(1.49394 -0.148767 0)
(1.45613 -0.0442014 0)
(1.48002 0.0108781 0)
(1.1723 0.171619 0)
(1.33458 0.0658576 0)
(1.46005 -0.0726269 0)
(1.54585 -0.211309 0)
(1.60319 -0.336386 0)
(1.62425 -0.403237 0)
(1.61583 -0.36218 0)
(1.51821 -0.172001 0)
(1.46484 -0.0490507 0)
(1.48436 0.0118669 0)
(1.16453 0.167136 0)
(1.31986 0.0696558 0)
(1.44365 -0.0607694 0)
(1.53187 -0.196876 0)
(1.59113 -0.317935 0)
(1.62284 -0.395732 0)
(1.62185 -0.370323 0)
(1.54008 -0.195408 0)
(1.47152 -0.0538684 0)
(1.48602 0.0125992 0)
(1.15725 0.162553 0)
(1.30602 0.0721167 0)
(1.42737 -0.0500781 0)
(1.51729 -0.179996 0)
(1.58046 -0.302839 0)
(1.62107 -0.387971 0)
(1.62617 -0.375285 0)
(1.55865 -0.219257 0)
(1.47734 -0.0589151 0)
(1.48691 0.01404 0)
(1.15029 0.157947 0)
(1.29278 0.0740274 0)
(1.41219 -0.0411051 0)
(1.50302 -0.1647 0)
(1.56954 -0.284531 0)
(1.62043 -0.382751 0)
(1.62723 -0.376207 0)
(1.57482 -0.242494 0)
(1.48489 -0.0654255 0)
(1.49004 0.014916 0)
(1.14361 0.153467 0)
(1.28007 0.0760081 0)
(1.39766 -0.0321861 0)
(1.48946 -0.151025 0)
(1.55851 -0.266613 0)
(1.61647 -0.36897 0)
(1.62738 -0.376944 0)
(1.58918 -0.264421 0)
(1.49772 -0.073304 0)
(1.49648 0.0155509 0)
(0.381373 0.104828 0)
(0.466507 0.149737 0)
(0.515486 0.216778 0)
(0.567909 0.265804 0)
(0.612338 0.306313 0)
(0.655552 0.338473 0)
(0.700915 0.368088 0)
(0.756948 0.39663 0)
(0.833815 0.434335 0)
(0.975303 0.471563 0)
(0.413715 0.139752 0)
(0.478318 0.168419 0)
(0.511884 0.22104 0)
(0.559651 0.265085 0)
(0.603024 0.305003 0)
(0.648676 0.337004 0)
(0.697286 0.367108 0)
(0.756519 0.396485 0)
(0.837378 0.435139 0)
(0.974315 0.461702 0)
(0.470805 0.128444 0)
(0.519885 0.151011 0)
(0.537597 0.194464 0)
(0.574916 0.235361 0)
(0.611508 0.277054 0)
(0.657189 0.311793 0)
(0.707955 0.345568 0)
(0.770008 0.376142 0)
(0.85464 0.414462 0)
(0.997355 0.427839 0)
(0.525216 0.132575 0)
(0.561502 0.160137 0)
(0.571211 0.199925 0)
(0.603994 0.230541 0)
(0.632771 0.264131 0)
(0.671789 0.293555 0)
(0.716345 0.325441 0)
(0.775496 0.354262 0)
(0.860166 0.389438 0)
(1.0025 0.394459 0)
(0.570798 0.1355 0)
(0.59743 0.159123 0)
(0.604939 0.194105 0)
(0.635108 0.222371 0)
(0.658827 0.255252 0)
(0.695476 0.282802 0)
(0.73782 0.312833 0)
(0.796548 0.338083 0)
(0.881683 0.370092 0)
(1.01996 0.367883 0)
(0.61312 0.137935 0)
(0.632806 0.15926 0)
(0.638361 0.191242 0)
(0.66483 0.21754 0)
(0.684924 0.248056 0)
(0.719962 0.272758 0)
(0.760429 0.301089 0)
(0.817861 0.322891 0)
(0.899769 0.350142 0)
(1.03047 0.345427 0)
(0.656344 0.146159 0)
(0.67052 0.165489 0)
(0.673531 0.192414 0)
(0.695071 0.214697 0)
(0.711735 0.241615 0)
(0.744199 0.262823 0)
(0.781609 0.288419 0)
(0.836413 0.306886 0)
(0.913373 0.330003 0)
(1.03549 0.324598 0)
(0.695829 0.157813 0)
(0.704875 0.174394 0)
(0.706531 0.196753 0)
(0.724591 0.215548 0)
(0.739894 0.239181 0)
(0.770736 0.257003 0)
(0.806138 0.280019 0)
(0.85868 0.295145 0)
(0.930704 0.312884 0)
(1.04139 0.306157 0)
(0.727203 0.167777 0)
(0.732905 0.18077 0)
(0.734876 0.198426 0)
(0.750734 0.213486 0)
(0.765331 0.23378 0)
(0.794408 0.248885 0)
(0.827838 0.269429 0)
(0.878211 0.28266 0)
(0.945212 0.296497 0)
(1.04462 0.290039 0)
(0.749096 0.175044 0)
(0.754748 0.185137 0)
(0.758568 0.199438 0)
(0.773778 0.211916 0)
(0.788589 0.229521 0)
(0.816227 0.24209 0)
(0.848035 0.259913 0)
(0.895404 0.270343 0)
(0.957421 0.281226 0)
(1.04762 0.275171 0)
(0.766607 0.177713 0)
(0.77405 0.185556 0)
(0.77943 0.197628 0)
(0.794342 0.208308 0)
(0.809344 0.223774 0)
(0.835681 0.234606 0)
(0.866028 0.250217 0)
(0.910823 0.259232 0)
(0.967337 0.266574 0)
(1.04829 0.260956 0)
(0.783412 0.178549 0)
(0.792903 0.184852 0)
(0.799183 0.195428 0)
(0.813808 0.20469 0)
(0.828839 0.218313 0)
(0.853853 0.227666 0)
(0.882775 0.241281 0)
(0.924728 0.248852 0)
(0.977372 0.255065 0)
(1.05051 0.248893 0)
(0.799535 0.177709 0)
(0.810575 0.182788 0)
(0.817428 0.192143 0)
(0.831748 0.200189 0)
(0.846641 0.21223 0)
(0.870342 0.220451 0)
(0.897823 0.232359 0)
(0.937121 0.239035 0)
(0.985949 0.243613 0)
(1.05224 0.237851 0)
(0.813726 0.175077 0)
(0.825894 0.179341 0)
(0.833339 0.187919 0)
(0.847507 0.195117 0)
(0.862306 0.205917 0)
(0.884851 0.21326 0)
(0.910996 0.223674 0)
(0.947796 0.229592 0)
(0.992953 0.232981 0)
(1.05308 0.227702 0)
(0.825735 0.170732 0)
(0.838637 0.174448 0)
(0.846601 0.182464 0)
(0.860654 0.189059 0)
(0.875352 0.198889 0)
(0.896915 0.205653 0)
(0.921869 0.214888 0)
(0.956395 0.220278 0)
(0.998325 0.222905 0)
(1.05333 0.218371 0)
(0.836102 0.165234 0)
(0.849478 0.168627 0)
(0.857822 0.17624 0)
(0.871715 0.182434 0)
(0.88623 0.191488 0)
(0.906874 0.197856 0)
(0.930706 0.206138 0)
(0.963149 0.211173 0)
(1.00228 0.213295 0)
(1.053 0.209493 0)
(0.845652 0.159057 0)
(0.85927 0.162325 0)
(0.867797 0.16965 0)
(0.88142 0.175576 0)
(0.895614 0.183977 0)
(0.915319 0.19006 0)
(0.938043 0.19755 0)
(0.968551 0.202342 0)
(1.00517 0.204143 0)
(1.05209 0.201031 0)
(0.854782 0.152183 0)
(0.868317 0.155553 0)
(0.876801 0.162726 0)
(0.890044 0.16853 0)
(0.903807 0.176423 0)
(0.922575 0.182335 0)
(0.94424 0.189186 0)
(0.972982 0.193801 0)
(1.00745 0.195504 0)
(1.0511 0.193096 0)
(0.864516 0.145329 0)
(0.877371 0.148942 0)
(0.885502 0.155959 0)
(0.898143 0.161635 0)
(0.911272 0.169038 0)
(0.928978 0.174774 0)
(0.949498 0.181052 0)
(0.976447 0.185469 0)
(1.00888 0.187138 0)
(1.04988 0.185535 0)
(0.874341 0.138412 0)
(0.885824 0.142474 0)
(0.893565 0.149455 0)
(0.905637 0.155092 0)
(0.918217 0.162104 0)
(0.934991 0.1677 0)
(0.954479 0.173475 0)
(0.979749 0.177731 0)
(1.01007 0.179235 0)
(1.04843 0.178349 0)
(1.98148 -2.91496e-07 0)
(1.97049 9.66884e-07 0)
(1.95829 -2.84118e-06 0)
(1.94477 5.4784e-06 0)
(1.92967 -1.34893e-05 0)
(1.91218 2.71371e-05 0)
(1.89376 -1.61571e-05 0)
(1.8817 -3.25829e-05 0)
(0.963243 0.00709445 0)
(0.446041 0.0170249 0)
(1.98148 -8.3225e-07 0)
(1.97049 2.74555e-06 0)
(1.95829 -7.92233e-06 0)
(1.94477 1.53141e-05 0)
(1.92967 -3.62192e-05 0)
(1.91219 7.77798e-05 0)
(1.89379 -4.38436e-05 0)
(1.88163 -0.000142037 0)
(0.971171 0.0194158 0)
(0.47635 0.0423095 0)
(1.98148 -1.3698e-06 0)
(1.97049 4.52761e-06 0)
(1.95829 -1.29867e-05 0)
(1.94477 2.51589e-05 0)
(1.92968 -5.91641e-05 0)
(1.9122 0.000128022 0)
(1.89381 -8.19244e-05 0)
(1.88158 -0.000242282 0)
(0.978451 0.0304592 0)
(0.515454 0.064425 0)
(1.98148 -1.89504e-06 0)
(1.97049 6.26954e-06 0)
(1.9583 -1.78135e-05 0)
(1.94476 3.46054e-05 0)
(1.92969 -8.03271e-05 0)
(1.91221 0.000176728 0)
(1.89386 -0.000114888 0)
(1.88167 -0.00034398 0)
(0.985297 0.0415802 0)
(0.55745 0.0811258 0)
(1.98148 -2.40069e-06 0)
(1.97049 7.95442e-06 0)
(1.9583 -2.23385e-05 0)
(1.94476 4.34756e-05 0)
(1.9297 -9.91242e-05 0)
(1.91223 0.000222947 0)
(1.8939 -0.000167494 0)
(1.8818 -0.00020576 0)
(0.995426 0.0517412 0)
(0.59899 0.095097 0)
(1.98148 -2.88123e-06 0)
(1.97049 9.56298e-06 0)
(1.9583 -2.65e-05 0)
(1.94476 5.16376e-05 0)
(1.92972 -0.000114825 0)
(1.91225 0.000263884 0)
(1.89389 -0.000227641 0)
(1.88185 -0.000420065 0)
(1.00724 0.0598691 0)
(0.63804 0.106618 0)
(1.98148 -3.33165e-06 0)
(1.97049 1.10791e-05 0)
(1.9583 -3.02683e-05 0)
(1.94476 5.90622e-05 0)
(1.92973 -0.000127523 0)
(1.9123 0.00029953 0)
(1.89383 -0.00028387 0)
(1.88173 -0.000586655 0)
(1.01856 0.0677907 0)
(0.672446 0.115899 0)
(1.98148 -3.74765e-06 0)
(1.97049 1.24886e-05 0)
(1.95831 -3.36355e-05 0)
(1.94476 6.58081e-05 0)
(1.92973 -0.000137651 0)
(1.91235 0.000328318 0)
(1.89374 -0.000332025 0)
(1.88135 -0.00067856 0)
(1.03005 0.0740914 0)
(0.70324 0.122335 0)
(1.98148 -4.12576e-06 0)
(1.97049 1.3779e-05 0)
(1.95831 -3.65987e-05 0)
(1.94476 7.19536e-05 0)
(1.92974 -0.000146235 0)
(1.91242 0.000351542 0)
(1.89362 -0.000363106 0)
(1.88079 -0.000904213 0)
(1.0417 0.0796049 0)
(0.730978 0.126981 0)
(1.98148 -4.46341e-06 0)
(1.97049 1.49401e-05 0)
(1.95831 -3.91552e-05 0)
(1.94476 7.75261e-05 0)
(1.92974 -0.000153954 0)
(1.91249 0.000373256 0)
(1.89347 -0.000376777 0)
(1.88012 -0.00101867 0)
(1.05426 0.0843571 0)
(0.755565 0.130276 0)
(1.98148 -4.75898e-06 0)
(1.97049 1.5965e-05 0)
(1.95831 -4.13055e-05 0)
(1.94476 8.25054e-05 0)
(1.92974 -0.000160717 0)
(1.91256 0.000392531 0)
(1.89333 -0.000374544 0)
(1.87949 -0.00114957 0)
(1.06792 0.08845 0)
(0.776043 0.132999 0)
(1.98148 -5.01174e-06 0)
(1.97049 1.68481e-05 0)
(1.95831 -4.30485e-05 0)
(1.94476 8.68237e-05 0)
(1.92973 -0.000165769 0)
(1.91263 0.000408838 0)
(1.89318 -0.000357091 0)
(1.87896 -0.00124309 0)
(1.08227 0.091789 0)
(0.791968 0.134985 0)
(1.98148 -5.22187e-06 0)
(1.97049 1.75869e-05 0)
(1.95832 -4.43953e-05 0)
(1.94477 9.05233e-05 0)
(1.92973 -0.000170894 0)
(1.9127 0.000422748 0)
(1.89304 -0.000328364 0)
(1.87857 -0.00130873 0)
(1.09657 0.094511 0)
(0.804006 0.136166 0)
(1.98148 -5.39031e-06 0)
(1.97049 1.81787e-05 0)
(1.95832 -4.53302e-05 0)
(1.94477 9.33923e-05 0)
(1.92973 -0.000174077 0)
(1.91276 0.000435174 0)
(1.8929 -0.000292213 0)
(1.87827 -0.00135487 0)
(1.11033 0.0966837 0)
(0.813446 0.136531 0)
(1.98148 -5.51882e-06 0)
(1.97049 1.86222e-05 0)
(1.95832 -4.5824e-05 0)
(1.94477 9.52633e-05 0)
(1.92972 -0.000174656 0)
(1.9128 0.000442495 0)
(1.89278 -0.0002509 0)
(1.87806 -0.00138595 0)
(1.12345 0.0984777 0)
(0.821371 0.13622 0)
(1.98148 -5.60991e-06 0)
(1.97048 1.8921e-05 0)
(1.95832 -4.58691e-05 0)
(1.94477 9.61373e-05 0)
(1.92972 -0.000172054 0)
(1.91283 0.000436482 0)
(1.89266 -0.000209951 0)
(1.87789 -0.00140551 0)
(1.13601 0.0999661 0)
(0.828517 0.135289 0)
(1.98148 -5.66606e-06 0)
(1.97048 1.90809e-05 0)
(1.95832 -4.54847e-05 0)
(1.94477 9.59012e-05 0)
(1.92971 -0.00016602 0)
(1.91285 0.00041695 0)
(1.89256 -0.000166966 0)
(1.87775 -0.00141579 0)
(1.14825 0.10114 0)
(0.835443 0.133987 0)
(1.98148 -5.68878e-06 0)
(1.97048 1.91139e-05 0)
(1.95832 -4.47251e-05 0)
(1.94477 9.44716e-05 0)
(1.92971 -0.000157251 0)
(1.91285 0.000384955 0)
(1.89247 -0.000119391 0)
(1.87762 -0.00141232 0)
(1.16044 0.102093 0)
(0.842463 0.132006 0)
(1.98148 -5.67538e-06 0)
(1.97048 1.9009e-05 0)
(1.95832 -4.36063e-05 0)
(1.94477 9.19101e-05 0)
(1.9297 -0.00014607 0)
(1.91283 0.000343049 0)
(1.89239 -6.71288e-05 0)
(1.87751 -0.0013949 0)
(1.17287 0.102666 0)
(0.850179 0.130059 0)
(1.98148 -5.63373e-06 0)
(1.97048 1.87841e-05 0)
(1.95832 -4.21951e-05 0)
(1.94476 8.83135e-05 0)
(1.9297 -0.000132897 0)
(1.91281 0.000291318 0)
(1.89232 -1.25845e-05 0)
(1.8774 -0.00137123 0)
(1.18565 0.103069 0)
(0.858086 0.127205 0)
(1.98148 5.63365e-06 0)
(1.97048 -1.87839e-05 0)
(1.95832 4.21952e-05 0)
(1.94476 -8.83138e-05 0)
(1.9297 0.000132897 0)
(1.91281 -0.000291268 0)
(1.89232 1.24158e-05 0)
(1.8774 0.00137125 0)
(1.18566 -0.103058 0)
(0.858055 -0.1272 0)
(1.98148 5.67529e-06 0)
(1.97048 -1.90087e-05 0)
(1.95832 4.36063e-05 0)
(1.94477 -9.191e-05 0)
(1.9297 0.00014607 0)
(1.91283 -0.000343002 0)
(1.89239 6.69296e-05 0)
(1.87751 0.00139494 0)
(1.17289 -0.102656 0)
(0.850152 -0.130061 0)
(1.98148 5.68867e-06 0)
(1.97048 -1.91136e-05 0)
(1.95832 4.47249e-05 0)
(1.94477 -9.44714e-05 0)
(1.92971 0.000157251 0)
(1.91285 -0.000384909 0)
(1.89247 0.000119179 0)
(1.87762 0.00141238 0)
(1.16046 -0.102086 0)
(0.842442 -0.132002 0)
(1.98148 5.66593e-06 0)
(1.97048 -1.90805e-05 0)
(1.95832 4.54844e-05 0)
(1.94477 -9.59007e-05 0)
(1.92971 0.000166021 0)
(1.91285 -0.000416902 0)
(1.89256 0.000166732 0)
(1.87775 0.0014159 0)
(1.14827 -0.101133 0)
(0.83543 -0.133985 0)
(1.98148 5.60975e-06 0)
(1.97048 -1.89205e-05 0)
(1.95832 4.58686e-05 0)
(1.94477 -9.61368e-05 0)
(1.92972 0.000172055 0)
(1.91283 -0.000436443 0)
(1.89266 0.000209706 0)
(1.87789 0.00140567 0)
(1.13602 -0.0999615 0)
(0.828508 -0.135283 0)
(1.98148 5.51865e-06 0)
(1.97049 -1.86216e-05 0)
(1.95832 4.58234e-05 0)
(1.94477 -9.5263e-05 0)
(1.92972 0.000174658 0)
(1.9128 -0.000442501 0)
(1.89278 0.000250622 0)
(1.87806 0.00138615 0)
(1.12346 -0.0984725 0)
(0.821366 -0.136216 0)
(1.98148 5.39011e-06 0)
(1.97049 -1.81781e-05 0)
(1.95832 4.53295e-05 0)
(1.94477 -9.33921e-05 0)
(1.92973 0.000174079 0)
(1.91276 -0.000435185 0)
(1.8929 0.000291946 0)
(1.87827 0.00135514 0)
(1.11034 -0.0966797 0)
(0.813441 -0.136526 0)
(1.98148 5.22166e-06 0)
(1.97049 -1.75863e-05 0)
(1.95832 4.43946e-05 0)
(1.94477 -9.05235e-05 0)
(1.92973 0.000170897 0)
(1.9127 -0.000422761 0)
(1.89304 0.000328096 0)
(1.87857 0.0013091 0)
(1.09657 -0.0945052 0)
(0.804001 -0.136163 0)
(1.98148 5.01151e-06 0)
(1.97049 -1.68475e-05 0)
(1.95831 4.30478e-05 0)
(1.94476 -8.68244e-05 0)
(1.92973 0.000165771 0)
(1.91263 -0.000408861 0)
(1.89318 0.00035683 0)
(1.87896 0.00124349 0)
(1.08227 -0.0917834 0)
(0.791957 -0.134979 0)
(1.98148 4.75874e-06 0)
(1.97049 -1.59644e-05 0)
(1.95831 4.13049e-05 0)
(1.94476 -8.25068e-05 0)
(1.92974 0.000160721 0)
(1.91256 -0.000392573 0)
(1.89333 0.000374343 0)
(1.87949 0.00114997 0)
(1.06791 -0.0884419 0)
(0.77602 -0.132996 0)
(1.98148 4.46316e-06 0)
(1.97049 -1.49396e-05 0)
(1.95831 3.91548e-05 0)
(1.94476 -7.75285e-05 0)
(1.92974 0.000153959 0)
(1.91249 -0.000373313 0)
(1.89347 0.000376653 0)
(1.88012 0.0010189 0)
(1.05425 -0.0843485 0)
(0.75553 -0.130268 0)
(1.98148 4.12551e-06 0)
(1.97049 -1.37784e-05 0)
(1.95831 3.65986e-05 0)
(1.94476 -7.19572e-05 0)
(1.92974 0.000146243 0)
(1.91242 -0.000351625 0)
(1.89362 0.000363014 0)
(1.88079 0.000906319 0)
(1.0417 -0.0795921 0)
(0.730934 -0.12698 0)
(1.98148 3.74739e-06 0)
(1.97049 -1.24881e-05 0)
(1.95831 3.36357e-05 0)
(1.94476 -6.58129e-05 0)
(1.92973 0.000137659 0)
(1.91235 -0.000328396 0)
(1.89374 0.0003319 0)
(1.88135 0.000681898 0)
(1.03005 -0.0740807 0)
(0.703194 -0.12232 0)
(1.98148 3.3314e-06 0)
(1.97049 -1.10787e-05 0)
(1.9583 3.02689e-05 0)
(1.94476 -5.90681e-05 0)
(1.92973 0.000127535 0)
(1.9123 -0.00029963 0)
(1.89383 0.000283614 0)
(1.88173 0.000591292 0)
(1.01857 -0.0677781 0)
(0.6724 -0.115902 0)
(1.98148 2.88098e-06 0)
(1.97049 -9.56269e-06 0)
(1.9583 2.65012e-05 0)
(1.94476 -5.16462e-05 0)
(1.92972 0.00011485 0)
(1.91226 -0.000264058 0)
(1.89388 0.000227608 0)
(1.88185 0.000422622 0)
(1.00725 -0.0598609 0)
(0.638022 -0.106587 0)
(1.98148 2.40045e-06 0)
(1.97049 -7.95421e-06 0)
(1.9583 2.23401e-05 0)
(1.94476 -4.3485e-05 0)
(1.9297 9.91518e-05 0)
(1.91223 -0.000223184 0)
(1.8939 0.000168479 0)
(1.8818 0.000203101 0)
(0.995453 -0.0517453 0)
(0.598991 -0.0951179 0)
(1.98148 1.8948e-06 0)
(1.97049 -6.26942e-06 0)
(1.9583 1.78159e-05 0)
(1.94476 -3.46194e-05 0)
(1.92969 8.03962e-05 0)
(1.91221 -0.000177148 0)
(1.89386 0.00011714 0)
(1.88169 0.00032752 0)
(0.985373 -0.0415746 0)
(0.557526 -0.0810657 0)
(1.98148 1.36958e-06 0)
(1.97049 -4.52754e-06 0)
(1.95829 1.29892e-05 0)
(1.94477 -2.51697e-05 0)
(1.92968 5.91939e-05 0)
(1.9122 -0.000128119 0)
(1.89382 8.35834e-05 0)
(1.88164 0.000229828 0)
(0.978512 -0.0305041 0)
(0.515556 -0.0644438 0)
(1.98148 8.32033e-07 0)
(1.97049 -2.74555e-06 0)
(1.95829 7.92541e-06 0)
(1.94477 -1.53291e-05 0)
(1.92967 3.63066e-05 0)
(1.91219 -7.81329e-05 0)
(1.89379 4.3981e-05 0)
(1.88169 0.00015103 0)
(0.971417 -0.0194222 0)
(0.476544 -0.0422229 0)
(1.98148 2.91281e-07 0)
(1.97049 -9.66899e-07 0)
(1.95829 2.84412e-06 0)
(1.94477 -5.48885e-06 0)
(1.92967 1.35145e-05 0)
(1.91218 -2.69944e-05 0)
(1.89377 1.47114e-05 0)
(1.88173 1.84696e-05 0)
(0.96336 -0.00721834 0)
(0.446124 -0.0169918 0)
(0.874283 -0.138457 0)
(0.885786 -0.142513 0)
(0.893538 -0.149494 0)
(0.905618 -0.155129 0)
(0.918211 -0.162136 0)
(0.934999 -0.16773 0)
(0.954511 -0.17349 0)
(0.979811 -0.177732 0)
(1.01017 -0.179192 0)
(1.04857 -0.178253 0)
(0.86446 -0.145377 0)
(0.877321 -0.148982 0)
(0.885459 -0.155994 0)
(0.898106 -0.161667 0)
(0.91125 -0.169063 0)
(0.928972 -0.174794 0)
(0.949517 -0.18105 0)
(0.976496 -0.185454 0)
(1.00899 -0.187076 0)
(1.05002 -0.185422 0)
(0.854732 -0.152225 0)
(0.868265 -0.15559 0)
(0.876753 -0.16276 0)
(0.890002 -0.168559 0)
(0.903781 -0.176443 0)
(0.922568 -0.182348 0)
(0.944267 -0.189172 0)
(0.973048 -0.193774 0)
(1.00758 -0.195436 0)
(1.05126 -0.192978 0)
(0.845617 -0.159095 0)
(0.859228 -0.16236 0)
(0.867755 -0.169681 0)
(0.881383 -0.1756 0)
(0.895592 -0.183992 0)
(0.915319 -0.190066 0)
(0.938081 -0.197527 0)
(0.968636 -0.202304 0)
(1.00531 -0.204058 0)
(1.05227 -0.200906 0)
(0.836071 -0.16526 0)
(0.849439 -0.168652 0)
(0.857784 -0.176263 0)
(0.871682 -0.182451 0)
(0.886214 -0.191497 0)
(0.90688 -0.197857 0)
(0.930755 -0.206111 0)
(0.963248 -0.211124 0)
(1.00243 -0.213206 0)
(1.0532 -0.209371 0)
(0.82571 -0.170754 0)
(0.838607 -0.174471 0)
(0.846573 -0.182485 0)
(0.86063 -0.189075 0)
(0.875346 -0.198896 0)
(0.896932 -0.205652 0)
(0.921932 -0.214859 0)
(0.956512 -0.22023 0)
(0.998497 -0.222815 0)
(1.05353 -0.218251 0)
(0.813701 -0.17509 0)
(0.825867 -0.179355 0)
(0.833314 -0.187931 0)
(0.847488 -0.195126 0)
(0.862305 -0.205919 0)
(0.884877 -0.213255 0)
(0.911071 -0.223642 0)
(0.947925 -0.229548 0)
(0.99314 -0.232895 0)
(1.0533 -0.227587 0)
(0.799508 -0.177721 0)
(0.810549 -0.182798 0)
(0.817406 -0.192152 0)
(0.831736 -0.200194 0)
(0.846651 -0.21223 0)
(0.870381 -0.220444 0)
(0.897912 -0.232327 0)
(0.937266 -0.239001 0)
(0.986156 -0.243537 0)
(1.05247 -0.237745 0)
(0.783383 -0.178552 0)
(0.792877 -0.184852 0)
(0.799164 -0.195428 0)
(0.813804 -0.204687 0)
(0.828859 -0.218307 0)
(0.853905 -0.227657 0)
(0.882879 -0.241251 0)
(0.924888 -0.248825 0)
(0.977597 -0.255002 0)
(1.05077 -0.248804 0)
(0.766578 -0.177722 0)
(0.774027 -0.185562 0)
(0.779418 -0.197633 0)
(0.794348 -0.208308 0)
(0.809376 -0.22377 0)
(0.835745 -0.234603 0)
(0.866148 -0.250196 0)
(0.910998 -0.259213 0)
(0.967588 -0.266537 0)
(1.04855 -0.260875 0)
(0.749065 -0.175045 0)
(0.754727 -0.185135 0)
(0.758557 -0.199437 0)
(0.773788 -0.211914 0)
(0.788627 -0.229519 0)
(0.816299 -0.242091 0)
(0.848165 -0.259901 0)
(0.895593 -0.270342 0)
(0.957682 -0.281206 0)
(1.04794 -0.275125 0)
(0.727157 -0.167788 0)
(0.732877 -0.180781 0)
(0.734862 -0.198439 0)
(0.750743 -0.213492 0)
(0.765372 -0.233783 0)
(0.794484 -0.248894 0)
(0.827975 -0.269434 0)
(0.878405 -0.282676 0)
(0.945484 -0.296501 0)
(1.04491 -0.290039 0)
(0.695781 -0.157796 0)
(0.704846 -0.174382 0)
(0.706514 -0.19675 0)
(0.724596 -0.21555 0)
(0.739933 -0.239187 0)
(0.770809 -0.257017 0)
(0.80627 -0.280027 0)
(0.858871 -0.295176 0)
(0.930965 -0.312905 0)
(1.04167 -0.306189 0)
(0.656292 -0.146177 0)
(0.670486 -0.165502 0)
(0.673512 -0.192426 0)
(0.695071 -0.214703 0)
(0.711768 -0.241619 0)
(0.744264 -0.26284 0)
(0.781734 -0.288438 0)
(0.836601 -0.306938 0)
(0.913645 -0.330061 0)
(1.03567 -0.324688 0)
(0.613091 -0.1379 0)
(0.632788 -0.159228 0)
(0.638347 -0.191222 0)
(0.66483 -0.217535 0)
(0.684956 -0.248064 0)
(0.72003 -0.272791 0)
(0.760558 -0.30113 0)
(0.818052 -0.32298 0)
(0.900021 -0.350227 0)
(1.03057 -0.345499 0)
(0.570797 -0.135538 0)
(0.597441 -0.159162 0)
(0.604963 -0.194145 0)
(0.635145 -0.222417 0)
(0.658892 -0.255302 0)
(0.695565 -0.282866 0)
(0.737956 -0.312899 0)
(0.796734 -0.338196 0)
(0.881892 -0.370194 0)
(1.02007 -0.368088 0)
(0.525258 -0.132568 0)
(0.561549 -0.160149 0)
(0.571264 -0.199952 0)
(0.604053 -0.230583 0)
(0.632847 -0.264179 0)
(0.67188 -0.293619 0)
(0.716471 -0.32551 0)
(0.775656 -0.354375 0)
(0.860356 -0.389584 0)
(1.00248 -0.394747 0)
(0.470867 -0.128495 0)
(0.51995 -0.151053 0)
(0.537665 -0.194503 0)
(0.57499 -0.23541 0)
(0.6116 -0.27711 0)
(0.6573 -0.311863 0)
(0.708096 -0.345639 0)
(0.770172 -0.376252 0)
(0.854789 -0.414622 0)
(0.997291 -0.428221 0)
(0.413768 -0.139768 0)
(0.478381 -0.168434 0)
(0.511947 -0.221067 0)
(0.559726 -0.265129 0)
(0.603116 -0.305057 0)
(0.648785 -0.337071 0)
(0.697421 -0.36718 0)
(0.756673 -0.396591 0)
(0.837499 -0.435305 0)
(0.974169 -0.462111 0)
(0.381392 -0.104784 0)
(0.466559 -0.149721 0)
(0.515552 -0.216791 0)
(0.56799 -0.265838 0)
(0.612435 -0.30636 0)
(0.655664 -0.338533 0)
(0.701049 -0.368151 0)
(0.757099 -0.396724 0)
(0.833856 -0.4344 0)
(0.975061 -0.471895 0)
(1.14377 -0.153322 0)
(1.28029 -0.0758855 0)
(1.39791 0.0323026 0)
(1.48921 0.151092 0)
(1.55763 0.266077 0)
(1.61622 0.367775 0)
(1.62779 0.377496 0)
(1.59072 0.267346 0)
(1.49757 0.0754171 0)
(1.49588 -0.0155347 0)
(1.15045 -0.157815 0)
(1.29293 -0.0741138 0)
(1.41246 0.0410725 0)
(1.50291 0.165043 0)
(1.56854 0.284116 0)
(1.62038 0.381825 0)
(1.62773 0.376697 0)
(1.57656 0.245848 0)
(1.48457 0.0674566 0)
(1.48955 -0.0151067 0)
(1.1574 -0.162432 0)
(1.30615 -0.0722875 0)
(1.42768 0.0499658 0)
(1.51701 0.180072 0)
(1.57941 0.302764 0)
(1.62088 0.386984 0)
(1.62703 0.375703 0)
(1.56049 0.221998 0)
(1.47672 0.0601512 0)
(1.48636 -0.014425 0)
(1.16465 -0.167014 0)
(1.31991 -0.0699111 0)
(1.44392 0.0604653 0)
(1.53192 0.197622 0)
(1.59 0.318308 0)
(1.62283 0.395073 0)
(1.62266 0.370432 0)
(1.54259 0.198228 0)
(1.47076 0.0544434 0)
(1.48529 -0.0131696 0)
(1.17241 -0.1715 0)
(1.33458 -0.0660607 0)
(1.46048 0.072389 0)
(1.54582 0.212237 0)
(1.60164 0.336567 0)
(1.62408 0.402202 0)
(1.61676 0.361842 0)
(1.52019 0.173757 0)
(1.46385 0.049718 0)
(1.48325 -0.0123767 0)
(1.1808 -0.175818 0)
(1.35018 -0.0606383 0)
(1.47726 0.0852668 0)
(1.56113 0.229158 0)
(1.61352 0.360269 0)
(1.62455 0.403807 0)
(1.60928 0.348484 0)
(1.49782 0.152435 0)
(1.45528 0.0457172 0)
(1.47877 -0.0115257 0)
(1.19002 -0.180063 0)
(1.36692 -0.0539645 0)
(1.49423 0.0980135 0)
(1.5767 0.250658 0)
(1.62195 0.379718 0)
(1.62435 0.401964 0)
(1.60009 0.329275 0)
(1.47475 0.133087 0)
(1.44594 0.0433332 0)
(1.47282 -0.00905697 0)
(1.20031 -0.184478 0)
(1.38469 -0.0472808 0)
(1.51357 0.115883 0)
(1.59121 0.277268 0)
(1.63021 0.386554 0)
(1.62452 0.400493 0)
(1.58895 0.306039 0)
(1.45563 0.117832 0)
(1.43731 0.042129 0)
(1.46633 -0.00717603 0)
(1.21188 -0.189076 0)
(1.40435 -0.0390218 0)
(1.53292 0.136971 0)
(1.60311 0.294912 0)
(1.63547 0.392626 0)
(1.62656 0.399032 0)
(1.57546 0.28071 0)
(1.4389 0.105915 0)
(1.43081 0.0396745 0)