/*--------------------------------*- C++ -*----------------------------------*\
  =========                 |
  \\      /  F ield         | OpenFOAM: The Open Source CFD Toolbox
   \\    /   O peration     | Website:  https://openfoam.org
    \\  /    A nd           | Version:  7
     \\/     M anipulation  |
\*---------------------------------------------------------------------------*/
FoamFile
{
    version     2.0;
    format      ascii;
    class       volScalarField;
    location    "0.3";
    object      p;
}
// * * * * * * * * * * * * * * * * * * * * * * * * * * * * * * * * * * * * * //

dimensions      [1 -1 -2 0 0 0 0];

internalField   nonuniform List<scalar> 
3225
(
1.47773
1.46897
1.46002
1.45028
1.43908
1.4276
1.47673
1.46791
1.4589
1.44967
1.43993
1.42857
1.47584
1.4665
1.4574
1.44847
1.43906
1.42884
1.47541
1.46534
1.45579
1.44657
1.43757
1.42774
1.47599
1.46516
1.45455
1.44464
1.4353
1.42606
1.47607
1.46603
1.45461
1.44331
1.43309
1.42355
1.47528
1.46609
1.45568
1.44354
1.43165
1.4212
1.47397
1.46512
1.45574
1.44483
1.43186
1.41965
1.47237
1.46358
1.45465
1.44496
1.43324
1.41969
1.47108
1.46169
1.45282
1.44377
1.43347
1.42101
1.47083
1.46025
1.45056
1.44173
1.43233
1.42128
1.47224
1.45989
1.44891
1.43916
1.43038
1.42011
1.47303
1.46131
1.44837
1.43727
1.42757
1.41823
1.47228
1.46221
1.44976
1.43638
1.42527
1.4154
1.47067
1.46162
1.45085
1.43733
1.42384
1.41282
1.46839
1.46012
1.45053
1.43847
1.4239
1.41099
1.46679
1.45763
1.44913
1.43846
1.42493
1.4102
1.46618
1.45565
1.44657
1.43729
1.42529
1.41078
1.46719
1.45456
1.44414
1.43526
1.42461
1.41126
1.46865
1.4548
1.44262
1.4327
1.42319
1.41095
1.41674
1.40629
1.39663
1.38691
1.37658
1.36525
1.35124
1.33585
1.32194
1.31028
1.30147
1.29126
1.27879
1.2634
1.24412
1.22734
1.21521
1.41611
1.40443
1.39364
1.38376
1.37439
1.36349
1.35148
1.33732
1.32097
1.30695
1.29564
1.28677
1.27611
1.26237
1.24621
1.22637
1.21063
1.41725
1.4042
1.39188
1.3808
1.3707
1.361
1.3499
1.33738
1.32236
1.30556
1.29176
1.28107
1.27173
1.26012
1.24575
1.22787
1.20837
1.41733
1.4054
1.39174
1.37874
1.36726
1.35722
1.34744
1.33588
1.32275
1.30654
1.28938
1.27593
1.26603
1.2564
1.24374
1.22824
1.20841
1.41605
1.40538
1.39299
1.37853
1.36508
1.35343
1.34354
1.33348
1.32128
1.30713
1.28951
1.27287
1.26053
1.25117
1.24054
1.22648
1.20892
1.41419
1.40395
1.39294
1.37983
1.36454
1.35092
1.3394
1.32965
1.31894
1.30602
1.29054
1.27186
1.25658
1.24543
1.23581
1.2236
1.20778
1.41138
1.40186
1.39139
1.37983
1.36585
1.34989
1.33643
1.32518
1.31534
1.30388
1.29009
1.27295
1.25426
1.24049
1.23007
1.21929
1.20533
1.40878
1.39873
1.38912
1.37827
1.36606
1.35102
1.33471
1.32154
1.31076
1.3006
1.28815
1.27314
1.25413
1.23705
1.22459
1.21407
1.20171
1.40712
1.39582
1.38572
1.37597
1.36465
1.35155
1.33524
1.31915
1.30639
1.29614
1.28528
1.27157
1.25467
1.23499
1.22003
1.2087
1.19725
1.40705
1.39393
1.38249
1.37249
1.36248
1.3504
1.33598
1.31837
1.30315
1.29126
1.28123
1.2691
1.25381
1.23458
1.2167
1.20387
1.19254
1.40834
1.39346
1.38032
1.36895
1.35914
1.34838
1.33526
1.31905
1.30106
1.28721
1.27637
1.26556
1.25159
1.23402
1.21424
1.1996
1.18788
1.4086
1.39465
1.37929
1.36641
1.35532
1.34534
1.33337
1.31892
1.30093
1.28437
1.27179
1.26111
1.24848
1.23233
1.2127
1.19574
1.18338
1.40742
1.39511
1.38014
1.36475
1.35219
1.3414
1.33068
1.31743
1.30137
1.28279
1.26822
1.2564
1.2445
1.2297
1.21132
1.19257
1.17886
1.40557
1.39412
1.38083
1.36475
1.34996
1.33766
1.327
1.31519
1.30078
1.28298
1.26563
1.25219
1.24016
1.22647
1.20952
1.19001
1.17407
1.40273
1.39238
1.38028
1.36555
1.34878
1.33482
1.323
1.3121
1.29895
1.28292
1.26415
1.2487
1.2359
1.22278
1.20709
1.18827
1.16986
1.39991
1.38969
1.37869
1.36553
1.34921
1.33271
1.31958
1.30839
1.29643
1.28151
1.26335
1.24585
1.23198
1.219
1.20423
1.18659
1.16688
1.39786
1.38668
1.37634
1.36424
1.34959
1.33201
1.31698
1.3046
1.29317
1.27918
1.26194
1.24332
1.22834
1.21519
1.20105
1.18442
1.16477
1.39645
1.38423
1.37333
1.36223
1.34891
1.33243
1.31499
1.30124
1.28935
1.27619
1.25977
1.24091
1.22461
1.21127
1.19754
1.18166
1.16291
1.39631
1.38234
1.37042
1.35954
1.34714
1.33217
1.31423
1.29846
1.28546
1.27262
1.25706
1.23851
1.22066
1.20693
1.19356
1.17846
1.1605
1.39667
1.38113
1.36805
1.35642
1.34476
1.33067
1.3137
1.29616
1.28196
1.26892
1.25401
1.23615
1.21727
1.20199
1.18881
1.17446
1.15745
1.3966
1.38103
1.36618
1.35339
1.34167
1
1
1
1
1
1
1
1
1
1
1
1
1
1
1
1
1
1
1
1
1
1
1
1
1
1
1
1
1
1
1
1
1
1
1
1
1
1
1
1
1
1
1
1
1
1
1
1
1
1
1
1
1
1
1
1
1
1
1
1
1
1
1
1
1
1
1
1
1
1
1
1
1
1
1
1
1
1
1
1
1
1
1
1
1
1
1
1
1
1
1
1
1
1
1
1
1
1
1
1
1
1
1
1
1
1
1
1
1
1
1
1
1
1
1
1
1
1
1
1
1
1
1
1
1
1
1
1
1
1
1
1
1
1
1
1
1
1
1
1
1
1
1
1
1
1
1
1
1
1
1
1
1
1
1
1
1
1
1
1
1
1
1
1
1
1
1
1
1
1
1
1
1
1
1
1
1
1
1
1
1
1
1
1
1
1
1
1
1
1
1
1
1
1
1
1
1
1
1
1
1
1
1
1
1
1
1
1
1
1
1
1
1
1
1
1
1
1
1
1
1
1
1
1
1
1
1
1
1
1
1
1
1
1
1
1
1
1
1
1
1
1
1
1
1
1
1
1
1
1
1
1
1
1
1
1
1
1
1
1
1
1
1
1
1
1
1
1
1
1
1
1
1
1
1
1
1
1
1
1
1
1
1
1
1
1
1
1
1
1
1
1
1
1
1
1
1
1
1
1
1
1
1
1
1
1
1
1
1
1
1
1
1
1
1
1
1
1
1
1
1
1
1
1
1
1
1
1
1
1
1
1
1
1
1
1
1
1
1
1
1
1
1
1
1
1
1
1
1
1
1
1
1
1
1
1
1
1
1
1
1
1
1
1
1
1
1
1
1
1
1
1
1
1
1
1
1
1
1
1
1
1
1
1
1
1
1
1
1
1
1
1
1
1
1
1
1
1
1
1
1
1
1
1
1
1
1
1
1
1
1
1
1
1
1
1
1
1
1
1
1
1
1
1
1
1
1
1
1
1
1
1
1
1
1
1
1
1
1
1
1
1
1
1
1
1
1
1
1
1
1
1
1
1
1
1
1
1
1
1
1
1
1
1
1
1
1
1
1
1
1
1
1
1
1
1
1
1
1
1
1
1
1
1
1
1
1
1
1
1
1
1
1
1
1
1
1
1
1
1
1
1
1
1
1
1
1
1
1
1
1
1
1
1
1
1
1
1
1
1
1
1
1
1
1
1
1
1
1
1
1
1
1
1
1
1
1
1
1
1
1
1
1
1
1
1
1
1
1
1
1
1
1
1
1
1
1
1
1
1
1
1
1
1
1
1
1
1
1
1
1
1
1
1
1
1
1
1
1
1
1
1
1
1
1
1
1
1
1
1
1
1
1
1
1
1
1
1
1
1
1
1
1
1
1
1
1
1
1
1
1
1
1
1
1
1
1
1
1
1
1
1
1
1
1
1
1
1
1
1
1
1
1
1
1
1
1
1
1
1
1
1
1
1
1
1
1
1
1
1
1
1
1
1
1
1
1
1
1
1
1
1
1
1
1
1
1
1
1
1
1
1
1
1
1
1
1
1
1
1
1
1
1
1
1
1
1
1
1
1
1
1
1
1
1
1
1
1
1
1
1
1
1
1
1
1
1
1
1
1
1
1
1
1
1
1
1
1
1
1
1
1
1
1
1
1
1
1
1
1
1
1
1
1
1
1
1
1
1
1
1
1
1
1
1
1
1
1
1
1
1
1
1
1
1
1
1
1
1
1
1
1
1
1
1
1
1
1
1
1
1
1
1
1
1
1
1
1
1
1
1
1
1
1
1
1
1
1
1
1
1
1
1
1
1
1
1
1
1
1
1
1
1
1
1
1
1
1
1
1
1
1
1
1
1
1
1
1
1
1
1
1
1
1
1
1
1
1
1
1
1
1
1
1
1
1
1
1
1
1
1
1
1
1
1
1
1
1
1
1
1
1
1
1
1
1
1
1
1
1
1
1
1
1
1
1
1
1
1
1
1
1
1
1
1
1
1
1
1
1
1
1
1
1
1
1
1
1
1
1
1
1
1
1
1
1
1
1
1
1
1
1
1
1
1
1
1
1
1
1
1
1
1
1
1
1
1
1
1
1
1
1
1
1
1
1
1
1
1
1
1
1
1
1
1
1
1
1
1
1
1
1
1
1
1
1
1
1
1
1
1
1
1
1
1
1
1
1
1
1
1
1
1
1
1
1
1
1
1
1
1
1
1
1
1
1
1
1
1
1
1
1
1
1
1
1
1
1
1
1
1
1
1
1
1
1
1
1
1
1
1
1
1
1
1
1
1
1
1
1
1
1
1
1
1
1
1
1
1
1
1
1
1
1
1
1
1
1
1
1
1
1
1
1
1
1
1
1
1
1
1
1
1
1
1
1
1
1
1
1
1
1
1
1
1
1
1
1
1
1
1
1
1
1
1
1
1
1
1
1
1.00001
1
1
1
1
1
1
1
1
1
1
1
1
1
1
1
1.00004
1.001
1
1
1
1
1
1
1
1
1
1
1
1
1
1
1.00017
1.00281
1.02129
1
1
1
1
1
1
1
1
1
1
1
1
1.00002
1.00058
1.00698
1.04003
1.12491
1
1
1
1
1
1
1
1
1
1
1
1.00008
1.00166
1.01532
1.06835
1.1754
1.29427
1
1
1
1
1
1
1
1
1
1.00001
1.00028
1.00425
1.02956
1.1059
1.23126
1.3329
1.39768
1
1
1
1
1
1
1
1
1.00003
1.00084
1.00969
1.05229
1.15243
1.28102
1.36975
1.41873
1.4409
1
1
1
1
1
1
1
1.00011
1.00222
1.01957
1.08342
1.20688
1.32387
1.39927
1.43824
1.4451
1.43915
1
1
1
1
1
1.00001
1.00036
1.00533
1.0361
1.12408
1.25933
1.36215
1.42257
1.45209
1.44726
1.44349
1.4403
1
1
1
1
1.00003
1.00099
1.01139
1.06071
1.17375
1.30785
1.39493
1.44277
1.45922
1.45224
1.44776
1.44568
1.44398
1
1
1
1.00012
1.00253
1.02219
1.09363
1.22807
1.34834
1.42272
1.45996
1.46211
1.45589
1.45193
1.45054
1.4482
1.4402
1
1.00001
1.00037
1.00577
1.03979
1.13624
1.28127
1.38445
1.44358
1.47122
1.46664
1.46032
1.45701
1.45537
1.45129
1.44271
1.43232
1.00003
1.00102
1.01196
1.06514
1.18638
1.32879
1.4167
1.46317
1.47742
1.47033
1.46483
1.46171
1.4605
1.45444
1.44514
1.43503
1.42615
1.00254
1.02305
1.09955
1.2422
1.3674
1.44115
1.47906
1.48223
1.47345
1.46881
1.46599
1.46453
1.45739
1.44764
1.43795
1.42942
1.42343
1.04036
1.14204
1.2979
1.4045
1.46138
1.48854
1.48667
1.4783
1.47363
1.47096
1.46796
1.46018
1.45027
1.44115
1.43289
1.42733
1.42039
1.19181
1.34498
1.43297
1.48107
1.4968
1.49015
1.4821
1.47758
1.47609
1.47183
1.46318
1.45302
1.44436
1.43681
1.43137
1.42335
1.4144
1.3887
1.45424
1.4924
1.50307
1.49525
1.48625
1.48089
1.47936
1.47506
1.46639
1.45626
1.44764
1.4407
1.43529
1.42698
1.41744
1.40864
1.47682
1.50391
1.50679
1.49807
1.49096
1.48584
1.48326
1.47788
1.46903
1.45954
1.45122
1.44467
1.43864
1.43007
1.42107
1.41232
1.40465
1.51407
1.51341
1.50245
1.4941
1.48909
1.48798
1.48196
1.47229
1.46253
1.45462
1.44885
1.44256
1.43345
1.42409
1.41595
1.40911
1.40143
1.51719
1.50745
1.49832
1.49239
1.49054
1.48479
1.47611
1.46639
1.4581
1.45238
1.44595
1.43712
1.42794
1.41938
1.41285
1.40591
1.39677
1.50914
1.50249
1.49723
1.49432
1.48755
1.47854
1.46984
1.46204
1.45639
1.44945
1.44036
1.43154
1.42362
1.41667
1.40913
1.40096
1.39212
1.50506
1.50039
1.49874
1.49172
1.48192
1.4728
1.46538
1.46036
1.45336
1.44422
1.43513
1.42728
1.42113
1.41328
1.40409
1.39578
1.38823
1.50458
1.50114
1.49444
1.48568
1.47677
1.46897
1.46391
1.45699
1.44801
1.43931
1.43135
1.42469
1.41743
1.40865
1.39945
1.39168
1.38493
1.50564
1.49719
1.48806
1.4803
1.47322
1.46799
1.46073
1.45177
1.44306
1.43554
1.42915
1.42104
1.41253
1.40429
1.39605
1.3882
1.38052
1.50182
1.49192
1.48351
1.47677
1.47223
1.46465
1.45575
1.44726
1.43949
1.43325
1.42569
1.41653
1.40797
1.40083
1.39327
1.38406
1.37542
1.49595
1.48799
1.48089
1.47587
1.46867
1.45979
1.45147
1.4441
1.43734
1.42964
1.42131
1.4126
1.40456
1.39765
1.38941
1.37982
1.37094
1.49171
1.48584
1.47995
1.47234
1.4639
1.45567
1.44846
1.44221
1.43401
1.4252
1.4172
1.40961
1.40153
1.39342
1.38518
1.37622
1.36729
1.48949
1.4845
1.47643
1.46787
1.46013
1.45291
1.44621
1.43875
1.42998
1.4213
1.41409
1.40696
1.39785
1.38883
1.38106
1.37318
1.36371
1.48794
1.48084
1.47235
1.46441
1.45783
1.45103
1.44272
1.43452
1.42645
1.41845
1.41114
1.40329
1.39407
1.38491
1.3774
1.36954
1.35981
1.48417
1.47665
1.46929
1.46235
1.45576
1.44775
1.43878
1.43076
1.42375
1.41585
1.40731
1.39919
1.39071
1.38172
1.3734
1.36531
1.35604
1.48049
1.47341
1.46737
1.46009
1.45221
1.44401
1.43556
1.42804
1.42108
1.41246
1.4033
1.39539
1.38781
1.37846
1.36898
1.36082
1.35247
1.47804
1.47149
1.46504
1.45683
1.44838
1.44075
1.43319
1.42531
1.41756
1.40903
1.39994
1.39202
1.38428
1.37483
1.36489
1.35669
1.34869
1.47666
1.46921
1.46177
1.45356
1.44539
1.43837
1.43076
1.422
1.41381
1.40593
1.39717
1.38833
1.38019
1.37127
1.36144
1.35268
1.34448
1.47447
1.46629
1.45847
1.45093
1.44316
1.43564
1.42766
1.4188
1.41067
1.40318
1.3941
1.38435
1.37595
1.36789
1.35826
1.34848
1.33994
1.47164
1.46361
1.45605
1.44879
1.44056
1.4323
1.42442
1.41608
1.40778
1.39983
1.39071
1.38075
1.37214
1.36433
1.35477
1.34445
1.33563
1.46902
1.46141
1.45385
1.4462
1.43761
1.42914
1.42159
1.41353
1.4045
1.396
1.38737
1.37769
1.36845
1.36033
1.35113
1.34079
1.33152
1.4668
1.45927
1.45139
1.44344
1.43498
1.42648
1.41874
1.41049
1.40108
1.39233
1.38423
1.37475
1.3647
1.3561
1.34748
1.33727
1.32726
1.46464
1.45694
1.44885
1.44091
1.43269
1.42393
1.41558
1.40724
1.39795
1.38895
1.38081
1.37159
1.36123
1.35216
1.34358
1.33334
1.32287
1.46232
1.45447
1.44632
1.43844
1.43034
1.42128
1.41242
1.4041
1.395
1.38551
1.37703
1.36832
1.35815
1.34836
1.33936
1.32914
1.31854
1.45987
1.45196
1.44377
1.4358
1.42773
1.41863
1.40947
1.40104
1.39196
1.38205
1.37316
1.365
1.35516
1.34453
1.33498
1.3249
1.31424
1.45754
1.44951
1.44118
1.43296
1.42493
1.41606
1.4067
1.39798
1.38891
1.37881
1.36943
1.36121
1.35172
1.34078
1.33078
1.32072
1.30989
1.45543
1.44726
1.43871
1.43015
1.42205
1.41347
1.40398
1.39492
1.38598
1.3759
1.36584
1.35712
1.34792
1.33706
1.32672
1.31661
1.30573
1.45342
1.44515
1.43641
1.42752
1.41918
1.41077
1.40127
1.39192
1.38307
1.37315
1.36245
1.35303
1.34391
1.3332
1.32261
1.31253
1.30179
1.45126
1.44302
1.4342
1.42501
1.41631
1.40791
1.39851
1.38888
1.37995
1.37024
1.35923
1.34914
1.33986
1.32916
1.3184
1.30837
1.29784
1.44887
1.4407
1.43195
1.42252
1.4134
1.40488
1.39562
1.38572
1.37653
1.36701
1.356
1.34538
1.33585
1.32511
1.31414
1.30405
1.29368
1.44637
1.43813
1.42957
1.42004
1.4105
1.40171
1.39258
1.38248
1.3729
1.36348
1.35262
1.34161
1.33184
1.32107
1.30979
1.29946
1.28921
1.44396
1.43542
1.42709
1.41767
1.40776
1.39856
1.38944
1.37927
1.36932
1.35987
1.34909
1.33772
1.32771
1.31699
1.30543
1.29461
1.28443
1.44175
1.43278
1.42441
1.41547
1.40523
1.39553
1.38628
1.37607
1.36585
1.35628
1.34557
1.33381
1.32344
1.31282
1.30115
1.28971
1.27925
1.44007
1.43047
1.42162
1.41301
1.40312
1.39277
1.38311
1.37295
1.3625
1.35273
1.3421
1.32997
1.31915
1.30854
1.29691
1.28508
1.27394
1.43805
1.4286
1.41914
1.41031
1.40068
1.39021
1.38009
1.36967
1.35899
1.34898
1.33844
1.32617
1.31484
1.30414
1.29265
1.28065
1.26908
1.43585
1.42644
1.41678
1.40757
1.39791
1.38737
1.37705
1.36641
1.35538
1.34508
1.33459
1.3223
1.31051
1.29935
1.288
1.27622
1.2645
1.43367
1.42422
1.41429
1.40468
1.39492
1.38438
1.37393
1.36313
1.35171
1.341
1.33057
1.31846
1.30626
1.29433
1.28258
1.27111
1.25971
1.43139
1.4219
1.41184
1.40178
1.39176
1.38113
1.37052
1.35965
1.34808
1.337
1.32651
1.31464
1.30225
1.28973
1.27713
1.26499
1.2537
1.42903
1.41936
1.40933
1.39912
1.38884
1.37798
1.36702
1.35592
1.34421
1.33275
1.32211
1.31061
1.29834
1.28559
1.27254
1.25952
1.24668
1.4268
1.41674
1.40654
1.39629
1.38603
1.37524
1.36404
1.35255
1.34048
1.32842
1.31683
1.30524
1.29369
1.28145
1.2686
1.25513
1.24122
1.42497
1.41453
1.40367
1.39292
1.38234
1.37163
1.36073
1.34967
1.33787
1.32508
1.31227
1.2994
1.28694
1.27563
1.26401
1.25137
1.23744
1.42296
1.41297
1.40212
1.39035
1.37872
1.36735
1.35612
1.34531
1.33422
1.32248
1.30976
1.29551
1.28111
1.26745
1.25619
1.24589
1.23359
1.41968
1.40988
1.39981
1.3892
1.37737
1.3645
1.35152
1.339
1.32786
1.31765
1.30657
1.29406
1.27898
1.26237
1.24697
1.23508
1.22607
1
1
1
1
1
1
1
1
1
1
1
1
1
1
1
1
1
1
1
1
1
1
1
1
1
1
1
1
1
1
1
1
1
1
1
1
1
1
1
1
1
1
1
1
1
1
1
1
1
1
1
1
1
1
1
1
1
1
1
1
1
1
1
1
1
1
1
1
1
1
1
1
1
1
1
1
1
1
1
1
1
1
1
1
1
1
1
1
1
1
1
1
1
1
1
1
1
1
1
1
1
1
1
1
1
1
1
1
1
1
1
1
1
1
1
1
1
1
1
1
1
1
1
1
1
1
1
1
1
1
1
1
1
1
1
1
1
1
1
1
1
1
1
1
1
1
1
1
1
1
1
1
1
1
1
1
1
1
1
1
1
1
1
1
1
1
1
1
1
1
1
1
1
1
1
1
1
1
1
1
1
1
1
1
1
1
1
1
1
1
1
1
1
1
1
1
1
1
1
1
1
1
1
1
1
1
1
1
1
1
1
1
1
1
1
1
1
1
1
1
1
1
1
1
1
1
1
1
1
1
1
1
1
1
1
1
1
1
1
1
1
1
1
1
1
1
1
1
1
1
1
1
1
1
1
1
1
1
1
1
1
1
1
1
1
1
1
1
1
1
1
1
1
1
1
1
1
1
1
1
1
1
1
1
1
1
1
1
1
1
1
1
1
1
1
1
1
1
1
1
1
1
1
1
1
1
1
1
1
1
1
1
1
1
1
1
1
1
1
1
1
1
1
1
1
1
1
1
1
1
1
1
1
1
1
1
1
1
1
1
1
1
1
1
1
1
1
1
1
1
1
1
1
1
1
1
1
1
1
1
1
1
1
1
1
1
1
1
1
1
1
1
1
1
1
1
1
1
1
1
1
1
1
1
1
1
1
1
1
1
1
1
1
1
1
1
1
1
1
1
1
1
1
1
1
1
1
1
1
1
1
1
1
1
1
1
1
1
1
1
1
1
1
1
1
1
1
1
1
1
1
1
1
1
1
1
1
1
1
1
1
1
1
1
1
1
1
1
1
1
1
1
1
1
1
1.00011
1
1
1
1.00001
1.00032
1.00563
1
1
1.00002
1.00087
1.01142
1.06607
1
1.00008
1.00201
1.02104
1.09972
1.24927
1.00023
1.00449
1.03603
1.13881
1.30225
1.42382
1.00932
1.05955
1.18838
1.35355
1.44434
1.49246
1.09007
1.24061
1.4044
1.47138
1.50202
1.51807
1.29235
1.43351
1.49127
1.52
1.52416
1.51831
1.4603
1.49894
1.52545
1.53218
1.52534
1.51298
1.5182
1.52877
1.53268
1.52726
1.51818
1.51022
1.54302
1.53804
1.52757
1.51909
1.51363
1.51066
1.54416
1.53502
1.52336
1.51602
1.51293
1.50962
1.5363
1.52918
1.52215
1.51695
1.51179
1.50432
1.5294
1.52613
1.52361
1.51665
1.50732
1.4987
1.52779
1.52455
1.52034
1.5125
1.50319
1.49521
1.52824
1.52206
1.51536
1.50806
1.50045
1.49379
1.52686
1.51834
1.51088
1.5047
1.49939
1.49203
1.52366
1.51578
1.5085
1.50291
1.49694
1.48879
1.52092
1.51428
1.50741
1.50057
1.4936
1.48589
1.51834
1.51277
1.50555
1.49762
1.49029
1.48367
1.51596
1.51007
1.50311
1.49525
1.48796
1.48159
1.51381
1.50723
1.50071
1.4934
1.48595
1.479
1.51208
1.50496
1.49839
1.49155
1.48392
1.47635
1.51055
1.50317
1.49624
1.48948
1.48192
1.47415
1.50887
1.50154
1.49428
1.48728
1.47987
1.47213
1.50692
1.49987
1.49242
1.4851
1.4777
1.46998
1.50496
1.498
1.49055
1.48305
1.47555
1.46773
1.50318
1.49602
1.48863
1.48107
1.47348
1.46557
1.50153
1.49417
1.48674
1.47911
1.47144
1.46354
1.49994
1.49247
1.48492
1.47718
1.46938
1.4615
1.49829
1.4908
1.48318
1.47535
1.46737
1.45934
1.49665
1.48909
1.48144
1.47361
1.46545
1.45712
1.49515
1.48745
1.47964
1.47177
1.46356
1.45495
1.49375
1.48589
1.47779
1.46976
1.46164
1.45294
1.49219
1.48428
1.47599
1.46769
1.45957
1.45103
1.49052
1.48258
1.47447
1.46586
1.45737
1.44905
1.48886
1.4807
1.47278
1.4644
1.45538
1.44673
1.48748
1.47924
1.47101
1.46266
1.45377
1.44474
1.48611
1.47786
1.46937
1.46086
1.45197
1.44276
1.48488
1.47646
1.46771
1.45899
1.4501
1.44075
1.48373
1.47513
1.46617
1.45714
1.44814
1.4387
1.48247
1.47379
1.46483
1.45556
1.44624
1.4367
1.48103
1.47221
1.46328
1.45405
1.44454
1.43487
1.47979
1.47057
1.46129
1.45189
1.44236
1.4327
1.47902
1.46971
1.45983
1.44973
1.43964
1.42956
)
;

boundaryField
{
    inlet
    {
        type            fixedValue;
        value           nonuniform 0();
    }
    outlet
    {
        type            zeroGradient;
    }
    triangle
    {
        type            zeroGradient;
    }
    top
    {
        type            symmetryPlane;
    }
    bottom
    {
        type            symmetryPlane;
    }
    defaultFaces
    {
        type            empty;
    }
    procBoundary5to4
    {
        type            processor;
        value           nonuniform List<scalar> 
119
(
1
1
1
1
1
1
1
1
1
1
1
1
1
1
1
1
1
1
1
1
1
1
1
1
1
1
1
1
1
1
1
1
1
1
1
1
1
1
1
1
1
1
1
1
1
1
1
1
1
1
1
1
1
1
1
1
1
1
1
1
1
1
1
1
1
1
1
1
1
1
1
1
1
1
1
1
1
1
1
1
1.00059
1.01709
1.12955
1.35509
1.49423
1.53499
1.54562
1.54231
1.53614
1.53459
1.53432
1.53388
1.53039
1.52698
1.52447
1.52257
1.52094
1.51938
1.51759
1.51551
1.51349
1.51186
1.51046
1.50895
1.50722
1.5055
1.50397
1.50255
1.50118
1.4998
1.49846
1.49704
1.49551
1.49415
1.49299
1.49199
1.4909
1.48971
1.48871
)
;
    }
    procBoundary5to6
    {
        type            processor;
        value           nonuniform List<scalar> 
140
(
1.20712
1.2
1.19458
1.1907
1.18838
1.18788
1.1874
1.18573
1.18301
1.17949
1.1755
1.17132
1.16689
1.16199
1.15639
1.15063
1.14632
1.14324
1.1409
1.13855
1
1
1
1
1
1
1
1
1
1
1
1
1
1
1
1
1
1
1
1
1
1
1
1
1
1
1
1
1
1
1
1
1
1
1
1
1
1
1
1
1
1
1
1
1
1
1
1
1
1
1
1
1
1
1
1
1
1
1
1
1
1
1.0003
1.00994
1.08208
1.24673
1.37102
1.42995
1.43395
1.43533
1.43942
1.43752
1.43008
1.42305
1.41896
1.41678
1.41136
1.40581
1.40147
1.39821
1.39303
1.38744
1.38317
1.38016
1.37635
1.37196
1.36758
1.36365
1.35939
1.35459
1.3501
1.34623
1.34266
1.3388
1.3348
1.33083
1.32676
1.32244
1.31789
1.31337
1.30891
1.30426
1.29952
1.29495
1.29054
1.28613
1.28167
1.27712
1.2724
1.26732
1.26167
1.25619
1.25147
1.24681
1.24167
1.23452
1.22702
1.22206
1.21948
1.21491
)
;
    }
    procBoundary5to12
    {
        type            processor;
        value           nonuniform List<scalar> 
21
(
1.48648
1.48583
1.48554
1.48563
1.48563
1.48502
1.484
1.48275
1.48162
1.48124
1.48246
1.48324
1.48264
1.48121
1.47915
1.47771
1.47729
1.47876
1.48036
1.4806
1.4876
)
;
    }
    procBoundary5to13
    {
        type            processor;
        value           nonuniform List<scalar> 
25
(
1.46913
1.45604
1.44216
1.43073
1.42091
1.40977
1.40977
1.32838
1.31248
1.29453
1.27891
1.26533
1.25091
1.23387
1.21457
1.19736
1.18325
1.16949
1.15377
1.39587
1.3812
1.36497
1.35075
1.32838
1.33819
)
;
    }
}


// ************************************************************************* //
