/*--------------------------------*- C++ -*----------------------------------*\
  =========                 |
  \\      /  F ield         | OpenFOAM: The Open Source CFD Toolbox
   \\    /   O peration     | Website:  https://openfoam.org
    \\  /    A nd           | Version:  7
     \\/     M anipulation  |
\*---------------------------------------------------------------------------*/
FoamFile
{
    version     2.0;
    format      ascii;
    class       volScalarField;
    location    "0.3";
    object      rho;
}
// * * * * * * * * * * * * * * * * * * * * * * * * * * * * * * * * * * * * * //

dimensions      [1 -3 0 0 0 0 0];

internalField   nonuniform List<scalar> 
3225
(
1.84207
1.83425
1.82625
1.81753
1.80747
1.79714
1.84118
1.83331
1.82525
1.81698
1.80823
1.79801
1.84039
1.83206
1.82391
1.81591
1.80746
1.79826
1.84002
1.83102
1.82249
1.81421
1.80612
1.79727
1.84054
1.83087
1.82138
1.81249
1.80409
1.79577
1.84061
1.83165
1.82144
1.8113
1.80212
1.79352
1.83991
1.83171
1.8224
1.81152
1.80083
1.7914
1.83875
1.83085
1.82245
1.81268
1.80102
1.79001
1.83733
1.82947
1.82148
1.81279
1.80225
1.79005
1.83618
1.82779
1.81984
1.81173
1.80247
1.79124
1.83596
1.8265
1.81783
1.8099
1.80144
1.79149
1.83722
1.82619
1.81635
1.80759
1.7997
1.79043
1.83793
1.82746
1.81587
1.80591
1.79717
1.78874
1.83726
1.82826
1.81712
1.80511
1.79511
1.78619
1.83583
1.82774
1.8181
1.80596
1.79382
1.78387
1.8338
1.8264
1.81781
1.80699
1.79388
1.78223
1.83238
1.82419
1.81656
1.80698
1.79481
1.78152
1.83185
1.82242
1.81428
1.80594
1.79514
1.78205
1.83276
1.82146
1.8121
1.80412
1.79454
1.78249
1.83408
1.82168
1.81076
1.80184
1.79327
1.78223
1.78735
1.77791
1.76917
1.76036
1.75097
1.74066
1.72787
1.71378
1.70101
1.69027
1.68214
1.6727
1.66113
1.64682
1.6288
1.61305
1.60161
1.78678
1.77623
1.76646
1.7575
1.74899
1.73906
1.7281
1.71514
1.70012
1.68721
1.67677
1.66855
1.65866
1.64587
1.63078
1.61215
1.59731
1.78781
1.77602
1.76488
1.75482
1.74564
1.7368
1.72666
1.7152
1.70141
1.68594
1.67319
1.66328
1.65461
1.64379
1.63036
1.61358
1.59521
1.78789
1.77712
1.76475
1.75296
1.74252
1.73336
1.72442
1.71383
1.70178
1.68685
1.671
1.65853
1.64932
1.64034
1.6285
1.61395
1.59527
1.78674
1.7771
1.76589
1.75277
1.74053
1.72991
1.72086
1.71164
1.70044
1.6874
1.67113
1.65571
1.64421
1.63548
1.62552
1.61231
1.59577
1.78506
1.77581
1.76584
1.75395
1.74005
1.72762
1.71708
1.70814
1.6983
1.68639
1.6721
1.65478
1.64055
1.63013
1.6211
1.60963
1.5947
1.78254
1.77392
1.76444
1.75396
1.74124
1.72669
1.71436
1.70404
1.69499
1.68443
1.67169
1.6558
1.6384
1.62552
1.61574
1.6056
1.59241
1.7802
1.77109
1.76239
1.75254
1.74144
1.72772
1.7128
1.70071
1.69079
1.68141
1.6699
1.65598
1.63829
1.62231
1.61062
1.60069
1.58902
1.77869
1.76846
1.75931
1.75045
1.74016
1.72821
1.71329
1.69852
1.68677
1.6773
1.66726
1.65454
1.6388
1.6204
1.60634
1.59565
1.58481
1.77863
1.76676
1.75638
1.74729
1.73818
1.72717
1.71397
1.69781
1.68379
1.67281
1.66351
1.65225
1.63801
1.62003
1.60322
1.59111
1.58037
1.7798
1.76633
1.75441
1.74408
1.73514
1.72533
1.71332
1.69845
1.68187
1.66907
1.65901
1.64897
1.63595
1.6195
1.60092
1.58709
1.57598
1.78004
1.76741
1.75348
1.74177
1.73166
1.72255
1.7116
1.69834
1.68176
1.66645
1.65477
1.64484
1.63305
1.61794
1.59947
1.58345
1.57173
1.77898
1.76784
1.75426
1.74026
1.72881
1.71896
1.70914
1.69698
1.68218
1.66499
1.65146
1.64045
1.62935
1.61548
1.59819
1.58046
1.56745
1.77731
1.76694
1.75489
1.74027
1.72678
1.71555
1.70578
1.69493
1.68164
1.66518
1.64906
1.63654
1.62529
1.61245
1.5965
1.57806
1.56291
1.77474
1.76538
1.7544
1.741
1.72571
1.71295
1.70212
1.6921
1.67997
1.66513
1.64769
1.63329
1.62131
1.609
1.59422
1.57641
1.55892
1.7722
1.76294
1.75296
1.741
1.72612
1.71102
1.69898
1.68868
1.67765
1.66383
1.64695
1.63063
1.61765
1.60545
1.59153
1.57483
1.55608
1.77036
1.76023
1.75084
1.73983
1.72647
1.71039
1.69659
1.6852
1.67464
1.66168
1.64565
1.62827
1.61424
1.60188
1.58854
1.57279
1.55409
1.76909
1.75802
1.74812
1.73801
1.72586
1.71079
1.69477
1.68209
1.6711
1.65891
1.64363
1.62602
1.61075
1.5982
1.58523
1.57017
1.55232
1.76898
1.75631
1.74547
1.73557
1.72426
1.71056
1.69408
1.67954
1.66751
1.6556
1.64112
1.62378
1.60704
1.59412
1.58148
1.56715
1.55004
1.76931
1.75523
1.74333
1.73274
1.72209
1.70919
1.69359
1.67741
1.66426
1.65216
1.63827
1.62158
1.60386
1.58945
1.57699
1.56336
1.54715
1.76926
1.75514
1.74164
1.72998
1.71927
1.40001
1.40001
1.40001
1.40001
1.40001
1.40001
1.40001
1.40001
1.40001
1.40001
1.40001
1.40001
1.40001
1.40001
1.40001
1.40001
1.40001
1.40001
1.40001
1.40001
1.40001
1.40001
1.40001
1.40001
1.40001
1.40001
1.40001
1.40001
1.40001
1.40001
1.40001
1.40001
1.40001
1.40001
1.40001
1.40001
1.40001
1.40001
1.40001
1.40001
1.40001
1.40001
1.40001
1.40001
1.40001
1.40001
1.40001
1.40001
1.40001
1.40001
1.40001
1.40001
1.40001
1.40001
1.40001
1.40001
1.40001
1.40001
1.40001
1.40001
1.40001
1.40001
1.40001
1.40001
1.40001
1.40001
1.40001
1.40001
1.40001
1.40001
1.40001
1.40001
1.40001
1.40001
1.40001
1.40001
1.40001
1.40001
1.40001
1.40001
1.40001
1.40001
1.40001
1.40001
1.40001
1.40001
1.40001
1.40001
1.40001
1.40001
1.40001
1.40001
1.40001
1.40001
1.40001
1.40001
1.40001
1.40001
1.40001
1.40001
1.40001
1.40001
1.40001
1.40001
1.40001
1.40001
1.40001
1.40001
1.40001
1.40001
1.40001
1.40001
1.40001
1.40001
1.40001
1.40001
1.40001
1.40001
1.40001
1.40001
1.40001
1.40001
1.40001
1.40001
1.40001
1.40001
1.40001
1.40001
1.40001
1.40001
1.40001
1.40001
1.40001
1.40001
1.40001
1.40001
1.40001
1.40001
1.40001
1.40001
1.40001
1.40001
1.40001
1.40001
1.40001
1.40001
1.40001
1.40001
1.40001
1.40001
1.40001
1.40001
1.40001
1.40001
1.40001
1.40001
1.40001
1.40001
1.40001
1.40001
1.40001
1.40001
1.40001
1.40001
1.40001
1.40001
1.40001
1.40001
1.40001
1.40001
1.40001
1.40001
1.40001
1.40001
1.40001
1.40001
1.40001
1.40001
1.40001
1.40001
1.40001
1.40001
1.40001
1.40001
1.40001
1.40001
1.40001
1.40001
1.40001
1.40001
1.40001
1.40001
1.40001
1.40001
1.40001
1.40001
1.40001
1.40001
1.40001
1.40001
1.40001
1.40001
1.40001
1.40001
1.40001
1.40001
1.40001
1.40001
1.40001
1.40001
1.40001
1.40001
1.40001
1.40001
1.40001
1.40001
1.40001
1.40001
1.40001
1.40001
1.40001
1.40001
1.40001
1.40001
1.40001
1.40001
1.40001
1.40001
1.40001
1.40001
1.40001
1.40001
1.40001
1.40001
1.40001
1.40001
1.40001
1.40001
1.40001
1.40001
1.40001
1.40001
1.40001
1.40001
1.40001
1.40001
1.40001
1.40001
1.40001
1.40001
1.40001
1.40001
1.40001
1.40001
1.40001
1.40001
1.40001
1.40001
1.40001
1.40001
1.40001
1.40001
1.40001
1.40001
1.40001
1.40001
1.40001
1.40001
1.40001
1.40001
1.40001
1.40001
1.40001
1.40001
1.40001
1.40001
1.40001
1.40001
1.40001
1.40001
1.40001
1.40001
1.40001
1.40001
1.40001
1.40001
1.40001
1.40001
1.40001
1.40001
1.40001
1.40001
1.40001
1.40001
1.40001
1.40001
1.40001
1.40001
1.40001
1.40001
1.40001
1.40001
1.40001
1.40001
1.40001
1.40001
1.40001
1.40001
1.40001
1.40001
1.40001
1.40001
1.40001
1.40001
1.40001
1.40001
1.40001
1.40001
1.40001
1.40001
1.40001
1.40001
1.40001
1.40001
1.40001
1.40001
1.40001
1.40001
1.40001
1.40001
1.40001
1.40001
1.40001
1.40001
1.40001
1.40001
1.40001
1.40001
1.40001
1.40001
1.40001
1.40001
1.40001
1.40001
1.40001
1.40001
1.40001
1.40001
1.40001
1.40001
1.40001
1.40001
1.40001
1.40001
1.40001
1.40001
1.40001
1.40001
1.40001
1.40001
1.40001
1.40001
1.40001
1.40001
1.40001
1.40001
1.40001
1.40001
1.40001
1.40001
1.40001
1.40001
1.40001
1.40001
1.40001
1.40001
1.40001
1.40001
1.40001
1.40001
1.40001
1.40001
1.40001
1.40001
1.40001
1.40001
1.40001
1.40001
1.40001
1.40001
1.40001
1.40001
1.40001
1.40001
1.40001
1.40001
1.40001
1.40001
1.40001
1.40001
1.40001
1.40001
1.40001
1.40001
1.40001
1.40001
1.40001
1.40001
1.40001
1.40001
1.40001
1.40001
1.40001
1.40001
1.40001
1.40001
1.40001
1.40001
1.40001
1.40001
1.40001
1.40001
1.40001
1.40001
1.40001
1.40001
1.40001
1.40001
1.40001
1.40001
1.40001
1.40001
1.40001
1.40001
1.40001
1.40001
1.40001
1.40001
1.40001
1.40001
1.40001
1.40001
1.40001
1.40001
1.40001
1.40001
1.40001
1.40001
1.40001
1.40001
1.40001
1.40001
1.40001
1.40001
1.40001
1.40001
1.40001
1.40001
1.40001
1.40001
1.40001
1.40001
1.40001
1.40001
1.40001
1.40001
1.40001
1.40001
1.40001
1.40001
1.40001
1.40001
1.40001
1.40001
1.40001
1.40001
1.40001
1.40001
1.40001
1.40001
1.40001
1.40001
1.40001
1.40001
1.40001
1.40001
1.40001
1.40001
1.40001
1.40001
1.40001
1.40001
1.40001
1.40001
1.40001
1.40001
1.40001
1.40001
1.40001
1.40001
1.40001
1.40001
1.40001
1.40001
1.40001
1.40001
1.40001
1.40001
1.40001
1.40001
1.40001
1.40001
1.40001
1.40001
1.40001
1.40001
1.40001
1.40001
1.40001
1.40001
1.40001
1.40001
1.40001
1.40001
1.40001
1.40001
1.40001
1.40001
1.40001
1.40001
1.40001
1.40001
1.40001
1.40001
1.40001
1.40001
1.40001
1.40001
1.40001
1.40001
1.40001
1.40001
1.40001
1.40001
1.40001
1.40001
1.40001
1.40001
1.40001
1.40001
1.40001
1.40001
1.40001
1.40001
1.40001
1.40001
1.40001
1.40001
1.40001
1.40001
1.40001
1.40001
1.40001
1.40001
1.40001
1.40001
1.40001
1.40001
1.40001
1.40001
1.40001
1.40001
1.40001
1.40001
1.40001
1.40001
1.40001
1.40001
1.40001
1.40001
1.40001
1.40001
1.40001
1.40001
1.40001
1.40001
1.40001
1.40001
1.40001
1.40001
1.40001
1.40001
1.40001
1.40001
1.40001
1.40001
1.40001
1.40001
1.40001
1.40001
1.40001
1.40001
1.40001
1.40001
1.40001
1.40001
1.40001
1.40001
1.40001
1.40001
1.40001
1.40001
1.40001
1.40001
1.40001
1.40001
1.40001
1.40001
1.40001
1.40001
1.40001
1.40001
1.40001
1.40001
1.40001
1.40001
1.40001
1.40001
1.40001
1.40001
1.40001
1.40001
1.40001
1.40001
1.40001
1.40001
1.40001
1.40001
1.40001
1.40001
1.40001
1.40001
1.40001
1.40001
1.40001
1.40001
1.40001
1.40001
1.40001
1.40001
1.40001
1.40001
1.40001
1.40001
1.40001
1.40001
1.40001
1.40001
1.40001
1.40001
1.40001
1.40001
1.40001
1.40001
1.40001
1.40001
1.40001
1.40001
1.40001
1.40001
1.40001
1.40001
1.40001
1.40001
1.40001
1.40001
1.40001
1.40001
1.40001
1.40001
1.40001
1.40001
1.40001
1.40001
1.40001
1.40001
1.40001
1.40001
1.40001
1.40001
1.40001
1.40001
1.40001
1.40001
1.40001
1.40001
1.40001
1.40001
1.40001
1.40001
1.40001
1.40001
1.40001
1.40001
1.40001
1.40001
1.40001
1.40001
1.40001
1.40001
1.40001
1.40001
1.40001
1.40001
1.40001
1.40001
1.40001
1.40001
1.40001
1.40001
1.40001
1.40001
1.40001
1.40001
1.40001
1.40001
1.40001
1.40001
1.40001
1.40001
1.40001
1.40001
1.40001
1.40001
1.40001
1.40001
1.40001
1.40001
1.40001
1.40001
1.40001
1.40001
1.40001
1.40001
1.40001
1.40001
1.40001
1.40001
1.40001
1.40001
1.40001
1.40001
1.40001
1.40001
1.40001
1.40001
1.40001
1.40001
1.40001
1.40001
1.40001
1.40001
1.40001
1.40001
1.40001
1.40001
1.40001
1.40001
1.40001
1.40001
1.40001
1.40001
1.40001
1.40001
1.40001
1.40001
1.40001
1.40001
1.40001
1.40001
1.40001
1.40001
1.40001
1.40001
1.40001
1.40001
1.40001
1.40001
1.40001
1.40001
1.40001
1.40001
1.40001
1.40001
1.40001
1.40001
1.40001
1.40001
1.40001
1.40001
1.40001
1.40001
1.40001
1.40001
1.40001
1.40001
1.40001
1.40001
1.40001
1.40001
1.40001
1.40001
1.40001
1.40001
1.40001
1.40001
1.40001
1.40001
1.40001
1.40001
1.40001
1.40001
1.40001
1.40001
1.40001
1.40001
1.40001
1.40001
1.40001
1.40001
1.40001
1.40001
1.40001
1.40001
1.40001
1.40001
1.40001
1.40001
1.40001
1.40001
1.40001
1.40001
1.40001
1.40001
1.40001
1.40001
1.40001
1.40001
1.40001
1.40001
1.40001
1.40001
1.40001
1.40001
1.40001
1.40001
1.40001
1.40001
1.40001
1.40001
1.40001
1.40001
1.40001
1.40001
1.40001
1.40001
1.40001
1.40001
1.40001
1.40001
1.40001
1.40001
1.40001
1.40001
1.40001
1.40001
1.40001
1.40001
1.40001
1.40001
1.40001
1.40001
1.40001
1.40001
1.40001
1.40001
1.40001
1.40001
1.40001
1.40001
1.40001
1.40001
1.40001
1.40001
1.40001
1.40001
1.40001
1.40001
1.40001
1.40001
1.40001
1.40001
1.40001
1.40001
1.40001
1.40001
1.40001
1.40001
1.40001
1.40001
1.40001
1.40001
1.40001
1.40001
1.40001
1.40001
1.40001
1.40001
1.40001
1.40001
1.40001
1.40001
1.40001
1.40001
1.40001
1.40001
1.40001
1.40001
1.40001
1.40001
1.40001
1.40001
1.40001
1.40001
1.40001
1.40001
1.40001
1.40001
1.40001
1.40001
1.40001
1.40001
1.40001
1.40001
1.40001
1.40001
1.40001
1.40001
1.40001
1.40001
1.40001
1.40001
1.40001
1.40001
1.40001
1.40001
1.40001
1.40001
1.40001
1.40001
1.40001
1.40001
1.40001
1.40001
1.40001
1.40001
1.40001
1.40001
1.40001
1.40001
1.40001
1.40001
1.40001
1.40001
1.40001
1.40001
1.40001
1.40001
1.40001
1.40001
1.40001
1.40001
1.40001
1.40001
1.40001
1.40001
1.40001
1.40001
1.40001
1.40001
1.40001
1.40001
1.40001
1.40001
1.40001
1.40001
1.40001
1.40001
1.40001
1.40001
1.40001
1.40001
1.40001
1.40001
1.40001
1.40001
1.40001
1.40001
1.40001
1.40001
1.40001
1.40001
1.40001
1.40001
1.40001
1.40001
1.40001
1.40001
1.40001
1.40001
1.40001
1.40001
1.40001
1.40001
1.40001
1.40001
1.40001
1.40001
1.40001
1.40001
1.40001
1.40001
1.40001
1.40001
1.40001
1.40001
1.40001
1.40001
1.40001
1.40001
1.40001
1.40001
1.40001
1.40001
1.40001
1.40001
1.40001
1.40001
1.40001
1.40001
1.40001
1.40001
1.40001
1.40001
1.40001
1.40001
1.40001
1.40001
1.40001
1.40001
1.40001
1.40001
1.40001
1.40001
1.40001
1.40001
1.40001
1.40001
1.40001
1.40001
1.40001
1.40001
1.40001
1.40001
1.40001
1.40001
1.40001
1.40001
1.40001
1.40001
1.40001
1.40001
1.40001
1.40001
1.40001
1.40001
1.40005
1.401
1.40001
1.40001
1.40001
1.40001
1.40001
1.40001
1.40001
1.40001
1.40001
1.40001
1.40001
1.40001
1.40001
1.40001
1.40018
1.4028
1.42106
1.40001
1.40001
1.40001
1.40001
1.40001
1.40001
1.40001
1.40001
1.40001
1.40001
1.40001
1.40001
1.40002
1.40059
1.40694
1.43946
1.52163
1.40001
1.40001
1.40001
1.40001
1.40001
1.40001
1.40001
1.40001
1.40001
1.40001
1.40001
1.40008
1.40166
1.41518
1.46706
1.56973
1.68095
1.40001
1.40001
1.40001
1.40001
1.40001
1.40001
1.40001
1.40001
1.40001
1.40001
1.40029
1.40423
1.42919
1.50336
1.62228
1.71651
1.7753
1.40001
1.40001
1.40001
1.40001
1.40001
1.40001
1.40001
1.40001
1.40003
1.40084
1.40961
1.45141
1.54786
1.66862
1.75004
1.79428
1.81425
1.40001
1.40001
1.40001
1.40001
1.40001
1.40001
1.40001
1.40011
1.40222
1.41936
1.48165
1.59933
1.70811
1.77664
1.81176
1.81798
1.81262
1.40001
1.40001
1.40001
1.40001
1.40001
1.40001
1.40036
1.40529
1.43559
1.52076
1.64839
1.74303
1.79757
1.8241
1.8198
1.81643
1.81356
1.40001
1.40001
1.40001
1.40001
1.40004
1.40099
1.4113
1.4596
1.56802
1.69327
1.77265
1.81567
1.83047
1.82419
1.82015
1.81831
1.81681
1.40001
1.40001
1.40001
1.40013
1.40252
1.42194
1.49148
1.6191
1.73033
1.79755
1.83097
1.83296
1.8274
1.82382
1.82259
1.82051
1.81334
1.40001
1.40001
1.40037
1.40574
1.43919
1.53232
1.6686
1.76311
1.81623
1.84097
1.8369
1.83126
1.8283
1.82684
1.8232
1.81551
1.80617
1.40004
1.40102
1.41185
1.46388
1.5799
1.71233
1.79208
1.83369
1.84647
1.84013
1.83519
1.83241
1.83134
1.82594
1.8176
1.80852
1.80053
1.40254
1.42278
1.49711
1.63221
1.74756
1.81389
1.84775
1.85064
1.84284
1.83867
1.83616
1.83486
1.82848
1.81975
1.81106
1.80339
1.79799
1.43975
1.5378
1.68375
1.78107
1.83196
1.85615
1.8545
1.84704
1.84288
1.84052
1.83786
1.83089
1.82202
1.81384
1.80642
1.80142
1.79517
1.58497
1.72697
1.80648
1.84941
1.86347
1.85755
1.85034
1.8463
1.84499
1.84122
1.8335
1.8244
1.81663
1.80985
1.80496
1.79775
1.78968
1.76674
1.82545
1.8593
1.86891
1.86199
1.85397
1.84918
1.84783
1.84399
1.83626
1.82722
1.8195
1.81326
1.80839
1.80092
1.79233
1.78438
1.84555
1.86949
1.87206
1.86434
1.85803
1.85349
1.85122
1.84643
1.83851
1.83004
1.82261
1.81674
1.81133
1.80362
1.7955
1.78761
1.78069
1.87846
1.87788
1.86812
1.86069
1.85626
1.85531
1.84996
1.84134
1.83262
1.82554
1.82038
1.81475
1.80657
1.79814
1.79079
1.78462
1.77768
1.88112
1.8725
1.86436
1.85908
1.85746
1.85236
1.84463
1.83598
1.82856
1.82343
1.81767
1.80975
1.80151
1.7938
1.7879
1.78164
1.77337
1.87386
1.86797
1.86331
1.86073
1.8547
1.84667
1.83893
1.83198
1.82692
1.8207
1.81254
1.80462
1.7975
1.79124
1.78444
1.77705
1.76905
1.87012
1.86601
1.86457
1.85832
1.84958
1.84146
1.83484
1.83036
1.8241
1.81591
1.80774
1.80067
1.79514
1.78807
1.77977
1.77225
1.7654
1.8696
1.86657
1.86064
1.85285
1.84491
1.83794
1.83341
1.82723
1.8192
1.81139
1.80423
1.79823
1.79169
1.78377
1.77545
1.76842
1.7623
1.87043
1.86293
1.85484
1.84796
1.84165
1.83696
1.83047
1.82245
1.81465
1.8079
1.80215
1.79484
1.78715
1.77971
1.77226
1.76514
1.75817
1.86694
1.85815
1.85068
1.84469
1.84065
1.83389
1.82592
1.81831
1.81133
1.80573
1.79893
1.79067
1.78294
1.77647
1.76963
1.76127
1.75342
1.86164
1.85456
1.84823
1.84377
1.83735
1.82943
1.82197
1.81537
1.80929
1.80237
1.79487
1.78701
1.77975
1.77349
1.76602
1.7573
1.74923
1.85778
1.85255
1.84729
1.84051
1.83298
1.82562
1.81916
1.81356
1.80619
1.79826
1.79105
1.7842
1.7769
1.76955
1.76207
1.75392
1.74579
1.8557
1.85125
1.84405
1.83642
1.82949
1.82303
1.81703
1.81033
1.80245
1.79463
1.78812
1.78168
1.77344
1.76527
1.75821
1.75104
1.74241
1.8542
1.84789
1.84031
1.83321
1.82733
1.82123
1.81378
1.80641
1.79914
1.79193
1.78534
1.77824
1.7699
1.76159
1.75476
1.74761
1.73873
1.85073
1.84404
1.83747
1.83126
1.82536
1.81818
1.81013
1.80291
1.7966
1.78947
1.78175
1.77441
1.76672
1.75856
1.751
1.74363
1.73517
1.84734
1.84102
1.83564
1.82913
1.82208
1.81472
1.80712
1.80035
1.79408
1.78629
1.77801
1.77085
1.76396
1.75547
1.74684
1.73939
1.73177
1.84504
1.8392
1.83344
1.8261
1.81853
1.81168
1.80488
1.79778
1.79079
1.78308
1.77485
1.76767
1.76063
1.75204
1.74298
1.73549
1.72818
1.84368
1.83704
1.83039
1.82304
1.81573
1.80943
1.80258
1.79469
1.78729
1.78017
1.77222
1.7642
1.7568
1.74867
1.7397
1.73169
1.72418
1.8416
1.8343
1.82732
1.82056
1.8136
1.80685
1.79967
1.79168
1.78434
1.77755
1.76932
1.76046
1.75282
1.74547
1.73667
1.72772
1.71989
1.83894
1.83177
1.82501
1.81851
1.81113
1.80371
1.79662
1.7891
1.78161
1.7744
1.76613
1.75707
1.74923
1.7421
1.73336
1.72391
1.71581
1.83647
1.82967
1.82291
1.81606
1.80835
1.80073
1.79393
1.78667
1.7785
1.7708
1.76297
1.75417
1.74575
1.73834
1.72992
1.72045
1.71193
1.83435
1.82762
1.82057
1.81344
1.80585
1.79821
1.79123
1.78379
1.77528
1.76735
1.76
1.75138
1.74222
1.73436
1.72648
1.71712
1.70792
1.83229
1.82541
1.81816
1.81104
1.80366
1.79578
1.78826
1.78072
1.77233
1.76417
1.75678
1.7484
1.73895
1.73066
1.72281
1.71342
1.70379
1.83009
1.82307
1.81578
1.80871
1.80143
1.79328
1.78529
1.77777
1.76954
1.76094
1.75323
1.74531
1.73603
1.72708
1.71884
1.70945
1.6997
1.82779
1.82071
1.81337
1.80623
1.79898
1.79078
1.78252
1.7749
1.76667
1.75768
1.7496
1.74216
1.73317
1.72345
1.71469
1.70542
1.6956
1.82559
1.8184
1.81094
1.80356
1.79635
1.78835
1.77989
1.772
1.76378
1.75459
1.74605
1.73854
1.72986
1.71983
1.71064
1.70138
1.69137
1.82358
1.81626
1.8086
1.80091
1.79362
1.78587
1.77729
1.76907
1.76095
1.75177
1.74257
1.73459
1.72615
1.71617
1.70664
1.69731
1.68723
1.82163
1.81422
1.80637
1.79836
1.79084
1.78323
1.77462
1.76612
1.75805
1.74899
1.7392
1.73056
1.72217
1.71229
1.70251
1.69318
1.68321
1.81949
1.81208
1.80414
1.79585
1.78799
1.78037
1.77182
1.76306
1.7549
1.746
1.7359
1.72662
1.71807
1.70819
1.69823
1.68893
1.67914
1.81708
1.80972
1.80182
1.79329
1.78502
1.77728
1.76885
1.75982
1.75139
1.74266
1.73254
1.72277
1.71398
1.70404
1.69388
1.68451
1.67486
1.81451
1.80707
1.79932
1.79068
1.78202
1.77402
1.7657
1.75647
1.74769
1.73904
1.72905
1.71891
1.70989
1.69995
1.6895
1.6799
1.67036
1.81199
1.80427
1.79672
1.78817
1.77916
1.77079
1.76247
1.75318
1.74406
1.73538
1.72547
1.71502
1.70579
1.6959
1.68521
1.67517
1.66569
1.80967
1.80155
1.79396
1.78585
1.77656
1.76774
1.75931
1.74999
1.74064
1.73186
1.72203
1.71124
1.70171
1.69192
1.68114
1.67053
1.66081
1.8079
1.79923
1.7912
1.78339
1.77444
1.76505
1.75627
1.74701
1.73747
1.72853
1.7188
1.70768
1.69775
1.68798
1.67724
1.66629
1.65593
1.80594
1.79741
1.78886
1.78087
1.77216
1.76269
1.75351
1.74403
1.7343
1.72516
1.71552
1.70429
1.6939
1.68405
1.67344
1.66233
1.65158
1.80395
1.79547
1.78676
1.77845
1.76973
1.7602
1.75086
1.74119
1.73115
1.72175
1.71216
1.7009
1.69008
1.67981
1.66932
1.65839
1.64748
1.80209
1.79358
1.78465
1.77598
1.76719
1.75766
1.74819
1.73838
1.72798
1.7182
1.70866
1.69755
1.68633
1.67533
1.66444
1.65379
1.64316
1.80019
1.79166
1.78261
1.77355
1.7645
1.75489
1.74526
1.73537
1.72481
1.71469
1.70508
1.69417
1.68275
1.67118
1.65948
1.64818
1.63763
1.79822
1.78952
1.78049
1.77129
1.76199
1.75215
1.74219
1.73208
1.72138
1.71089
1.70112
1.69053
1.6792
1.66739
1.65526
1.64311
1.6311
1.79632
1.78727
1.77808
1.76882
1.75953
1.74973
1.73954
1.72905
1.71801
1.70695
1.69629
1.68561
1.67492
1.66356
1.6516
1.63901
1.62598
1.79473
1.78533
1.77553
1.7658
1.75621
1.74647
1.73654
1.72643
1.71563
1.70388
1.69209
1.68021
1.66867
1.65815
1.64732
1.6355
1.62243
1.79294
1.78393
1.77413
1.76348
1.75292
1.74258
1.73233
1.72244
1.71227
1.70149
1.68977
1.67662
1.66326
1.65055
1.64003
1.63038
1.61884
1.79
1.78115
1.77205
1.76243
1.7517
1.73998
1.72813
1.71666
1.70644
1.69705
1.68684
1.67528
1.66129
1.64584
1.63144
1.62028
1.61179
1.40001
1.40001
1.40001
1.40001
1.40001
1.40001
1.40001
1.40001
1.40001
1.40001
1.40001
1.40001
1.40001
1.40001
1.40001
1.40001
1.40001
1.40001
1.40001
1.40001
1.40001
1.40001
1.40001
1.40001
1.40001
1.40001
1.40001
1.40001
1.40001
1.40001
1.40001
1.40001
1.40001
1.40001
1.40001
1.40001
1.40001
1.40001
1.40001
1.40001
1.40001
1.40001
1.40001
1.40001
1.40001
1.40001
1.40001
1.40001
1.40001
1.40001
1.40001
1.40001
1.40001
1.40001
1.40001
1.40001
1.40001
1.40001
1.40001
1.40001
1.40001
1.40001
1.40001
1.40001
1.40001
1.40001
1.40001
1.40001
1.40001
1.40001
1.40001
1.40001
1.40001
1.40001
1.40001
1.40001
1.40001
1.40001
1.40001
1.40001
1.40001
1.40001
1.40001
1.40001
1.40001
1.40001
1.40001
1.40001
1.40001
1.40001
1.40001
1.40001
1.40001
1.40001
1.40001
1.40001
1.40001
1.40001
1.40001
1.40001
1.40001
1.40001
1.40001
1.40001
1.40001
1.40001
1.40001
1.40001
1.40001
1.40001
1.40001
1.40001
1.40001
1.40001
1.40001
1.40001
1.40001
1.40001
1.40001
1.40001
1.40001
1.40001
1.40001
1.40001
1.40001
1.40001
1.40001
1.40001
1.40001
1.40001
1.40001
1.40001
1.40001
1.40001
1.40001
1.40001
1.40001
1.40001
1.40001
1.40001
1.40001
1.40001
1.40001
1.40001
1.40001
1.40001
1.40001
1.40001
1.40001
1.40001
1.40001
1.40001
1.40001
1.40001
1.40001
1.40001
1.40001
1.40001
1.40001
1.40001
1.40001
1.40001
1.40001
1.40001
1.40001
1.40001
1.40001
1.40001
1.40001
1.40001
1.40001
1.40001
1.40001
1.40001
1.40001
1.40001
1.40001
1.40001
1.40001
1.40001
1.40001
1.40001
1.40001
1.40001
1.40001
1.40001
1.40001
1.40001
1.40001
1.40001
1.40001
1.40001
1.40001
1.40001
1.40001
1.40001
1.40001
1.40001
1.40001
1.40001
1.40001
1.40001
1.40001
1.40001
1.40001
1.40001
1.40001
1.40001
1.40001
1.40001
1.40001
1.40001
1.40001
1.40001
1.40001
1.40001
1.40001
1.40001
1.40001
1.40001
1.40001
1.40001
1.40001
1.40001
1.40001
1.40001
1.40001
1.40001
1.40001
1.40001
1.40001
1.40001
1.40001
1.40001
1.40001
1.40001
1.40001
1.40001
1.40001
1.40001
1.40001
1.40001
1.40001
1.40001
1.40001
1.40001
1.40001
1.40001
1.40001
1.40001
1.40001
1.40001
1.40001
1.40001
1.40001
1.40001
1.40001
1.40001
1.40001
1.40001
1.40001
1.40001
1.40001
1.40001
1.40001
1.40001
1.40001
1.40001
1.40001
1.40001
1.40001
1.40001
1.40001
1.40001
1.40001
1.40001
1.40001
1.40001
1.40001
1.40001
1.40001
1.40001
1.40001
1.40001
1.40001
1.40001
1.40001
1.40001
1.40001
1.40001
1.40001
1.40001
1.40001
1.40001
1.40001
1.40001
1.40001
1.40001
1.40001
1.40001
1.40001
1.40001
1.40001
1.40001
1.40001
1.40001
1.40001
1.40001
1.40001
1.40001
1.40001
1.40001
1.40001
1.40001
1.40001
1.40001
1.40001
1.40001
1.40001
1.40001
1.40001
1.40001
1.40001
1.40001
1.40001
1.40001
1.40001
1.40001
1.40001
1.40001
1.40001
1.40001
1.40001
1.40001
1.40001
1.40001
1.40001
1.40001
1.40001
1.40001
1.40001
1.40001
1.40001
1.40001
1.40001
1.40001
1.40001
1.40001
1.40001
1.40001
1.40001
1.40001
1.40001
1.40001
1.40001
1.40001
1.40001
1.40001
1.40001
1.40001
1.40001
1.40001
1.40001
1.40001
1.40001
1.40001
1.40001
1.40001
1.40001
1.40001
1.40001
1.40001
1.40001
1.40001
1.40001
1.40001
1.40001
1.40001
1.40001
1.40001
1.40001
1.40001
1.40001
1.40001
1.40001
1.40001
1.40001
1.40001
1.40001
1.40001
1.40001
1.40001
1.40001
1.40001
1.40001
1.40001
1.40001
1.40001
1.40001
1.40001
1.40001
1.40001
1.40001
1.40001
1.40001
1.40001
1.40001
1.40001
1.40001
1.40001
1.40001
1.40001
1.40001
1.40001
1.40001
1.40001
1.40001
1.40001
1.40001
1.40001
1.40001
1.40001
1.40001
1.40001
1.40001
1.40001
1.40001
1.40001
1.40001
1.40001
1.40001
1.40001
1.40001
1.40001
1.40001
1.40001
1.40001
1.40001
1.40001
1.40001
1.40001
1.40001
1.40001
1.40001
1.40001
1.40001
1.40001
1.40001
1.40001
1.40001
1.40001
1.40001
1.40001
1.40001
1.40001
1.40012
1.40001
1.40001
1.40001
1.40001
1.40033
1.40559
1.40001
1.40001
1.40003
1.40087
1.41132
1.46475
1.40001
1.40008
1.402
1.4208
1.4972
1.63863
1.40023
1.40446
1.4355
1.53467
1.68754
1.7982
1.40924
1.4584
1.58155
1.73459
1.81643
1.85924
1.48794
1.63042
1.78053
1.84055
1.86756
1.88187
1.67845
1.80661
1.85809
1.8834
1.88711
1.88196
1.83063
1.86474
1.88814
1.89412
1.88806
1.87711
1.88172
1.89097
1.89447
1.88968
1.88162
1.87455
1.90342
1.89905
1.88983
1.88233
1.8775
1.87488
1.90434
1.89627
1.88599
1.87952
1.87681
1.87388
1.89733
1.89101
1.88481
1.88025
1.8757
1.86907
1.89114
1.88825
1.88601
1.87986
1.87162
1.86399
1.88963
1.88676
1.88303
1.87609
1.86784
1.86077
1.88994
1.88447
1.87853
1.87206
1.86531
1.8594
1.88861
1.88107
1.87446
1.86898
1.86426
1.85773
1.88565
1.87869
1.87223
1.86727
1.86197
1.85473
1.8831
1.87723
1.87114
1.86508
1.85889
1.85203
1.88069
1.87575
1.86937
1.86233
1.85581
1.84992
1.87846
1.87324
1.86707
1.86009
1.85361
1.84794
1.87643
1.87059
1.86481
1.85832
1.8517
1.84551
1.87477
1.86845
1.86262
1.85655
1.84975
1.84301
1.87329
1.86673
1.86058
1.85457
1.84784
1.84091
1.87167
1.86517
1.85871
1.85248
1.84588
1.83898
1.86981
1.86355
1.85693
1.85042
1.84382
1.83693
1.86795
1.86176
1.85514
1.84846
1.84178
1.83481
1.86624
1.85989
1.85332
1.84658
1.83982
1.83277
1.86465
1.85811
1.85151
1.84472
1.83788
1.83083
1.8631
1.85647
1.84975
1.84286
1.8359
1.82886
1.86148
1.85482
1.84803
1.84104
1.83391
1.82673
1.85983
1.85309
1.84625
1.83925
1.83195
1.82448
1.85824
1.85136
1.84437
1.83732
1.82996
1.82223
1.85669
1.84966
1.8424
1.83521
1.82792
1.82008
1.85499
1.8479
1.84048
1.83303
1.82573
1.81805
1.8532
1.8461
1.83885
1.83113
1.82349
1.81601
1.8515
1.84421
1.83713
1.82964
1.82155
1.81377
1.85014
1.8428
1.83546
1.82801
1.82006
1.81195
1.84892
1.84158
1.83403
1.82645
1.8185
1.81025
1.84792
1.84044
1.83266
1.82489
1.81695
1.80858
1.84704
1.83941
1.83143
1.82338
1.81534
1.80689
1.84606
1.83835
1.83037
1.8221
1.81376
1.80521
1.84489
1.83705
1.82908
1.82083
1.81231
1.80364
1.84385
1.83565
1.82736
1.81894
1.8104
1.80171
1.84321
1.83491
1.82608
1.81703
1.80797
1.79891
)
;

boundaryField
{
    inlet
    {
        type            calculated;
        value           nonuniform 0();
    }
    outlet
    {
        type            calculated;
        value           nonuniform 0();
    }
    triangle
    {
        type            calculated;
        value           nonuniform 0();
    }
    top
    {
        type            symmetryPlane;
    }
    bottom
    {
        type            symmetryPlane;
    }
    defaultFaces
    {
        type            empty;
    }
    procBoundary5to4
    {
        type            processor;
        value           nonuniform List<scalar> 
119
(
1.40001
1.40001
1.40001
1.40001
1.40001
1.40001
1.40001
1.40001
1.40001
1.40001
1.40001
1.40001
1.40001
1.40001
1.40001
1.40001
1.40001
1.40001
1.40001
1.40001
1.40001
1.40001
1.40001
1.40001
1.40001
1.40001
1.40001
1.40001
1.40001
1.40001
1.40001
1.40001
1.40001
1.40001
1.40001
1.40001
1.40001
1.40001
1.40001
1.40001
1.40001
1.40001
1.40001
1.40001
1.40001
1.40001
1.40001
1.40001
1.40001
1.40001
1.40001
1.40001
1.40001
1.40001
1.40001
1.40001
1.40001
1.40001
1.40001
1.40001
1.40001
1.40001
1.40001
1.40001
1.40001
1.40001
1.40001
1.40001
1.40001
1.40001
1.40001
1.40001
1.40001
1.40001
1.40001
1.40001
1.40001
1.40001
1.40001
1.40001
1.4006
1.41691
1.52573
1.73569
1.86058
1.89634
1.90561
1.90263
1.89708
1.89562
1.89531
1.8948
1.89159
1.88845
1.88611
1.88431
1.88274
1.88124
1.87953
1.87756
1.87563
1.87406
1.87269
1.87123
1.86957
1.86789
1.86635
1.86485
1.86334
1.8618
1.86031
1.85881
1.85731
1.85607
1.85511
1.85436
1.85354
1.85259
1.85178
)
;
    }
    procBoundary5to6
    {
        type            processor;
        value           nonuniform List<scalar> 
140
(
1.59396
1.58725
1.58215
1.5785
1.57632
1.57587
1.57543
1.57386
1.5713
1.56798
1.5642
1.56024
1.55603
1.55138
1.54605
1.54055
1.53645
1.5335
1.53128
1.52904
1.40001
1.40001
1.40001
1.40001
1.40001
1.40001
1.40001
1.40001
1.40001
1.40001
1.40001
1.40001
1.40001
1.40001
1.40001
1.40001
1.40001
1.40001
1.40001
1.40001
1.40001
1.40001
1.40001
1.40001
1.40001
1.40001
1.40001
1.40001
1.40001
1.40001
1.40001
1.40001
1.40001
1.40001
1.40001
1.40001
1.40001
1.40001
1.40001
1.40001
1.40001
1.40001
1.40001
1.40001
1.40001
1.40001
1.40001
1.40001
1.40001
1.40001
1.40001
1.40001
1.40001
1.40001
1.40001
1.40001
1.40001
1.40001
1.40001
1.40001
1.40001
1.40001
1.40031
1.40987
1.48039
1.63683
1.7513
1.80446
1.80801
1.80917
1.81278
1.81102
1.80425
1.79783
1.79405
1.79201
1.78702
1.78192
1.7779
1.77486
1.77008
1.7649
1.76092
1.75808
1.7545
1.75039
1.74628
1.74259
1.73859
1.73409
1.72986
1.7262
1.72279
1.71911
1.7153
1.71152
1.70765
1.70358
1.69929
1.69504
1.69082
1.68637
1.68178
1.67724
1.67275
1.66823
1.66366
1.65909
1.65448
1.6497
1.64451
1.63957
1.63533
1.63111
1.62636
1.61968
1.61263
1.60796
1.60554
1.60127
)
;
    }
    procBoundary5to12
    {
        type            processor;
        value           nonuniform List<scalar> 
21
(
1.84986
1.84929
1.84903
1.84912
1.84912
1.84858
1.84768
1.84657
1.84557
1.84524
1.84633
1.84703
1.84649
1.84522
1.8434
1.84212
1.84176
1.84308
1.84453
1.84476
1.85084
)
;
    }
    procBoundary5to13
    {
        type            processor;
        value           nonuniform List<scalar> 
25
(
1.83453
1.82281
1.81036
1.80008
1.79123
1.78117
1.78117
1.70709
1.69247
1.6759
1.66143
1.64882
1.63539
1.61945
1.60132
1.58509
1.57173
1.55865
1.54364
1.76861
1.75531
1.74054
1.72758
1.70709
1.71609
)
;
    }
}


// ************************************************************************* //
