/*--------------------------------*- C++ -*----------------------------------*\
  =========                 |
  \\      /  F ield         | OpenFOAM: The Open Source CFD Toolbox
   \\    /   O peration     | Website:  https://openfoam.org
    \\  /    A nd           | Version:  7
     \\/     M anipulation  |
\*---------------------------------------------------------------------------*/
FoamFile
{
    version     2.0;
    format      ascii;
    class       volScalarField;
    location    "0.1";
    object      rho;
}
// * * * * * * * * * * * * * * * * * * * * * * * * * * * * * * * * * * * * * //

dimensions      [1 -3 0 0 0 0 0];

internalField   nonuniform List<scalar> 
3225
(
0.430133
0.437877
0.441581
0.445693
0.456518
0.46899
0.486674
0.520214
0.614802
0.747493
0.835349
0.884022
0.920105
0.954289
0.986632
1.01669
1.04304
1.06577
1.08694
1.1074
1.12418
0.418432
0.425722
0.428823
0.431837
0.442349
0.455001
0.472178
0.505593
0.603534
0.735371
0.829711
0.880442
0.916865
0.950779
0.982948
1.01368
1.0406
1.06329
1.08423
1.10466
1.12155
0.403347
0.409844
0.412581
0.415025
0.425474
0.439027
0.455959
0.489359
0.589051
0.726902
0.826089
0.875703
0.912742
0.94706
0.980078
1.01153
1.03844
1.06085
1.0816
1.10199
1.11892
0.384647
0.39057
0.393721
0.396352
0.406795
0.421618
0.438934
0.47235
0.573843
0.717925
0.818253
0.870042
0.909326
0.94517
0.978749
1.00933
1.03585
1.05826
1.079
1.09935
1.11625
0.364357
0.370137
0.373453
0.376836
0.38757
0.403753
0.421331
0.454308
0.559326
0.712153
0.812799
0.866685
0.908856
0.945211
0.976535
1.00589
1.03299
1.05582
1.0765
1.09672
1.11357
0.343617
0.349588
0.353882
0.358728
0.370005
0.387331
0.405516
0.438847
0.551263
0.704604
0.808081
0.866666
0.908987
0.942507
0.971727
1.00228
1.03074
1.05367
1.07403
1.09414
1.11095
0.320789
0.327301
0.333767
0.340545
0.352301
0.369628
0.388045
0.421841
0.537119
0.692416
0.808177
0.866482
0.904812
0.936268
0.96723
1.00019
1.02901
1.05138
1.07152
1.09167
1.10842
0.297487
0.305425
0.314651
0.32379
0.336146
0.353568
0.371914
0.405917
0.52235
0.686615
0.809194
0.860103
0.897821
0.93204
0.966249
0.999211
1.02662
1.04868
1.06906
1.0893
1.10591
0.273188
0.282753
0.294501
0.306539
0.320192
0.337592
0.355465
0.389445
0.508511
0.688708
0.802674
0.852226
0.894681
0.932945
0.966989
0.996554
1.02329
1.04602
1.06675
1.08698
1.10335
0.247605
0.258195
0.273061
0.288287
0.302931
0.320184
0.337834
0.372091
0.500876
0.69207
0.792942
0.848851
0.897271
0.934861
0.963947
0.992043
1.0202
1.04375
1.0645
1.08463
1.10077
0.222323
0.233319
0.250268
0.268161
0.284214
0.302031
0.31987
0.354958
0.492725
0.687573
0.789598
0.852614
0.899456
0.931116
0.957771
0.988437
1.01811
1.04159
1.06221
1.08231
1.09821
0.199519
0.20896
0.22768
0.248055
0.265662
0.283435
0.301166
0.337424
0.482208
0.683431
0.794454
0.855475
0.894545
0.924016
0.954256
0.987088
1.01617
1.03918
1.05993
1.08005
1.09564
0.177789
0.18598
0.205788
0.227973
0.246454
0.264859
0.283078
0.321407
0.473115
0.685735
0.80145
0.849272
0.88709
0.921464
0.954821
0.985669
1.01345
1.03667
1.0577
1.07773
1.09295
0.158448
0.166421
0.184687
0.207395
0.227431
0.247859
0.267152
0.307186
0.472788
0.700061
0.796826
0.841016
0.885849
0.923472
0.953895
0.98225
1.01049
1.03428
1.05535
1.07524
1.09021
0.143666
0.149411
0.166172
0.187214
0.209497
0.23002
0.250029
0.292813
0.477815
0.713462
0.786035
0.840117
0.889861
0.922709
0.948971
0.978564
1.00815
1.03186
1.05279
1.07275
1.08759
0.132683
0.137196
0.150362
0.169854
0.191809
0.212266
0.232368
0.279843
0.487511
0.714061
0.7859
0.846795
0.889938
0.917173
0.944885
0.977081
1.00621
1.02917
1.0503
1.07053
1.08513
0.126568
0.128458
0.136134
0.152627
0.172803
0.196193
0.218564
0.268229
0.496983
0.71486
0.791711
0.851017
0.883966
0.912932
0.945148
0.976754
1.00372
1.02649
1.04821
1.06855
1.08259
0.121459
0.121152
0.124556
0.136288
0.158068
0.181866
0.203864
0.257312
0.521902
0.731281
0.804647
0.845729
0.8777
0.913366
0.946555
0.974676
1.00076
1.0243
1.04645
1.06647
1.07974
0.114747
0.113681
0.115971
0.125455
0.145332
0.166365
0.182736
0.253481
0.572981
0.750136
0.805469
0.836317
0.875992
0.915737
0.944432
0.970838
0.99837
1.02257
1.04454
1.06399
1.07661
0.104447
0.105365
0.10784
0.116939
0.131541
0.149744
0.167637
0.284343
0.634824
0.759462
0.794172
0.829884
0.878729
0.914458
0.939148
0.968057
0.996944
1.02071
1.04215
1.06124
1.07351
0.0946985
0.0949864
0.0997828
0.10888
0.121489
0.137669
0.155173
0.347671
0.655378
0.748809
0.777937
0.82796
0.88056
0.908818
0.935753
0.967539
0.995612
1.01827
1.03955
1.05865
1.07064
0.0912184
0.089333
0.0907544
0.0975143
0.111586
0.12675
0.148111
0.399443
0.665915
0.722136
0.765081
0.831983
0.876119
0.903821
0.935824
0.967406
0.993366
1.01555
1.03726
1.05641
1.06787
0.0911863
0.0896746
0.0884267
0.0899723
0.100335
0.113217
0.175238
0.463023
0.652623
0.690305
0.761031
0.831945
0.868139
0.902994
0.93672
0.965481
0.9904
1.01319
1.03546
1.0543
1.06492
0.0918526
0.0936149
0.0901136
0.0899005
0.0947767
0.101762
0.214437
0.478102
0.613094
0.668305
0.763303
0.822507
0.864038
0.904407
0.934916
0.961855
0.9878
1.01145
1.03383
1.05195
1.06162
0.0963958
0.099941
0.0956819
0.094906
0.092036
0.114635
0.268297
0.462161
0.56565
0.654829
0.754467
0.81259
0.865516
0.903212
0.930152
0.95875
0.986142
1.00994
1.03196
1.04923
1.05812
0.101253
0.103825
0.100073
0.0991656
0.0986548
0.193948
0.312945
0.425519
0.525583
0.639933
0.739846
0.811374
0.866619
0.897918
0.92625
0.957453
0.98494
1.00817
1.02975
1.04632
1.05461
0.1019
0.105523
0.105581
0.120841
0.1617
0.235574
0.310794
0.393024
0.501617
0.624815
0.73496
0.814175
0.862108
0.893039
0.925476
0.95706
0.983352
1.00602
1.02744
1.04345
1.05117
0.100684
0.103842
0.116934
0.143247
0.185373
0.240626
0.309864
0.383645
0.49213
0.618201
0.737446
0.811919
0.855454
0.892348
0.926139
0.955854
0.981099
1.00379
1.02528
1.04064
1.0477
0.102163
0.102957
0.123173
0.151337
0.186372
0.236745
0.299685
0.378446
0.485532
0.620335
0.737517
0.804307
0.853536
0.89392
0.925111
0.953211
0.978666
1.00182
1.02325
1.03775
1.04407
0.111069
0.105514
0.12842
0.152481
0.185872
0.227964
0.282019
0.367723
0.481892
0.625519
0.73143
0.79872
0.855958
0.89338
0.921168
0.950186
0.976667
1.00007
1.02113
1.03461
1.04024
0.139305
0.113707
0.134431
0.153392
0.188237
0.225381
0.27372
0.364138
0.48721
0.627338
0.720781
0.800376
0.857942
0.88839
0.916541
0.948313
0.975157
0.998294
1.01878
1.03124
1.03629
0.188532
0.127708
0.137585
0.155609
0.189752
0.228555
0.277731
0.369174
0.492536
0.619966
0.716825
0.807153
0.855026
0.881405
0.91455
0.947756
0.973606
0.996306
1.01624
1.02769
1.03227
0.223352
0.158355
0.138855
0.155609
0.185992
0.22635
0.280156
0.369871
0.488746
0.609875
0.725025
0.81087
0.846954
0.878128
0.915426
0.947123
0.97157
0.994218
1.0136
1.02399
1.02823
0.2506
0.213096
0.144171
0.153465
0.178936
0.219041
0.279111
0.36885
0.486126
0.616322
0.737099
0.806606
0.840266
0.879649
0.916477
0.945151
0.969256
0.992228
1.01081
1.02007
1.02419
0.276928
0.257872
0.172043
0.155931
0.178158
0.219982
0.285833
0.37746
0.496646
0.632559
0.743105
0.795657
0.839826
0.882563
0.914938
0.942077
0.967284
0.990302
1.00772
1.01591
1.02019
0.299523
0.295595
0.243239
0.171249
0.186049
0.228607
0.298183
0.394427
0.516737
0.64883
0.739045
0.789724
0.844284
0.882496
0.910485
0.939646
0.965917
0.988109
1.0042
1.01158
1.01628
0.328132
0.330697
0.31527
0.220206
0.200111
0.243026
0.32032
0.422113
0.542744
0.657471
0.727486
0.793701
0.848042
0.87717
0.906333
0.939041
0.964635
0.985314
1.00036
1.00723
1.01245
0.367022
0.362193
0.370953
0.331695
0.229699
0.260052
0.343613
0.447364
0.559527
0.654941
0.726184
0.802979
0.84631
0.870022
0.906123
0.939548
0.962552
0.981969
0.996435
1.00297
1.00867
0.407636
0.402361
0.4152
0.420519
0.34481
0.287173
0.358689
0.461601
0.56967
0.647566
0.735423
0.809059
0.837826
0.867329
0.908885
0.939055
0.959287
0.978551
0.992644
0.99878
1.00492
0.448316
0.447546
0.459821
0.48592
0.493784
0.399412
0.380777
0.468659
0.570305
0.65555
0.749485
0.806218
0.829709
0.870258
0.911246
0.936168
0.955457
0.975509
0.988969
0.994645
1.00122
0.488157
0.492832
0.509177
0.540053
0.586708
0.611143
0.534257
0.506427
0.577419
0.671028
0.759785
0.79767
0.829764
0.875126
0.910101
0.931533
0.951949
0.972615
0.985063
0.99049
0.997612
0.526544
0.536687
0.558847
0.595213
0.652863
0.730886
0.78454
0.7815
0.761638
0.771379
0.797206
0.804306
0.838844
0.879406
0.907777
0.928928
0.949727
0.969357
0.980281
0.985941
0.993925
0.56314
0.57962
0.606541
0.650935
0.708036
0.796976
0.897441
0.983737
1.04521
1.08468
1.06586
1.02547
0.988607
0.953562
0.929372
0.931985
0.949229
0.966694
0.974575
0.980322
0.989392
0.597363
0.621154
0.651909
0.702633
0.763607
0.843548
0.942699
1.0468
1.13362
1.20461
1.23299
1.25464
1.25131
1.21064
1.13983
1.05375
0.989456
0.966977
0.970517
0.974203
0.982993
0.628518
0.658281
0.693957
0.745822
0.811617
0.885773
0.976163
1.07048
1.14747
1.20671
1.25582
1.29839
1.32552
1.34018
1.33303
1.28063
1.18967
1.07856
0.993992
0.970746
0.977225
0.654307
0.691419
0.732021
0.782721
0.850132
0.924586
1.00513
1.09346
1.16168
1.21881
1.27226
1.31105
1.34115
1.36897
1.37882
1.36688
1.33447
1.2683
1.15077
1.02463
0.977886
0.675629
0.717856
0.765238
0.816448
0.881602
0.957134
1.0312
1.10798
1.17891
1.24094
1.28918
1.3204
1.35127
1.37844
1.38414
1.3792
1.37164
1.34685
1.29269
1.18641
1.04927
0.69295
0.737923
0.79159
0.847515
0.910273
0.983638
1.0552
1.12446
1.1974
1.25743
1.29909
1.32811
1.35753
1.37859
1.38394
1.38505
1.38177
1.36686
1.3375
1.2917
1.1989
0.708862
0.753793
0.810066
0.871727
0.933728
1.00308
1.07434
1.14016
1.20834
1.26214
1.30278
1.33534
1.36207
1.37826
1.38635
1.3923
1.39078
1.37473
1.35074
1.32421
1.28405
0.725133
0.768852
0.823373
0.886718
0.949551
1.01549
1.08518
1.14893
1.20744
1.25749
1.30203
1.34139
1.36909
1.3833
1.39168
1.39812
1.39804
1.38209
1.3573
1.33608
1.31172
0.742107
0.785329
0.835762
0.896314
0.959614
1.02266
1.08769
1.14909
1.20279
1.25488
1.30511
1.34836
1.37759
1.39188
1.39826
1.40254
1.4029
1.3886
1.3639
1.34275
1.32358
0.757513
0.802918
0.850834
0.906839
0.96892
1.03068
1.09089
1.15039
1.20478
1.25921
1.3103
1.35353
1.38456
1.39951
1.40378
1.4055
1.40523
1.39349
1.37086
1.34915
1.32976
0.769873
0.81821
0.868428
0.92277
0.983044
1.04486
1.10298
1.16051
1.2143
1.26601
1.31253
1.35444
1.38786
1.40371
1.40714
1.40745
1.4066
1.39706
1.3772
1.3556
1.33463
0.779709
0.829369
0.883617
0.938792
0.998354
1.06108
1.12053
1.17703
1.22748
1.2713
1.31158
1.35301
1.38773
1.40431
1.40809
1.40827
1.40731
1.39999
1.38301
1.36159
1.33909
0.78846
0.836755
0.89213
0.950477
1.00893
1.07073
1.13187
1.18862
1.23748
1.27617
1.31287
1.35268
1.38531
1.40257
1.40785
1.40835
1.40701
1.40129
1.38741
1.36776
1.34303
0.796978
0.842056
0.894599
0.952692
1.01166
1.07194
1.13214
1.18863
1.23978
1.2825
1.31992
1.35414
1.38029
1.39808
1.40718
1.40972
1.4072
1.40106
1.39049
1.37288
1.34608
0.801616
0.846422
0.895535
0.951132
1.00874
1.06758
1.12773
1.18637
1.24169
1.29052
1.32958
1.35611
1.37493
1.39305
1.40659
1.41085
1.40679
1.3999
1.393
1.37657
1.34861
0.801449
0.848423
0.898249
0.952989
1.00926
1.0669
1.12563
1.18387
1.24052
1.29248
1.33281
1.3571
1.37387
1.39174
1.40677
1.41093
1.40543
1.3983
1.39425
1.37886
1.35109
0.799457
0.84938
0.902351
0.95742
1.01467
1.0727
1.12885
1.18341
1.23655
1.28599
1.32587
1.35463
1.37583
1.39398
1.40729
1.40967
1.40325
1.39656
1.39453
1.37954
1.35206
0.797224
0.849336
0.905121
0.962054
1.02073
1.07933
1.13464
1.1864
1.23377
1.27861
1.32085
1.35534
1.37972
1.39686
1.40727
1.40865
1.40317
1.39776
1.39567
1.38088
1.35351
0.797224
0.849336
0.905121
0.962054
1.02073
1.07933
1.13464
1.1864
1.23377
1.27861
1.32085
1.35534
1.37972
1.39686
1.40727
1.40865
1.40317
1.39776
1.39567
1.38088
1.35351
1.32076
0.799457
0.84938
0.902351
0.95742
1.01467
1.0727
1.12885
1.18341
1.23655
1.28599
1.32587
1.35463
1.37583
1.39398
1.40729
1.40967
1.40325
1.39656
1.39453
1.37954
1.35206
1.31956
0.801449
0.848423
0.898249
0.952989
1.00926
1.0669
1.12563
1.18387
1.24052
1.29248
1.33281
1.3571
1.37387
1.39174
1.40677
1.41093
1.40543
1.3983
1.39425
1.37886
1.35109
1.31988
0.801616
0.846422
0.895535
0.951132
1.00874
1.06758
1.12773
1.18637
1.24169
1.29052
1.32958
1.35611
1.37493
1.39305
1.40659
1.41085
1.40679
1.3999
1.393
1.37657
1.34861
1.31852
0.796978
0.842056
0.894599
0.952692
1.01166
1.07194
1.13214
1.18863
1.23978
1.2825
1.31992
1.35414
1.38029
1.39808
1.40718
1.40972
1.4072
1.40106
1.39049
1.37288
1.34608
1.31756
0.78846
0.836755
0.89213
0.950477
1.00893
1.07073
1.13187
1.18862
1.23748
1.27617
1.31287
1.35268
1.38531
1.40257
1.40785
1.40835
1.40701
1.40129
1.38741
1.36776
1.34303
1.31614
0.779709
0.829369
0.883617
0.938792
0.998354
1.06108
1.12053
1.17703
1.22748
1.2713
1.31158
1.35301
1.38773
1.40431
1.40809
1.40827
1.40731
1.39999
1.6408
1.62746
1.6148
1.60275
1.59156
1.58143
1.57268
1.56557
1.5595
1.84206
1.82141
1.80076
1.78215
1.76404
1.74552
1.72821
1.71066
1.69528
1.67867
1.66296
1.64802
1.63475
1.62207
1.6096
1.59754
1.58608
1.57523
1.56503
1.55581
1.54836
1.83388
1.81389
1.79412
1.77568
1.75731
1.73814
1.72162
1.70417
1.68779
1.67154
1.65681
1.64197
1.6283
1.61538
1.60293
1.59102
1.57967
1.56883
1.5585
1.54892
1.54078
1.82622
1.80722
1.78787
1.76825
1.75013
1.73136
1.71435
1.69745
1.6805
1.6646
1.65031
1.63588
1.62187
1.60869
1.59632
1.58468
1.57371
1.56337
1.55366
1.54447
1.53577
1.82024
1.80028
1.78088
1.76115
1.74271
1.72477
1.70696
1.69021
1.67357
1.65807
1.64331
1.62907
1.6154
1.60248
1.59031
1.57883
1.56807
1.55797
1.54841
1.53916
1.5301
1.81378
1.79312
1.77335
1.75455
1.73539
1.71753
1.69974
1.68304
1.66664
1.65123
1.63622
1.62214
1.6089
1.59619
1.58406
1.57263
1.56196
1.55196
1.54248
1.53344
1.52495
1.80632
1.78611
1.76617
1.74756
1.728
1.71014
1.69279
1.67573
1.65932
1.64419
1.62956
1.61545
1.60209
1.58942
1.57741
1.56614
1.55564
1.54588
1.53679
1.52826
1.52019
1.79902
1.77928
1.75892
1.73998
1.72087
1.7028
1.68531
1.66839
1.65232
1.63707
1.6225
1.60848
1.59525
1.58277
1.57097
1.55989
1.54959
1.5401
1.53133
1.5231
1.51512
1.79198
1.77175
1.75156
1.73235
1.71348
1.69541
1.6778
1.66108
1.64511
1.62976
1.61524
1.60147
1.58844
1.57615
1.56459
1.55377
1.54366
1.53431
1.52567
1.51761
1.50992
1.7845
1.7641
1.74417
1.72467
1.70596
1.68782
1.67016
1.65363
1.63774
1.62246
1.60794
1.59428
1.58146
1.56941
1.55809
1.54747
1.53753
1.5283
1.5198
1.51204
1.50489
1.77702
1.7564
1.73666
1.71692
1.69822
1.67997
1.66253
1.6461
1.63004
1.61488
1.60064
1.58715
1.57439
1.56243
1.55133
1.54101
1.53136
1.52238
1.51415
1.50669
1.49982
1.76954
1.74884
1.72884
1.70897
1.69043
1.672
1.65462
1.63827
1.62233
1.60729
1.59314
1.57975
1.56717
1.55546
1.54463
1.5346
1.52526
1.51653
1.50844
1.50107
1.49438
1.76186
1.74097
1.7208
1.70109
1.68236
1.66378
1.64668
1.63036
1.6144
1.59937
1.58542
1.57235
1.56002
1.54846
1.53779
1.52804
1.51901
1.51054
1.50263
1.49542
1.48898
1.75386
1.73308
1.71267
1.69306
1.67411
1.65559
1.63854
1.6221
1.60629
1.59149
1.5777
1.56476
1.55261
1.54129
1.53086
1.52133
1.51258
1.50443
1.49677
1.48972
1.48347
1.74581
1.72508
1.70441
1.6849
1.66569
1.64724
1.63025
1.61382
1.59808
1.5834
1.56978
1.5571
1.54521
1.53408
1.52381
1.51447
1.506
1.49819
1.49089
1.4841
1.47795
1.73736
1.71682
1.69612
1.6765
1.65715
1.63887
1.62179
1.6053
1.58971
1.57527
1.56186
1.54933
1.53763
1.52676
1.51673
1.5076
1.49937
1.49187
1.48489
1.4783
1.47226
1.72853
1.70819
1.68764
1.66792
1.64853
1.63027
1.6131
1.59673
1.58133
1.56699
1.55371
1.54144
1.53006
1.51944
1.50959
1.50062
1.49257
1.48532
1.47868
1.47247
1.46672
1.71879
1.69908
1.67899
1.65912
1.63976
1.62158
1.60434
1.58796
1.5727
1.55862
1.5456
1.53352
1.52231
1.51192
1.50234
1.49359
1.48573
1.47874
1.47246
1.46661
1.46111
1.70823
1.68933
1.66979
1.65013
1.63096
1.61264
1.59529
1.5791
1.56409
1.55015
1.53723
1.52535
1.51446
1.5044
1.49509
1.48653
1.47884
1.47207
1.46608
1.46064
1.45552
1.69669
1.67876
1.66004
1.64086
1.6219
1.60356
1.58622
1.5701
1.55519
1.54145
1.52879
1.51716
1.50649
1.4967
1.48769
1.47941
1.47196
1.46541
1.45971
1.45464
1.44991
1.68424
1.6674
1.64954
1.63114
1.61264
1.59432
1.5769
1.5609
1.54623
1.53265
1.5201
1.50867
1.49833
1.48891
1.48024
1.47227
1.46506
1.4587
1.45323
1.44853
1.44428
1.67095
1.65501
1.63824
1.62085
1.60291
1.58483
1.56756
1.55163
1.53697
1.52351
1.51125
1.50013
1.49005
1.48092
1.47259
1.465
1.45811
1.45202
1.44683
1.44244
1.43856
1.65692
1.64186
1.62606
1.60974
1.5927
1.57514
1.558
1.54208
1.52756
1.51432
1.50225
1.49132
1.48152
1.47276
1.46486
1.45768
1.45116
1.44536
1.44037
1.43622
1.43272
1.64237
1.62788
1.61309
1.59789
1.58178
1.56492
1.54826
1.53253
1.518
1.50481
1.49299
1.48241
1.47293
1.46448
1.45693
1.45018
1.4441
1.43867
1.43397
1.43005
1.42684
1.62738
1.61333
1.59937
1.58514
1.57014
1.5543
1.53824
1.52269
1.50827
1.49528
1.48369
1.47334
1.46412
1.456
1.44888
1.44262
1.43702
1.432
1.42758
1.42383
1.42083
1.61229
1.59822
1.58491
1.57166
1.5577
1.54291
1.52776
1.51278
1.49854
1.48558
1.47414
1.46412
1.45528
1.44749
1.44073
1.43489
1.42978
1.42524
1.42122
1.41772
1.41487
1.59724
1.58292
1.56996
1.55736
1.54444
1.53091
1.51681
1.50246
1.48853
1.47581
1.46463
1.45488
1.44633
1.43887
1.43251
1.42714
1.42256
1.41851
1.4149
1.41164
1.40893
1.58261
1.56751
1.55452
1.54249
1.53054
1.51814
1.50516
1.49177
1.47846
1.46599
1.45496
1.44546
1.4373
1.43027
1.42428
1.4193
1.41516
1.41163
1.40851
1.40565
1.40318
1.56848
1.55228
1.53887
1.52706
1.51591
1.50465
1.49287
1.48052
1.46798
1.456
1.4453
1.43611
1.42829
1.42163
1.41602
1.41147
1.4078
1.4048
1.40218
1.39975
1.39758
1.555
1.53741
1.52312
1.51128
1.50079
1.4905
1.47981
1.46866
1.4572
1.44591
1.43552
1.42657
1.41913
1.41294
1.40777
1.40362
1.40033
1.39778
1.39566
1.39377
1.39206
1.54189
1.52306
1.50761
1.49533
1.48517
1.4757
1.46612
1.45619
1.44586
1.43542
1.42561
1.41705
1.40999
1.40424
1.39954
1.39581
1.3929
1.39078
1.38916
1.38784
1.38667
1.52899
1.50916
1.4924
1.47935
1.46922
1.46034
1.45175
1.4431
1.43407
1.42464
1.41548
1.40736
1.40072
1.39544
1.39124
1.38792
1.3854
1.38366
1.38246
1.38167
1.38107
1.51588
1.49558
1.47773
1.46354
1.45305
1.44463
1.43696
1.42936
1.42148
1.41329
1.40512
1.39762
1.39135
1.38649
1.38289
1.3801
1.37802
1.37659
1.37569
1.3754
1.37541
1.50253
1.48198
1.46331
1.44808
1.43699
1.42851
1.42143
1.4151
1.40865
1.40167
1.39433
1.38754
1.38195
1.37764
1.37453
1.37215
1.37048
1.36947
1.36898
1.36902
1.36945
1.48853
1.46814
1.44928
1.43298
1.42081
1.41231
1.40594
1.40035
1.39481
1.38921
1.38332
1.37755
1.37243
1.36841
1.36584
1.3642
1.36316
1.36251
1.36223
1.36242
1.36325
1.47431
1.45401
1.43492
1.41814
1.40526
1.3961
1.38959
1.38501
1.38108
1.3768
1.37181
1.36683
1.36269
1.3596
1.35753
1.35629
1.35559
1.35541
1.35567
1.35624
1.3572
1.45934
1.43929
1.42067
1.40358
1.3895
1.37976
1.37365
1.36967
1.36633
1.36314
1.3599
1.35645
1.3531
1.35032
1.34849
1.34798
1.34822
1.34864
1.34918
1.34987
1.35085
1.44446
1.42457
1.4057
1.38854
1.37441
1.36402
1.35709
1.35338
1.35161
1.34993
1.34782
1.34511
1.34264
1.3411
1.34026
1.34019
1.34074
1.3414
1.34249
1.34392
1.34529
1.42896
1.40896
1.39076
1.37386
1.35903
1.34777
1.34088
1.33777
1.3364
1.3353
1.33478
1.33403
1.33286
1.33187
1.33124
1.33149
1.33289
1.33452
1.33623
1.33795
1.33942
1.41353
1.3938
1.37527
1.35801
1.34368
1.33251
1.32476
1.32102
1.32052
1.32129
1.32215
1.32229
1.32179
1.32186
1.3226
1.32377
1.32539
1.32722
1.32925
1.33159
1.33387
1.39792
1.3775
1.35947
1.34291
1.32843
1.31642
1.30827
1.30513
1.30521
1.30632
1.30799
1.30999
1.31161
1.31269
1.31378
1.31508
1.31701
1.31975
1.32275
1.32565
1.32826
1.38165
1.36192
1.3438
1.32665
1.31219
1.30099
1.29279
1.2887
1.28833
1.29118
1.29486
1.29794
1.30043
1.30216
1.30426
1.30707
1.30979
1.3126
1.31563
1.31881
1.32204
1.36604
1.34553
1.32692
1.31082
1.29697
1.28519
1.27617
1.27211
1.27275
1.27639
1.28025
1.28444
1.28913
1.29283
1.29573
1.2988
1.30171
1.30477
1.30844
1.31242
1.31621
1.34912
1.32899
1.31122
1.29474
1.28028
1.2685
1.26065
1.25667
1.25613
1.25993
1.26602
1.27216
1.27798
1.28235
1.28596
1.29006
1.29438
1.2983
1.30191
1.30569
1.30964
1.33313
1.3128
1.29405
1.27741
1.26446
1.25305
1.2447
1.2399
1.23972
1.24502
1.25158
1.25832
1.26552
1.27199
1.27756
1.28234
1.28687
1.29105
1.29488
1.29896
1.30343
1.31605
1.29488
1.27701
1.26157
1.24814
1.23568
1.22828
1.22503
1.22424
1.22839
1.23578
1.2454
1.25435
1.2618
1.26805
1.27331
1.27872
1.28427
1.28922
1.29348
1.29766
1.29819
1.2783
1.26012
1.24377
1.2303
1.21994
1.21342
1.20912
1.20724
1.21234
1.22157
1.23206
1.24165
1.25047
1.25852
1.26536
1.27148
1.27739
1.28283
1.28745
1.29182
1.28092
1.26015
1.2411
1.22643
1.21445
1.20328
1.19622
1.19317
1.19244
1.19672
1.20563
1.21767
1.22987
1.24051
1.24935
1.25654
1.26306
1.26981
1.27644
1.28215
1.28703
1.26173
1.24122
1.22426
1.2093
1.19585
1.18513
1.18101
1.17846
1.17626
1.17961
1.19074
1.20484
1.21774
1.22926
1.23915
1.24759
1.25536
1.26288
1.27006
1.27642
1.28183
1.24369
1.22347
1.20545
1.18941
1.17814
1.16915
1.16434
1.16153
1.16064
1.16469
1.17611
1.19025
1.20475
1.21861
1.23036
1.23982
1.24787
1.25561
1.26341
1.27062
1.2768
1.22473
1.20318
1.18557
1.17221
1.16039
1.15005
1.14673
1.14698
1.14599
1.14851
1.16004
1.17659
1.19315
1.20788
1.22056
1.23112
1.24018
1.24874
1.25712
1.2649
1.2717
1.20387
1.18415
1.16742
1.15255
1.13992
1.13256
1.13092
1.13066
1.1293
1.13326
1.1462
1.16311
1.18015
1.19636
1.21082
1.22326
1.23372
1.24269
1.25104
1.25907
1.26643
1.18479
1.16476
1.14596
1.13208
1.12225
1.11453
1.11245
1.11435
1.11483
1.11875
1.13104
1.14822
1.16746
1.18535
1.20102
1.21479
1.22649
1.23628
1.24506
1.25356
1.26149
1.16387
1.14277
1.12583
1.11366
1.10227
1.09451
1.09602
1.099
1.09802
1.10295
1.11687
1.13551
1.15558
1.1742
1.19097
1.20614
1.2193
1.23025
1.23954
1.24812
1.25622
1.14151
1.12314
1.10565
1.09219
1.08211
1.07682
1.07879
1.08127
1.08197
1.08912
1.10314
1.12157
1.14232
1.16271
1.18104
1.19769
1.21221
1.22419
1.23403
1.24299
1.25159
1.12133
1.10185
1.08258
1.07198
1.06366
1.05728
1.06068
1.06511
1.06571
1.07389
1.08875
1.10827
1.13056
1.15206
1.17131
1.18917
1.20493
1.21804
1.2287
1.23799
1.24668
1.09881
1.07893
1.06138
1.05241
1.04291
1.03798
1.04389
1.04694
1.04791
1.05942
1.07528
1.09514
1.11786
1.1408
1.16207
1.1811
1.19824
1.21238
1.22353
1.23304
1.24213
1.07627
1.05724
1.03964
1.03129
1.02264
1.0193
1.02565
1.02836
1.03188
1.04524
1.06151
1.08182
1.10542
1.13042
1.15296
1.17278
1.19081
1.20593
1.21819
1.22847
1.23772
1.0545
1.03429
1.01689
1.0108
1.00209
0.999776
1.00736
1.00945
1.01446
1.02992
1.0477
1.06904
1.09336
1.11984
1.14445
1.16546
1.18448
1.20058
1.21331
1.22348
1.23276
1.03239
1.01017
0.994719
0.989979
0.98048
0.980776
0.988623
0.989698
0.998072
1.01568
1.03407
1.05576
1.0811
1.10991
1.13605
1.15813
1.17767
1.19416
1.20745
1.21851
1.22845
1.00934
0.985023
0.972713
0.968052
0.958521
0.961896
0.967934
0.97029
0.981339
0.999995
1.01977
1.04328
1.07074
1.09992
1.12724
1.15108
1.17133
1.1886
1.20262
1.21384
1.22362
0.98488
0.959511
0.950989
0.945201
0.936686
0.94308
0.946831
0.951346
0.96407
0.984591
1.00628
1.03097
1.05924
1.08954
1.1194
1.14475
1.16555
1.18289
1.19691
1.2083
1.21868
0.959547
0.934475
0.928936
0.921182
0.914918
0.922779
0.924449
0.932195
0.947064
0.969381
0.992201
1.01846
1.04927
1.08142
1.11104
1.13742
1.15879
1.17659
1.19147
1.20359
1.21411
0.933704
0.909674
0.905982
0.896823
0.893721
0.902007
0.902603
0.913758
0.929714
0.95245
0.977734
1.00708
1.03991
1.0717
1.10242
1.13077
1.15304
1.17121
1.1862
1.19822
1.2088
0.907037
0.884555
0.881802
0.872312
0.871721
0.879851
0.880567
0.893935
0.911597
0.936935
0.964979
0.995794
1.02991
1.06379
1.09523
1.12331
1.14601
1.16438
1.17985
1.19274
1.20405
0.879425
0.859173
0.857635
0.848434
0.849696
0.858177
0.858923
0.873775
0.894137
0.920936
0.95025
0.984126
1.02159
1.05594
1.08659
1.1155
1.13978
1.15913
1.17519
1.18814
1.19917
0.851296
0.833744
0.832842
0.824092
0.826395
0.835562
0.837331
0.853674
0.875733
0.903981
0.936491
0.973856
1.01314
1.04869
1.0802
1.10879
1.13331
1.15313
1.16931
1.18244
1.19395
0.823504
0.808716
0.80859
0.800216
0.802884
0.812957
0.815847
0.832526
0.857185
0.888406
0.923701
0.964552
1.00661
1.04218
1.07251
1.10063
1.12638
1.14749
1.16463
1.17841
1.18991
0.795458
0.782528
0.782946
0.775561
0.778571
0.790158
0.794691
0.81202
0.838916
0.872136
0.910765
0.955386
0.998549
1.03475
1.06641
1.09543
1.1214
1.143
1.16031
1.17396
1.18523
0.767549
0.756234
0.757684
0.751601
0.754504
0.767226
0.773241
0.790812
0.819857
0.856453
0.897751
0.94533
0.992829
1.03011
1.06075
1.08893
1.11504
1.13732
1.15527
1.16953
1.1812
0.737974
0.72865
0.731671
0.72741
0.730245
0.744439
0.752472
0.770772
0.801533
0.839993
0.885296
0.93979
0.987735
1.02382
1.05483
1.08414
1.11102
1.13371
1.15193
1.16619
1.17761
0.710161
0.702269
0.706382
0.704152
0.706308
0.721192
0.731176
0.750127
0.781663
0.823742
0.875302
0.93257
0.982007
1.02012
1.0515
1.08018
1.1066
1.12927
1.14763
1.16214
1.17377
0.681716
0.67494
0.680762
0.681132
0.682616
0.697888
0.709772
0.729517
0.763006
0.808762
0.863908
0.926438
0.979425
1.01585
1.04624
1.07504
1.10206
1.12533
1.14422
1.15906
1.17063
0.65546
0.648711
0.655052
0.657941
0.658079
0.673437
0.689133
0.710291
0.744429
0.792098
0.854289
0.9247
0.976949
1.01273
1.04348
1.07236
1.099
1.12209
1.14094
1.15576
1.16734
0.62854
0.621999
0.629393
0.635678
0.635643
0.649629
0.669057
0.691602
0.726473
0.778891
0.849713
0.923599
0.974577
1.00936
1.03918
1.06743
1.09405
1.1176
1.13701
1.15237
1.16428
0.601725
0.596344
0.603573
0.612883
0.614564
0.626321
0.648395
0.671464
0.706401
0.765588
0.846295
0.924036
0.973373
1.00636
1.03535
1.06348
1.09011
1.11399
1.13386
1.14952
1.16148
0.576571
0.572896
0.579291
0.589664
0.593809
0.60491
0.629065
0.653755
0.691202
0.756637
0.846188
0.92941
0.974786
1.00382
1.0315
1.05891
1.08526
1.10952
1.13005
1.14621
1.15843
0.548234
0.547585
0.553243
0.566851
0.573832
0.58431
0.608959
0.636475
0.678743
0.753944
0.852845
0.934922
0.972588
0.999314
1.02643
1.05371
1.08009
1.10473
1.126
1.14284
1.15546
0.524968
0.528924
0.534411
0.548767
0.559225
0.569895
0.592716
0.621675
0.667389
0.75737
0.864576
0.940008
0.970852
0.996389
1.02399
1.05094
1.07633
1.10046
1.12206
1.13954
1.15259
0.505081
0.511007
0.518369
0.531412
0.543645
0.556911
0.58025
0.609303
0.66387
0.767063
0.877715
0.940173
0.966683
0.991355
1.01975
1.04676
1.07174
1.09572
1.11782
1.13608
1.14961
0.485632
0.491571
0.502329
0.51747
0.53274
0.547716
0.572045
0.603411
0.667007
0.782333
0.885777
0.935277
0.96066
0.987083
1.01646
1.04349
1.06806
1.09163
1.11376
1.13254
1.1465
0.475513
0.482875
0.493344
0.508565
0.525637
0.545188
0.570614
0.60281
0.672726
0.7939
0.887613
0.926993
0.952881
0.981825
1.01288
1.04051
1.06478
1.08779
1.10969
1.12888
1.14334
0.472381
0.482163
0.493288
0.508865
0.525729
0.543765
0.568614
0.602543
0.676673
0.799858
0.878617
0.915217
0.943546
0.975719
1.00866
1.03664
1.06084
1.08364
1.10552
1.12519
1.14023
0.472896
0.483375
0.492707
0.507252
0.52373
0.539981
0.562657
0.595411
0.67123
0.790186
0.867777
0.908056
0.939097
0.972048
1.0046
1.03262
1.057
1.07975
1.10158
1.12159
1.13708
0.470214
0.481086
0.488296
0.500072
0.514279
0.526984
0.546388
0.578054
0.654382
0.775933
0.859641
0.900227
0.932356
0.965617
0.998874
1.02823
1.05338
1.07614
1.09778
1.11796
1.13382
0.4614
0.470996
0.474552
0.481603
0.493334
0.505516
0.52412
0.556628
0.639549
0.76423
0.848203
0.89293
0.926821
0.960856
0.994272
1.02427
1.04987
1.07253
1.09395
1.11424
1.13047
0.444886
0.452268
0.455679
0.460888
0.471934
0.48443
0.50275
0.536371
0.625608
0.755494
0.84361
0.888428
0.923372
0.957482
0.990371
1.02038
1.04625
1.06889
1.09017
1.11058
1.12715
)
;

boundaryField
{
    inlet
    {
        type            calculated;
        value           nonuniform 0();
    }
    outlet
    {
        type            calculated;
        value           nonuniform 0();
    }
    triangle
    {
        type            calculated;
        value           nonuniform 0();
    }
    top
    {
        type            symmetryPlane;
    }
    bottom
    {
        type            symmetryPlane;
    }
    defaultFaces
    {
        type            empty;
    }
    procBoundary14to6
    {
        type            processor;
        value           nonuniform List<scalar> 
22
(
1.64681
1.63306
1.62061
1.60906
1.59857
1.58938
1.58176
1.57498
1.56649
1.84889
1.82855
1.80924
1.78868
1.77013
1.75256
1.73487
1.71759
1.70152
1.68515
1.66985
1.65519
1.65519
)
;
    }
    procBoundary14to13
    {
        type            processor;
        value           nonuniform List<scalar> 
140
(
0.430913
0.41919
0.404438
0.385155
0.36324
0.340754
0.315341
0.290374
0.263278
0.236468
0.212702
0.19286
0.175318
0.157036
0.144492
0.138333
0.132657
0.124273
0.114565
0.104691
0.0985527
0.0955579
0.0918271
0.0879131
0.0882534
0.0922333
0.0983635
0.110228
0.141503
0.185086
0.207306
0.219294
0.234916
0.253956
0.279798
0.314253
0.34823
0.382425
0.417467
0.451999
0.485639
0.517781
0.548017
0.575907
0.601102
0.622594
0.640811
0.656626
0.671861
0.687203
0.702123
0.715347
0.726734
0.73707
1.86109
1.85536
1.84773
1.84042
1.83375
1.82669
1.81946
1.81264
1.80534
1.79786
1.79026
1.78283
1.77514
1.76694
1.75821
1.74863
1.73791
1.72621
1.71375
1.70033
1.68639
1.67187
1.65715
1.64239
1.62803
1.61416
1.60096
1.58831
1.57595
1.56354
1.55088
1.53775
1.52418
1.5101
1.49558
1.48087
1.46569
1.45083
1.4353
1.4203
1.40447
1.38882
1.37279
1.35573
1.33931
1.32104
1.30363
1.28505
1.26566
1.24733
1.22774
1.20698
1.18757
1.16514
1.14276
1.12023
1.09566
1.07097
1.04651
1.0225
0.997976
0.973104
0.948411
0.923469
0.897316
0.86978
0.841744
0.813528
0.786023
0.75625
0.72733
0.696868
0.667973
0.638326
0.60938
0.581728
0.552285
0.527512
0.506119
0.485964
0.470219
0.46597
0.464662
0.463471
0.458812
0.446061
)
;
    }
    procBoundary14to15
    {
        type            processor;
        value           nonuniform List<scalar> 
141
(
1.13449
1.13186
1.12917
1.12643
1.12369
1.12099
1.1183
1.11556
1.11276
1.10993
1.10709
1.1042
1.10126
1.09836
1.09553
1.09263
1.08951
1.0862
1.0829
1.07973
1.07663
1.07343
1.07001
1.06646
1.06293
1.05948
1.05606
1.0526
1.04905
1.04547
1.04192
1.03845
1.03505
1.03171
1.0284
1.0251
1.02179
1.01844
1.01507
1.01168
1.00832
1.00497
1.00119
0.995847
0.988103
0.982015
0.985439
1.05757
1.19091