/*--------------------------------*- C++ -*----------------------------------*\
  =========                 |
  \\      /  F ield         | OpenFOAM: The Open Source CFD Toolbox
   \\    /   O peration     | Website:  https://openfoam.org
    \\  /    A nd           | Version:  7
     \\/     M anipulation  |
\*---------------------------------------------------------------------------*/
FoamFile
{
    version     2.0;
    format      ascii;
    class       volVectorField;
    location    "0.1";
    object      U;
}
// * * * * * * * * * * * * * * * * * * * * * * * * * * * * * * * * * * * * * //

dimensions      [0 1 -1 0 0 0 0];

internalField   nonuniform List<vector> 
3225
(
(1.82322 0.539605 0)
(1.82338 0.562506 0)
(1.79913 0.589037 0)
(1.79416 0.610326 0)
(1.76809 0.64086 0)
(1.7522 0.660336 0)
(1.70954 0.692736 0)
(1.64838 0.720157 0)
(1.53096 0.711695 0)
(1.32675 0.717437 0)
(1.23143 0.696823 0)
(1.17759 0.660205 0)
(1.13457 0.62749 0)
(1.1009 0.593771 0)
(1.0759 0.559184 0)
(1.05692 0.527405 0)
(1.0405 0.500369 0)
(1.02509 0.47565 0)
(1.01185 0.450406 0)
(1.00169 0.424029 0)
(0.992649 0.398334 0)
(1.82949 0.557761 0)
(1.82936 0.58163 0)
(1.80565 0.606768 0)
(1.79958 0.629133 0)
(1.77642 0.658305 0)
(1.76044 0.677365 0)
(1.71593 0.71135 0)
(1.65734 0.734945 0)
(1.52944 0.729574 0)
(1.31599 0.734718 0)
(1.22312 0.713218 0)
(1.16711 0.673427 0)
(1.12455 0.63718 0)
(1.09161 0.601375 0)
(1.06682 0.566188 0)
(1.0484 0.534261 0)
(1.03249 0.506576 0)
(1.01726 0.481125 0)
(1.00421 0.455335 0)
(0.994416 0.428528 0)
(0.985826 0.402327 0)
(1.83706 0.583035 0)
(1.83603 0.607072 0)
(1.81231 0.631369 0)
(1.8047 0.654804 0)
(1.7842 0.682946 0)
(1.7681 0.70141 0)
(1.72156 0.73693 0)
(1.66494 0.757467 0)
(1.5273 0.751385 0)
(1.3086 0.759396 0)
(1.21369 0.731086 0)
(1.15559 0.683791 0)
(1.11509 0.64428 0)
(1.08238 0.608445 0)
(1.0577 0.574231 0)
(1.03958 0.54189 0)
(1.02406 0.512839 0)
(1.00913 0.48638 0)
(0.996379 0.460084 0)
(0.986998 0.43289 0)
(0.978866 0.406191 0)
(1.84606 0.610848 0)
(1.8444 0.633094 0)
(1.81938 0.655924 0)
(1.80977 0.678276 0)
(1.79155 0.703543 0)
(1.77583 0.720924 0)
(1.72749 0.758104 0)
(1.67358 0.77354 0)
(1.52535 0.769294 0)
(1.29494 0.782661 0)
(1.19984 0.743146 0)
(1.14608 0.69076 0)
(1.10632 0.652262 0)
(1.0731 0.618027 0)
(1.04798 0.583545 0)
(1.03002 0.549094 0)
(1.01519 0.518363 0)
(1.00077 0.491261 0)
(0.988397 0.464662 0)
(0.979456 0.43708 0)
(0.971782 0.409904 0)
(1.85806 0.640642 0)
(1.85256 0.65961 0)
(1.8264 0.682364 0)
(1.81502 0.704211 0)
(1.79756 0.728284 0)
(1.7829 0.745191 0)
(1.73323 0.783922 0)
(1.68111 0.796131 0)
(1.52191 0.792839 0)
(1.28271 0.809413 0)
(1.18807 0.755218 0)
(1.13682 0.700861 0)
(1.09621 0.663827 0)
(1.06221 0.629191 0)
(1.03711 0.591694 0)
(1.02014 0.554741 0)
(1.00629 0.523513 0)
(0.992345 0.496222 0)
(0.980307 0.469145 0)
(0.971808 0.44107 0)
(0.964585 0.413464 0)
(1.87297 0.670729 0)
(1.85919 0.687659 0)
(1.83413 0.71007 0)
(1.82148 0.72888 0)
(1.8039 0.749308 0)
(1.78997 0.764659 0)
(1.73938 0.804626 0)
(1.68932 0.812001 0)
(1.5177 0.815326 0)
(1.2693 0.826087 0)
(1.17387 0.766769 0)
(1.12421 0.715115 0)
(1.08248 0.676438 0)
(1.04955 0.637541 0)
(1.02625 0.596385 0)
(1.01038 0.560134 0)
(0.997386 0.529358 0)
(0.983732 0.501359 0)
(0.97207 0.473438 0)
(0.964055 0.444902 0)
(0.957292 0.416965 0)
(1.88804 0.708907 0)
(1.86477 0.727519 0)
(1.84379 0.746551 0)
(1.82857 0.763399 0)
(1.81005 0.78097 0)
(1.79583 0.794509 0)
(1.74525 0.833698 0)
(1.6974 0.837289 0)
(1.51271 0.83993 0)
(1.25435 0.840705 0)
(1.16031 0.783377 0)
(1.10692 0.73002 0)
(1.06762 0.684809 0)
(1.0375 0.640481 0)
(1.01557 0.601395 0)
(1.00075 0.56737 0)
(0.988081 0.535678 0)
(0.974795 0.506176 0)
(0.963666 0.477485 0)
(0.956197 0.448649 0)
(0.949901 0.420408 0)
(1.90541 0.751071 0)
(1.87475 0.773637 0)
(1.85552 0.786061 0)
(1.83641 0.798639 0)
(1.81628 0.810574 0)
(1.80088 0.821408 0)
(1.75069 0.860857 0)
(1.70559 0.86105 0)
(1.50543 0.858496 0)
(1.23842 0.859769 0)
(1.14383 0.798916 0)
(1.08917 0.738468 0)
(1.05424 0.687548 0)
(1.02576 0.646243 0)
(1.00519 0.610494 0)
(0.990558 0.575424 0)
(0.978217 0.541295 0)
(0.965645 0.510451 0)
(0.955139 0.48145 0)
(0.948254 0.452335 0)
(0.942411 0.423734 0)
(1.92138 0.795979 0)
(1.89012 0.8249 0)
(1.87076 0.827525 0)
(1.84489 0.836383 0)
(1.82146 0.844694 0)
(1.80475 0.852112 0)
(1.75578 0.888994 0)
(1.71306 0.884226 0)
(1.49432 0.878031 0)
(1.22072 0.886362 0)
(1.12346 0.808784 0)
(1.07498 0.740272 0)
(1.04232 0.694721 0)
(1.01546 0.656899 0)
(0.993605 0.620467 0)
(0.979355 0.581773 0)
(0.968176 0.545784 0)
(0.956405 0.514752 0)
(0.946516 0.485437 0)
(0.94023 0.455859 0)
(0.934817 0.426869 0)
(1.92562 0.840901 0)
(1.90613 0.879429 0)
(1.88812 0.874308 0)
(1.85533 0.874963 0)
(1.82865 0.875205 0)
(1.80882 0.880585 0)
(1.75995 0.917449 0)
(1.71917 0.907115 0)
(1.48151 0.904546 0)
(1.19433 0.909929 0)
(1.10189 0.812203 0)
(1.0624 0.748771 0)
(1.03157 0.706812 0)
(1.002 0.668382 0)
(0.980935 0.626766 0)
(0.968182 0.585659 0)
(0.958073 0.550604 0)
(0.94702 0.519401 0)
(0.937783 0.489298 0)
(0.932113 0.459195 0)
(0.927123 0.429878 0)
(1.90043 0.88262 0)
(1.91407 0.935218 0)
(1.90903 0.917575 0)
(1.86779 0.915609 0)
(1.83528 0.912609 0)
(1.81151 0.914402 0)
(1.76315 0.947027 0)
(1.72509 0.929063 0)
(1.46585 0.929015 0)
(1.16411 0.918916 0)
(1.08398 0.820865 0)
(1.05013 0.763602 0)
(1.01584 0.719193 0)
(0.987899 0.674122 0)
(0.969081 0.628614 0)
(0.957082 0.590856 0)
(0.947804 0.556381 0)
(0.93741 0.523958 0)
(0.928916 0.492935 0)
(0.923885 0.462427 0)
(0.919323 0.432801 0)
(1.83561 0.905426 0)
(1.9021 0.976582 0)
(1.92234 0.969467 0)
(1.87925 0.966814 0)
(1.84463 0.950469 0)
(1.817 0.944808 0)
(1.76675 0.974349 0)
(1.73242 0.94849 0)
(1.44482 0.945954 0)
(1.13535 0.923595 0)
(1.07027 0.835932 0)
(1.03123 0.777701 0)
(0.999226 0.724736 0)
(0.974742 0.674727 0)
(0.957233 0.634366 0)
(0.945935 0.598205 0)
(0.937171 0.562017 0)
(0.927598 0.528051 0)
(0.919904 0.496469 0)
(0.915539 0.465591 0)
(0.911413 0.435581 0)
(1.73677 0.909091 0)
(1.85702 1.02038 0)
(1.92478 1.01317 0)
(1.88917 1.01857 0)
(1.85623 0.99297 0)
(1.82188 0.982778 0)
(1.7691 1.00657 0)
(1.73907 0.972246 0)
(1.41046 0.961376 0)
(1.11803 0.931852 0)
(1.0489 0.851062 0)
(1.00979 0.782978 0)
(0.983783 0.725442 0)
(0.96234 0.681288 0)
(0.945078 0.643612 0)
(0.933966 0.605004 0)
(0.926264 0.566559 0)
(0.917649 0.531916 0)
(0.910744 0.499936 0)
(0.907071 0.468528 0)
(0.903393 0.438115 0)
(1.61671 0.906064 0)
(1.78621 1.03475 0)
(1.90335 1.05582 0)
(1.89205 1.07498 0)
(1.86696 1.038 0)
(1.82872 1.02203 0)
(1.77265 1.04419 0)
(1.74713 0.997524 0)
(1.38189 0.981434 0)
(1.0951 0.948563 0)
(1.02166 0.85627 0)
(0.990191 0.781242 0)
(0.970681 0.732007 0)
(0.94925 0.691346 0)
(0.931115 0.651068 0)
(0.921735 0.609073 0)
(0.915316 0.570552 0)
(0.907536 0.53581 0)
(0.901444 0.503109 0)
(0.898499 0.471142 0)
(0.895287 0.440496 0)
(1.50126 0.875018 0)
(1.69327 1.03072 0)
(1.85953 1.08249 0)
(1.88478 1.12011 0)
(1.87445 1.08689 0)
(1.83903 1.06616 0)
(1.78241 1.08122 0)
(1.75972 1.02311 0)
(1.33694 1.00366 0)
(1.05532 0.963087 0)
(0.991898 0.850103 0)
(0.976089 0.78529 0)
(0.957091 0.741723 0)
(0.933208 0.698843 0)
(0.917649 0.652876 0)
(0.909782 0.61236 0)
(0.904329 0.575003 0)
(0.897253 0.539422 0)
(0.892035 0.505865 0)
(0.889852 0.473611 0)
(0.887126 0.442905 0)
(1.40713 0.876983 0)
(1.59196 1.02347 0)
(1.79719 1.08961 0)
(1.85469 1.17787 0)
(1.88385 1.12846 0)
(1.84784 1.11406 0)
(1.7921 1.11966 0)
(1.77185 1.05219 0)
(1.27808 1.0284 0)
(1.01062 0.958146 0)
(0.977061 0.844866 0)
(0.963263 0.79473 0)
(0.939014 0.749475 0)
(0.917771 0.699382 0)
(0.904488 0.655452 0)
(0.898235 0.617778 0)
(0.893219 0.57945 0)
(0.886838 0.542456 0)
(0.882547 0.508514 0)
(0.881174 0.476222 0)
(0.878904 0.44537 0)
(1.3235 0.894984 0)
(1.50215 1.00598 0)
(1.71998 1.08772 0)
(1.83099 1.19037 0)
(1.88917 1.16374 0)
(1.84952 1.16568 0)
(1.79282 1.17084 0)
(1.78379 1.07607 0)
(1.19962 1.03212 0)
(0.9696 0.937943 0)
(0.962041 0.848894 0)
(0.944512 0.803934 0)
(0.920934 0.750804 0)
(0.903486 0.70117 0)
(0.892704 0.662237 0)
(0.886515 0.623532 0)
(0.881805 0.582937 0)
(0.87632 0.545246 0)
(0.873012 0.511417 0)
(0.872453 0.478919 0)
(0.870573 0.447648 0)
(1.24951 0.903347 0)
(1.4193 0.998539 0)
(1.63864 1.07551 0)
(1.77496 1.21385 0)
(1.86095 1.21653 0)
(1.84164 1.2232 0)
(1.80894 1.20142 0)
(1.76842 1.10516 0)
(1.13471 1.0185 0)
(0.946993 0.915421 0)
(0.9405 0.86087 0)
(0.923132 0.807732 0)
(0.904997 0.751378 0)
(0.891355 0.70838 0)
(0.879783 0.66946 0)
(0.873896 0.627367 0)
(0.870228 0.585487 0)
(0.865742 0.54834 0)
(0.86342 0.514424 0)
(0.863626 0.48135 0)
(0.862108 0.449515 0)
(1.19593 0.903728 0)
(1.35339 0.988287 0)
(1.55501 1.07603 0)
(1.69807 1.23468 0)
(1.84127 1.22305 0)
(1.83936 1.26227 0)
(1.82732 1.22985 0)
(1.74497 1.11016 0)
(1.05679 0.944793 0)
(0.923352 0.902172 0)
(0.92261 0.866359 0)
(0.903721 0.807088 0)
(0.890064 0.757826 0)
(0.87747 0.717045 0)
(0.865519 0.673515 0)
(0.861255 0.628722 0)
(0.858701 0.58836 0)
(0.855115 0.551631 0)
(0.853722 0.517037 0)
(0.854665 0.483235 0)
(0.853533 0.451015 0)
(1.16765 0.889898 0)
(1.30214 0.983429 0)
(1.4855 1.07075 0)
(1.62625 1.24687 0)
(1.80449 1.24961 0)
(1.82515 1.30064 0)
(1.79674 1.31687 0)
(1.74993 1.03082 0)
(0.97229 0.876243 0)
(0.916237 0.908728 0)
(0.904363 0.866339 0)
(0.884763 0.809394 0)
(0.875898 0.766861 0)
(0.861686 0.72288 0)
(0.851565 0.673437 0)
(0.84891 0.631018 0)
(0.847319 0.591924 0)
(0.844378 0.554493 0)
(0.843902 0.51896 0)
(0.845605 0.484719 0)
(0.844908 0.452469 0)
(1.1501 0.87915 0)
(1.278 0.95228 0)
(1.4142 1.07786 0)
(1.55804 1.24526 0)
(1.74814 1.26252 0)
(1.77988 1.35736 0)
(1.78424 1.33946 0)
(1.53806 0.832093 0)
(0.910203 0.866234 0)
(0.909739 0.920967 0)
(0.888827 0.866387 0)
(0.86859 0.817874 0)
(0.860351 0.775079 0)
(0.845599 0.723579 0)
(0.837968 0.675448 0)
(0.837134 0.635347 0)
(0.835775 0.595283 0)
(0.833459 0.556527 0)
(0.833988 0.520451 0)
(0.836535 0.486222 0)
(0.836271 0.454055 0)
(1.13215 0.900229 0)
(1.23774 0.955019 0)
(1.38165 1.03768 0)
(1.51947 1.21868 0)
(1.70476 1.25483 0)
(1.7301 1.40578 0)
(1.80071 1.3196 0)
(1.28832 0.742661 0)
(0.882098 0.896488 0)
(0.899415 0.929296 0)
(0.872574 0.877955 0)
(0.855251 0.83132 0)
(0.841674 0.779284 0)
(0.829426 0.723724 0)
(0.825428 0.680862 0)
(0.825101 0.639701 0)
(0.823761 0.59756 0)
(0.822367 0.558015 0)
(0.824089 0.522043 0)
(0.827512 0.487924 0)
(0.827581 0.455635 0)
(1.09711 0.918893 0)
(1.22003 0.946085 0)
(1.31338 1.03313 0)
(1.42133 1.18739 0)
(1.65773 1.23723 0)
(1.70256 1.44385 0)
(1.93925 1.10503 0)
(1.10839 0.740366 0)
(0.871507 0.926012 0)
(0.881709 0.939608 0)
(0.853529 0.899688 0)
(0.837117 0.841871 0)
(0.821342 0.778129 0)
(0.81437 0.729057 0)
(0.812382 0.686294 0)
(0.812088 0.642347 0)
(0.811415 0.59885 0)
(0.811244 0.559642 0)
(0.814297 0.523864 0)
(0.818477 0.489589 0)
(0.818777 0.456924 0)
(1.0656 0.904874 0)
(1.2082 0.924167 0)
(1.29455 1.02284 0)
(1.3823 1.15552 0)
(1.6195 1.20856 0)
(1.66095 1.45947 0)
(1.66079 0.716263 0)
(0.977572 0.733578 0)
(0.859414 0.956324 0)
(0.857503 0.969109 0)
(0.832457 0.92265 0)
(0.812269 0.843639 0)
(0.801519 0.781265 0)
(0.799859 0.73525 0)
(0.798042 0.689249 0)
(0.798556 0.643062 0)
(0.799 0.600288 0)
(0.800237 0.56157 0)
(0.804556 0.525578 0)
(0.809337 0.490897 0)
(0.809842 0.457799 0)
(1.01816 0.840413 0)
(1.18403 0.863006 0)
(1.25744 0.9862 0)
(1.36773 1.11096 0)
(1.51841 1.19877 0)
(1.6282 1.41812 0)
(1.3328 0.621274 0)
(0.868587 0.762298 0)
(0.830389 0.979747 0)
(0.829172 1.00225 0)
(0.806897 0.932996 0)
(0.785495 0.843577 0)
(0.784911 0.788908 0)
(0.784218 0.738742 0)
(0.783022 0.688938 0)
(0.784807 0.644106 0)
(0.786759 0.602345 0)
(0.789307 0.563378 0)
(0.794753 0.526827 0)
(0.800061 0.491743 0)
(0.800811 0.458376 0)
(0.944317 0.737496 0)
(1.13998 0.811361 0)
(1.20432 0.948028 0)
(1.3271 1.03606 0)
(1.46202 1.16624 0)
(1.50453 0.78487 0)
(1.11967 0.61333 0)
(0.823846 0.805602 0)
(0.803376 0.995767 0)
(0.800278 1.02136 0)
(0.771839 0.934749 0)
(0.763411 0.852812 0)
(0.768452 0.794555 0)
(0.766973 0.73807 0)
(0.767383 0.689448 0)
(0.771379 0.646623 0)
(0.774594 0.604417 0)
(0.7783 0.564623 0)
(0.784848 0.527548 0)
(0.790684 0.49232 0)
(0.791736 0.458871 0)
(0.877136 0.611588 0)
(1.07787 0.740417 0)
(1.15952 0.895268 0)
(1.29009 0.863626 0)
(1.36522 0.730658 0)
(1.25681 0.595135 0)
(0.973342 0.636496 0)
(0.782528 0.862909 0)
(0.776257 1.02148 0)
(0.759647 1.03069 0)
(0.736333 0.943753 0)
(0.743342 0.862487 0)
(0.748545 0.795246 0)
(0.748413 0.737726 0)
(0.752266 0.69303 0)
(0.758084 0.649411 0)
(0.762193 0.605765 0)
(0.767158 0.565222 0)
(0.774896 0.528001 0)
(0.781267 0.492859 0)
(0.782641 0.459337 0)
(0.778083 0.49286 0)
(0.976742 0.640799 0)
(1.09112 0.753212 0)
(1.13877 0.644259 0)
(1.17898 0.588024 0)
(1.1422 0.581842 0)
(0.843909 0.713505 0)
(0.731345 0.933647 0)
(0.738785 1.05036 0)
(0.708153 1.04195 0)
(0.706791 0.955302 0)
(0.720804 0.865455 0)
(0.725823 0.793168 0)
(0.730698 0.741836 0)
(0.737505 0.697003 0)
(0.74417 0.651075 0)
(0.749514 0.606113 0)
(0.755964 0.565483 0)
(0.764992 0.528427 0)
(0.771822 0.493384 0)
(0.773512 0.459669 0)
(0.646362 0.377067 0)
(0.855525 0.538106 0)
(0.977691 0.646732 0)
(1.01584 0.569745 0)
(1.08539 0.527852 0)
(0.984391 0.58436 0)
(0.741449 0.778023 0)
(0.6729 0.98182 0)
(0.685934 1.06777 0)
(0.660227 1.05733 0)
(0.678546 0.959113 0)
(0.693612 0.861465 0)
(0.703809 0.795897 0)
(0.713861 0.746538 0)
(0.721628 0.698952 0)
(0.729753 0.65089 0)
(0.736733 0.605923 0)
(0.744865 0.565714 0)
(0.755158 0.528806 0)
(0.762315 0.49375 0)
(0.764338 0.459735 0)
(0.470012 0.226891 0)
(0.702886 0.462121 0)
(0.826341 0.580927 0)
(0.904881 0.513446 0)
(0.958921 0.514855 0)
(0.82156 0.602453 0)
(0.669307 0.803715 0)
(0.620027 0.995118 0)
(0.614372 1.07637 0)
(0.613476 1.06729 0)
(0.646166 0.953677 0)
(0.663933 0.858737 0)
(0.684611 0.800529 0)
(0.695854 0.748532 0)
(0.704985 0.697428 0)
(0.71515 0.649818 0)
(0.7241 0.605784 0)
(0.73393 0.565877 0)
(0.745335 0.528963 0)
(0.752719 0.49384 0)
(0.755128 0.459509 0)
(0.284453 -0.0504565 0)
(0.508927 0.416245 0)
(0.668833 0.535189 0)
(0.800047 0.486776 0)
(0.805533 0.539895 0)
(0.667916 0.660333 0)
(0.589278 0.838214 0)
(0.554959 1.00803 0)
(0.545965 1.09191 0)
(0.568425 1.0655 0)
(0.606495 0.940759 0)
(0.638749 0.861186 0)
(0.665451 0.802643 0)
(0.676218 0.7455 0)
(0.68776 0.694638 0)
(0.7009 0.649301 0)
(0.711727 0.605714 0)
(0.723087 0.565757 0)
(0.735479 0.528814 0)
(0.74304 0.493667 0)
(0.745911 0.459035 0)
(0.152926 -0.389309 0)
(0.341238 0.318358 0)
(0.54374 0.467844 0)
(0.675627 0.485578 0)
(0.627731 0.577344 0)
(0.515181 0.734033 0)
(0.495336 0.8895 0)
(0.488722 1.02856 0)
(0.479756 1.09454 0)
(0.516883 1.04598 0)
(0.567477 0.933002 0)
(0.617694 0.864242 0)
(0.642862 0.799962 0)
(0.65523 0.739701 0)
(0.671257 0.69398 0)
(0.68727 0.649377 0)
(0.69942 0.60528 0)
(0.712279 0.565223 0)
(0.725605 0.528436 0)
(0.733301 0.493294 0)
(0.736707 0.458368 0)
(0.058955 -0.591512 0)
(0.238385 0.0836003 0)
(0.411998 0.399046 0)
(0.500908 0.489134 0)
(0.439342 0.598859 0)
(0.37365 0.764559 0)
(0.386017 0.910091 0)
(0.41324 1.0227 0)
(0.41116 1.07461 0)
(0.462588 1.01788 0)
(0.542005 0.933291 0)
(0.59648 0.863197 0)
(0.617234 0.791171 0)
(0.635006 0.737777 0)
(0.656637 0.694775 0)
(0.673522 0.648996 0)
(0.687057 0.60408 0)
(0.701568 0.564408 0)
(0.715739 0.527952 0)
(0.72351 0.492714 0)
(0.727528 0.457526 0)
(-0.054317 -0.669397 0)
(0.125842 -0.256514 0)
(0.247593 0.332734 0)
(0.289107 0.486292 0)
(0.261113 0.595795 0)
(0.250597 0.755024 0)
(0.283637 0.899147 0)
(0.326745 1.00431 0)
(0.346043 1.05181 0)
(0.430807 1.00858 0)
(0.517593 0.933552 0)
(0.56844 0.854135 0)
(0.591941 0.783504 0)
(0.618163 0.738794 0)
(0.641768 0.694791 0)
(0.65928 0.647076 0)
(0.674833 0.602253 0)
(0.691046 0.563548 0)
(0.705856 0.527336 0)
(0.713666 0.491828 0)
(0.718377 0.456531 0)
(-0.173329 -0.681435 0)
(0.00259048 -0.471172 0)
(0.0754161 0.152041 0)
(0.0923073 0.48893 0)
(0.111589 0.606672 0)
(0.152952 0.752415 0)
(0.209192 0.898396 0)
(0.255101 1.00009 0)
(0.303059 1.04394 0)
(0.401571 1.00362 0)
(0.493932 0.926253 0)
(0.537703 0.836885 0)
(0.570945 0.781876 0)
(0.602415 0.739042 0)
(0.62546 0.69214 0)
(0.645115 0.643535 0)
(0.663022 0.600414 0)
(0.680691 0.562674 0)
(0.695891 0.526431 0)
(0.703778 0.490572 0)
(0.709266 0.455426 0)
(-0.275126 -0.651264 0)
(-0.11086 -0.541346 0)
(-0.0360483 -0.160008 0)
(-0.0460461 0.477453 0)
(-0.00776841 0.638698 0)
(0.0678613 0.761293 0)
(0.131928 0.89915 0)
(0.185862 1.00056 0)
(0.261466 1.04011 0)
(0.37412 0.995109 0)
(0.463098 0.90665 0)
(0.510062 0.825915 0)
(0.554734 0.781954 0)
(0.585438 0.736307 0)
(0.608671 0.686322 0)
(0.63165 0.639958 0)
(0.651715 0.598912 0)
(0.670341 0.561556 0)
(0.685816 0.525091 0)
(0.693872 0.489007 0)
(0.700206 0.454255 0)
(-0.350042 -0.605766 0)
(-0.218067 -0.543506 0)
(-0.0807024 -0.341788 0)
(-0.111878 0.272841 0)
(-0.103 0.658762 0)
(-0.0171089 0.781016 0)
(0.0646335 0.913466 0)
(0.124269 1.01355 0)
(0.221465 1.03842 0)
(0.351559 0.976719 0)
(0.42999 0.878297 0)
(0.491545 0.823293 0)
(0.539258 0.779859 0)
(0.566219 0.728187 0)
(0.592621 0.680342 0)
(0.619477 0.637519 0)
(0.640598 0.597412 0)
(0.659867 0.559928 0)
(0.675673 0.523372 0)
(0.683984 0.487291 0)
(0.691204 0.453025 0)
(-0.383921 -0.572241 0)
(-0.306491 -0.504493 0)
(-0.15357 -0.400031 0)
(-0.109593 -0.0562811 0)
(-0.155331 0.604348 0)
(-0.0942216 0.798945 0)
(-0.0039531 0.921966 0)
(0.0715541 1.01253 0)
(0.193118 1.01872 0)
(0.323579 0.941683 0)
(0.404509 0.86377 0)
(0.477103 0.822765 0)
(0.519647 0.773083 0)
(0.54686 0.718364 0)
(0.57932 0.67715 0)
(0.608281 0.635645 0)
(0.629195 0.595321 0)
(0.649352 0.557757 0)
(0.665532 0.521473 0)
(0.674132 0.485511 0)
(0.682261 0.451713 0)
(-0.392707 -0.529938 0)
(-0.36113 -0.461124 0)
(-0.253315 -0.386377 0)
(-0.134959 -0.211361 0)
(-0.128523 0.264994 0)
(-0.139305 0.790595 0)
(-0.0581786 0.917093 0)
(0.0411427 0.983211 0)
(0.173084 0.98624 0)
(0.295782 0.902398 0)
(0.390166 0.857701 0)
(0.46245 0.818581 0)
(0.4974 0.759227 0)
(0.529965 0.713033 0)
(0.568562 0.675145 0)
(0.596472 0.632964 0)
(0.617551 0.592122 0)
(0.639012 0.555325 0)
(0.655413 0.519518 0)
(0.664315 0.483609 0)
(0.673384 0.450275 0)
(-0.395069 -0.47611 0)
(-0.380482 -0.422573 0)
(-0.325738 -0.334481 0)
(-0.21544 -0.240433 0)
(-0.122981 -0.00868135 0)
(-0.126157 0.497125 0)
(-0.0931399 0.889872 0)
(0.00409539 0.950462 0)
(0.15111 0.937537 0)
(0.280146 0.885508 0)
(0.377613 0.855416 0)
(0.44198 0.806488 0)
(0.476542 0.746566 0)
(0.517685 0.711329 0)
(0.557599 0.672638 0)
(0.583716 0.628723 0)
(0.605983 0.588509 0)
(0.628974 0.553007 0)
(0.645274 0.517371 0)
(0.654535 0.481421 0)
(0.664598 0.448641 0)
(-0.389886 -0.423387 0)
(-0.381464 -0.377154 0)
(-0.351852 -0.294289 0)
(-0.287091 -0.19756 0)
(-0.173357 -0.0823239 0)
(-0.109657 0.15803 0)
(-0.0665389 0.561531 0)
(0.00985336 0.873938 0)
(0.138601 0.909588 0)
(0.266422 0.876406 0)
(0.364918 0.846459 0)
(0.417425 0.786304 0)
(0.460089 0.742595 0)
(0.507525 0.708607 0)
(0.545218 0.666675 0)
(0.570936 0.622673 0)
(0.5951 0.585352 0)
(0.619198 0.550848 0)
(0.635055 0.514906 0)
(0.644808 0.478908 0)
(0.655939 0.446757 0)
(-0.379783 -0.375153 0)
(-0.372292 -0.328946 0)
(-0.350138 -0.254913 0)
(-0.31055 -0.155141 0)
(-0.223569 -0.0519881 0)
(-0.136735 0.0751948 0)
(-0.0494948 0.241144 0)
(0.0532076 0.454354 0)
(0.169232 0.643255 0)
(0.266758 0.751932 0)
(0.341269 0.775317 0)
(0.396212 0.748721 0)
(0.447669 0.728763 0)
(0.493999 0.699541 0)
(0.528857 0.657954 0)
(0.557858 0.616912 0)
(0.584748 0.582446 0)
(0.60943 0.548959 0)
(0.624783 0.512514 0)
(0.635176 0.476453 0)
(0.647435 0.444767 0)
(-0.366456 -0.331583 0)
(-0.357035 -0.283953 0)
(-0.336469 -0.21623 0)
(-0.301779 -0.120024 0)
(-0.231017 -0.017758 0)
(-0.14911 0.0926562 0)
(-0.0493107 0.188544 0)
(0.0636475 0.273652 0)
(0.181032 0.345707 0)
(0.272997 0.421697 0)
(0.354475 0.458638 0)
(0.406785 0.510908 0)
(0.45283 0.572206 0)
(0.48965 0.611184 0)
(0.519659 0.618106 0)
(0.545856 0.605023 0)
(0.573031 0.578494 0)
(0.598515 0.545884 0)
(0.614388 0.510093 0)
(0.62565 0.474963 0)
(0.639055 0.443351 0)
(-0.351255 -0.293207 0)
(-0.343298 -0.245056 0)
(-0.317959 -0.18096 0)
(-0.280222 -0.0910931 0)
(-0.220279 0.00406741 0)
(-0.140228 0.104194 0)
(-0.042096 0.190219 0)
(0.066307 0.250593 0)
(0.17465 0.289641 0)
(0.270749 0.312907 0)
(0.350492 0.309797 0)
(0.410127 0.319976 0)
(0.461129 0.335995 0)
(0.503896 0.36307 0)
(0.534657 0.417656 0)
(0.554602 0.485558 0)
(0.570573 0.531811 0)
(0.587418 0.533719 0)
(0.602475 0.506387 0)
(0.615612 0.474244 0)
(0.630597 0.443627 0)
(-0.338451 -0.259349 0)
(-0.32482 -0.209989 0)
(-0.296501 -0.151232 0)
(-0.254433 -0.0723533 0)
(-0.199484 0.0184083 0)
(-0.120243 0.101 0)
(-0.025575 0.177365 0)
(0.0785492 0.237204 0)
(0.178912 0.264043 0)
(0.266444 0.270519 0)
(0.340029 0.269093 0)
(0.402803 0.267797 0)
(0.454342 0.259663 0)
(0.499684 0.254269 0)
(0.539626 0.26336 0)
(0.568996 0.290194 0)
(0.589687 0.34866 0)
(0.598413 0.424629 0)
(0.599296 0.473099 0)
(0.606445 0.46918 0)
(0.621098 0.444411 0)
(-0.320202 -0.229414 0)
(-0.307277 -0.180312 0)
(-0.276867 -0.125478 0)
(-0.233684 -0.0577997 0)
(-0.176865 0.0219366 0)
(-0.101464 0.0973579 0)
(-0.01149 0.158966 0)
(0.0801444 0.211297 0)
(0.168922 0.23655 0)
(0.250649 0.247914 0)
(0.321223 0.256417 0)
(0.382662 0.25164 0)
(0.441958 0.241109 0)
(0.498602 0.235585 0)
(0.540491 0.227216 0)
(0.571279 0.220102 0)
(0.596155 0.227311 0)
(0.616229 0.259549 0)
(0.620689 0.328923 0)
(0.611912 0.412809 0)
(0.615865 0.435045 0)
(-0.304792 -0.203191 0)
(-0.288964 -0.155755 0)
(-0.260121 -0.101938 0)
(-0.216097 -0.0429167 0)
(-0.156718 0.0250581 0)
(-0.0864603 0.0954771 0)
(-0.00282264 0.147617 0)
(0.0809703 0.187653 0)
(0.163996 0.214733 0)
(0.24487 0.230575 0)
(0.315333 0.238128 0)
(0.378356 0.233744 0)
(0.438263 0.228377 0)
(0.492967 0.221074 0)
(0.533913 0.206437 0)
(0.567372 0.195624 0)
(0.596291 0.191553 0)
(0.619661 0.19271 0)
(0.634832 0.209181 0)
(0.637122 0.268041 0)
(0.626725 0.365474 0)
(-0.291161 -0.179578 0)
(-0.272348 -0.135744 0)
(-0.243063 -0.0827223 0)
(-0.200319 -0.0270651 0)
(-0.140713 0.0308963 0)
(-0.073764 0.0916907 0)
(0.00376435 0.139988 0)
(0.0856924 0.172972 0)
(0.16735 0.20088 0)
(0.246528 0.213581 0)
(0.316272 0.215182 0)
(0.378684 0.213693 0)
(0.436858 0.212188 0)
(0.488078 0.20312 0)
(0.528283 0.189208 0)
(0.562973 0.179944 0)
(0.59562 0.174788 0)
(0.620943 0.169518 0)
(0.637558 0.16769 0)
(0.649624 0.180334 0)
(0.652033 0.235353 0)
(-0.279597 -0.157429 0)
(-0.256758 -0.119401 0)
(-0.225564 -0.0702357 0)
(-0.184284 -0.0150959 0)
(-0.126653 0.0352273 0)
(-0.062007 0.0869355 0)
(0.0108653 0.132454 0)
(0.0899301 0.162671 0)
(0.168662 0.184545 0)
(0.243184 0.191127 0)
(0.310513 0.190811 0)
(0.37229 0.192017 0)
(0.429906 0.193052 0)
(0.480574 0.185802 0)
(0.522438 0.174312 0)
(0.55888 0.165889 0)
(0.592569 0.159435 0)
(0.618798 0.153488 0)
(0.636588 0.148516 0)
(0.651369 0.149032 0)
(0.663109 0.163082 0)
(-0.26896 -0.136537 0)
(-0.243267 -0.104464 0)
(-0.209124 -0.0630357 0)
(-0.168062 -0.0120523 0)
(-0.11342 0.0348771 0)
(-0.050544 0.0794099 0)
(0.0181562 0.120871 0)
(0.0921588 0.148877 0)
(0.166182 0.164031 0)
(0.236349 0.168732 0)
(0.303963 0.169756 0)
(0.368467 0.171309 0)
(0.427416 0.172118 0)
(0.476849 0.167761 0)
(0.518095 0.160762 0)
(0.556274 0.152585 0)
(0.591512 0.144196 0)
(0.617373 0.137966 0)
(0.634347 0.134031 0)
(0.650308 0.132381 0)
(0.665583 0.135899 0)
(-0.259601 -0.117529 0)
(-0.231681 -0.090383 0)
(-0.194676 -0.0586425 0)
(-0.15296 -0.0153351 0)
(-0.100995 0.0278631 0)
(-0.0400084 0.0677797 0)
(0.0261315 0.103862 0)
(0.0956282 0.130275 0)
(0.166387 0.143612 0)
(0.235749 0.150959 0)
(0.303919 0.153706 0)
(0.368307 0.155006 0)
(0.426122 0.15436 0)
(0.473619 0.151709 0)
(0.513774 0.146764 0)
(0.55205 0.138853 0)
(0.587789 0.12946 0)
(0.614432 0.122255 0)
(0.631765 0.119772 0)
(0.648393 0.119432 0)
(0.665127 0.119529 0)
(-0.249809 -0.102207 0)
(-0.221628 -0.0772376 0)
(-0.183329 -0.0527163 0)
(-0.139885 -0.0196524 0)
(-0.0886076 0.0184504 0)
(-0.0295688 0.0544488 0)
(0.0345292 0.0858608 0)
(0.10089 0.112186 0)
(0.169006 0.128192 0)
(0.236695 0.138887 0)
(0.303059 0.143002 0)
(0.365972 0.141648 0)
(0.423047 0.138747 0)
(0.470786 0.135776 0)
(0.511746 0.131086 0)
(0.550242 0.123713 0)
(0.585683 0.114588 0)
(0.612537 0.107279 0)
(0.629998 0.105704 0)
(0.646853 0.106612 0)
(0.664989 0.10583 0)
(-0.240037 -0.090206 0)
(-0.211048 -0.0666765 0)
(-0.173425 -0.0438689 0)
(-0.128601 -0.0184547 0)
(-0.0770296 0.0116114 0)
(-0.019436 0.0433487 0)
(0.0433635 0.0705842 0)
(0.10786 0.0961317 0)
(0.173213 0.115896 0)
(0.238228 0.12818 0)
(0.302061 0.130518 0)
(0.364218 0.127529 0)
(0.421529 0.124076 0)
(0.468845 0.119559 0)
(0.509174 0.114681 0)
(0.546241 0.108477 0)
(0.580103 0.100547 0)
(0.607817 0.0931751 0)
(0.628614 0.0920417 0)
(0.647592 0.0935601 0)
(0.665841 0.0930944 0)
(-0.230811 -0.0782665 0)
(-0.200546 -0.0572082 0)
(-0.163647 -0.0331463 0)
(-0.118401 -0.0104063 0)
(-0.0666448 0.0121921 0)
(-0.0113003 0.0370732 0)
(0.0498329 0.0592615 0)
(0.113514 0.0804955 0)
(0.176917 0.0996938 0)
(0.239579 0.111499 0)
(0.301917 0.114483 0)
(0.364402 0.113281 0)
(0.421931 0.108497 0)
(0.469054 0.10254 0)
(0.508801 0.0981302 0)
(0.544692 0.0934302 0)
(0.577417 0.0868138 0)
(0.605635 0.0797965 0)
(0.62853 0.0781209 0)
(0.64858 0.0799138 0)
(0.666339 0.0805857 0)
(-0.223547 -0.0633955 0)
(-0.191386 -0.0460026 0)
(-0.154174 -0.0239534 0)
(-0.110776 8.36685e-05 0)
(-0.059323 0.0184492 0)
(-0.00349132 0.0374924 0)
(0.0568829 0.0533769 0)
(0.119708 0.0660517 0)
(0.18214 0.0782619 0)
(0.243179 0.0889595 0)
(0.303585 0.0965904 0)
(0.363674 0.0991026 0)
(0.41861 0.0940527 0)
(0.465383 0.0863738 0)
(0.505086 0.0820371 0)
(0.540934 0.0792298 0)
(0.574724 0.0736836 0)
(0.605469 0.0671625 0)
(0.631335 0.0644369 0)
(0.652015 0.0673509 0)
(0.667096 0.0682138 0)
(-0.218382 -0.0459711 0)
(-0.184296 -0.03347 0)
(-0.146222 -0.0176573 0)
(-0.104209 0.00062799 0)
(-0.0546128 0.016 0)
(-8.18121e-05 0.0300691 0)
(0.0591373 0.0415158 0)
(0.121689 0.049143 0)
(0.184867 0.0562859 0)
(0.246893 0.0657759 0)
(0.306811 0.0775886 0)
(0.364002 0.0834655 0)
(0.416294 0.078441 0)
(0.463101 0.0704099 0)
(0.50491 0.0662276 0)
(0.542234 0.064899 0)
(0.576395 0.0604553 0)
(0.607087 0.0540545 0)
(0.633843 0.0511944 0)
(0.654317 0.0548137 0)
(0.667734 0.0557594 0)
(-0.213796 -0.0308773 0)
(-0.180597 -0.0208022 0)
(-0.142255 -0.0108394 0)
(-0.0987203 0.00146407 0)
(-0.0495666 0.0130033 0)
(0.00478935 0.0243372 0)
(0.0638307 0.0338691 0)
(0.125564 0.0392144 0)
(0.187995 0.043734 0)
(0.24896 0.0499608 0)
(0.306944 0.0590637 0)
(0.361077 0.0636374 0)
(0.411644 0.0603888 0)
(0.459821 0.0547238 0)
(0.504468 0.0517544 0)
(0.543165 0.0508901 0)
(0.576649 0.0470345 0)
(0.605814 0.0414084 0)
(0.631879 0.0392775 0)
(0.65169 0.0419892 0)
(0.664071 0.0431888 0)
(-0.210389 -0.0200372 0)
(-0.177535 -0.0120724 0)
(-0.138608 -0.00648366 0)
(-0.0951499 0.00233152 0)
(-0.0461328 0.0121903 0)
(0.00832923 0.0211337 0)
(0.0663143 0.0278397 0)
(0.126811 0.032643 0)
(0.188702 0.0345128 0)
(0.250013 0.0369137 0)
(0.308232 0.0398307 0)
(0.361425 0.0412806 0)
(0.411709 0.0411102 0)
(0.460986 0.0394776 0)
(0.506814 0.0382718 0)
(0.545232 0.0365438 0)
(0.577215 0.0332122 0)
(0.60543 0.0289858 0)
(0.632881 0.0286488 0)
(0.654215 0.0299902 0)
(0.666591 0.0310978 0)
(-0.208054 -0.0109478 0)
(-0.176609 -0.00572772 0)
(-0.137675 -0.00228582 0)
(-0.0929896 0.00136329 0)
(-0.0438142 0.00769234 0)
(0.00940891 0.0138577 0)
(0.0659814 0.0201549 0)
(0.124695 0.0252073 0)
(0.185182 0.027229 0)
(0.246081 0.0251929 0)
(0.304796 0.0215579 0)
(0.359722 0.0204972 0)
(0.411113 0.0221409 0)
(0.46015 0.0239767 0)
(0.505289 0.024098 0)
(0.542769 0.0220488 0)
(0.573791 0.0193734 0)
(0.601777 0.0170264 0)
(0.630087 0.0170619 0)
(0.6519 0.0173221 0)
(0.664266 0.0181725 0)
(-0.206703 -0.00409387 0)
(-0.174957 -0.00194861 0)
(-0.137421 -4.22894e-05 0)
(-0.0928941 0.00130501 0)
(-0.0431547 0.0034453 0)
(0.0108601 0.00580486 0)
(0.0682466 0.00790193 0)
(0.12743 0.0094681 0)
(0.187865 0.00922253 0)
(0.249056 0.00740715 0)
(0.30917 0.00627161 0)
(0.364868 0.00679471 0)
(0.415506 0.00799412 0)
(0.463241 0.0085996 0)
(0.507824 0.00825608 0)
(0.545612 0.00729428 0)
(0.577293 0.00653057 0)
(0.606063 0.00602536 0)
(0.635176 0.00624785 0)
(0.657345 0.00640679 0)
(0.669816 0.00669397 0)
(-0.206703 0.00409387 0)
(-0.174957 0.00194861 0)
(-0.137421 4.22894e-05 0)
(-0.0928941 -0.00130501 0)
(-0.0431547 -0.0034453 0)
(0.0108601 -0.00580486 0)
(0.0682466 -0.00790193 0)
(0.12743 -0.0094681 0)
(0.187865 -0.00922253 0)
(0.249056 -0.00740715 0)
(0.30917 -0.00627161 0)
(0.364868 -0.00679471 0)
(0.415506 -0.00799412 0)
(0.463241 -0.0085996 0)
(0.507824 -0.00825608 0)
(0.545612 -0.00729428 0)
(0.577293 -0.00653057 0)
(0.606063 -0.00602536 0)
(0.635176 -0.00624785 0)
(0.657345 -0.00640679 0)
(0.669816 -0.00669397 0)
(0.677753 -0.00659845 0)
(-0.208054 0.0109478 0)
(-0.176609 0.00572772 0)
(-0.137675 0.00228582 0)
(-0.0929896 -0.00136329 0)
(-0.0438142 -0.00769234 0)
(0.00940891 -0.0138577 0)
(0.0659814 -0.0201549 0)
(0.124695 -0.0252073 0)
(0.185182 -0.027229 0)
(0.246081 -0.0251929 0)
(0.304796 -0.0215579 0)
(0.359722 -0.0204972 0)
(0.411113 -0.0221409 0)
(0.46015 -0.0239767 0)
(0.505289 -0.024098 0)
(0.542769 -0.0220488 0)
(0.573791 -0.0193734 0)
(0.601777 -0.0170264 0)
(0.630087 -0.0170619 0)
(0.6519 -0.0173221 0)
(0.664266 -0.0181725 0)
(0.672223 -0.0184435 0)
(-0.210389 0.0200372 0)
(-0.177535 0.0120724 0)
(-0.138608 0.00648366 0)
(-0.0951499 -0.00233152 0)
(-0.0461328 -0.0121903 0)
(0.00832923 -0.0211337 0)
(0.0663143 -0.0278397 0)
(0.126811 -0.032643 0)
(0.188702 -0.0345128 0)
(0.250013 -0.0369137 0)
(0.308232 -0.0398307 0)
(0.361425 -0.0412806 0)
(0.411709 -0.0411102 0)
(0.460986 -0.0394776 0)
(0.506814 -0.0382718 0)
(0.545232 -0.0365438 0)
(0.577215 -0.0332122 0)
(0.60543 -0.0289858 0)
(0.632881 -0.0286488 0)
(0.654215 -0.0299902 0)
(0.666591 -0.0310978 0)
(0.674906 -0.0308848 0)
(-0.213796 0.0308773 0)
(-0.180597 0.0208022 0)
(-0.142255 0.0108394 0)
(-0.0987203 -0.00146407 0)