/*--------------------------------*- C++ -*----------------------------------*\
  =========                 |
  \\      /  F ield         | OpenFOAM: The Open Source CFD Toolbox
   \\    /   O peration     | Website:  https://openfoam.org
    \\  /    A nd           | Version:  8
     \\/     M anipulation  |
\*---------------------------------------------------------------------------*/
FoamFile
{
    version     2.0;
    format      ascii;
    class       volVectorField;
    location    "0.5";
    object      U;
}
// * * * * * * * * * * * * * * * * * * * * * * * * * * * * * * * * * * * * * //

dimensions      [0 1 -1 0 0 0 0];

internalField   nonuniform List<vector> 
325
(
(3 5.40942e-07 0)
(2.99977 -0.000112532 0)
(2.99407 0.000656142 0)
(3 4.61328e-15 0)
(3 4.99663e-13 0)
(3 -4.4453e-11 0)
(3 1.41434e-10 0)
(3 -1.74418e-08 0)
(3 1.57206e-06 0)
(2.99983 -0.000287225 0)
(2.99407 0.00198636 0)
(3 -5.14849e-14 0)
(3 8.00516e-13 0)
(3 -7.53268e-11 0)
(3 2.3262e-10 0)
(3 -6.31123e-08 0)
(3 2.55684e-06 0)
(2.99995 -0.000403648 0)
(2.99438 0.00327132 0)
(3 4.23653e-14 0)
(3 9.96623e-13 0)
(3 -1.12577e-10 0)
(3 3.22338e-10 0)
(3 -1.00792e-07 0)
(3 3.50392e-06 0)
(3.00007 -0.000465396 0)
(2.99478 0.00449096 0)
(3 1.34471e-13 0)
(3 9.98506e-13 0)
(3 -1.53383e-10 0)
(3 4.11188e-10 0)
(3 -1.26637e-07 0)
(3 4.40035e-06 0)
(3.00015 -0.000488538 0)
(2.99538 0.00569507 0)
(3 2.47981e-14 0)
(3 8.98878e-13 0)
(3 -1.74049e-10 0)
(3 4.83588e-10 0)
(3 -1.39862e-07 0)
(3 5.23488e-06 0)
(3.00018 -0.000493469 0)
(2.99625 0.00688659 0)
(3 -1.17073e-13 0)
(3 8.57059e-13 0)
(3 -1.82914e-10 0)
(3 5.60494e-10 0)
(3 -1.46908e-07 0)
(3 6.00706e-06 0)
(3.00019 -0.000496689 0)
(2.99737 0.00782419 0)
(3 -1.0297e-13 0)
(3 1.00116e-12 0)
(3 -1.86944e-10 0)
(3 6.39783e-10 0)
(3 -1.50767e-07 0)
(3 6.70805e-06 0)
(3.00018 -0.000494079 0)
(2.99806 0.00876426 0)
(3 -4.6665e-14 0)
(3 1.16953e-12 0)
(3 -1.87557e-10 0)
(3 6.98824e-10 0)
(3 -1.52509e-07 0)
(3 7.32613e-06 0)
(3.00017 -0.000487285 0)
(2.99841 0.00956189 0)
(3 6.47389e-14 0)
(3 1.13533e-12 0)
(3 -1.86696e-10 0)
(3 7.51906e-10 0)
(3 -1.52742e-07 0)
(3 7.8723e-06 0)
(3.00016 -0.000478469 0)
(2.99849 0.0102594 0)
(3 4.97873e-15 0)
(3 1.06749e-12 0)
(3 -1.87105e-10 0)
(3 7.97913e-10 0)
(3 -1.51936e-07 0)
(3 8.33242e-06 0)
(3.00015 -0.000467282 0)
(2.99833 0.010841 0)
(3 -7.54834e-14 0)
(3 1.06543e-12 0)
(3 -1.85492e-10 0)
(3 8.4203e-10 0)
(3 -1.50422e-07 0)
(3.00001 8.71754e-06 0)
(3.00013 -0.000455098 0)
(2.99792 0.0112521 0)
(3 -2.38047e-14 0)
(3 1.07806e-12 0)
(3 -1.81429e-10 0)
(3 8.84856e-10 0)
(3 -1.4834e-07 0)
(3.00001 9.04409e-06 0)
(3.00012 -0.000441414 0)
(2.99726 0.0114657 0)
(3 -2.81066e-15 0)
(3 1.12832e-12 0)
(3 -1.75167e-10 0)
(3 9.22254e-10 0)
(3 -1.458e-07 0)
(3.00001 9.31568e-06 0)
(3.0001 -0.000426485 0)
(2.99642 0.0114952 0)
(3 -1.97707e-14 0)
(3 1.05946e-12 0)
(3 -1.65867e-10 0)
(3 9.54397e-10 0)
(3 -1.42856e-07 0)
(3.00001 9.55403e-06 0)
(3.00008 -0.000411088 0)
(2.99553 0.0111729 0)
(3 -4.6026e-14 0)
(3 9.51041e-13 0)
(3 -1.53096e-10 0)
(3 9.80244e-10 0)
(3 -1.39427e-07 0)
(3.00001 9.78558e-06 0)
(3.00006 -0.000394697 0)
(2.99476 0.0105999 0)
(3 -2.85402e-14 0)
(3 8.57101e-13 0)
(3 -1.3756e-10 0)
(3 1.00257e-09 0)
(3 -1.35598e-07 0)
(3.00001 1.00246e-05 0)
(3.00004 -0.000377492 0)
(2.99419 0.00983783 0)
(3 -3.6806e-15 0)
(3 8.84514e-13 0)
(3 -1.19829e-10 0)
(3 1.02302e-09 0)
(3 -1.31554e-07 0)
(3.00001 1.03058e-05 0)
(3.00003 -0.000358944 0)
(2.99375 0.00896767 0)
(3 1.70186e-14 0)
(3 9.59312e-13 0)
(3 -1.00387e-10 0)
(3 1.04019e-09 0)
(3 -1.2703e-07 0)
(3.00001 1.06258e-05 0)
(3.00001 -0.00033969 0)
(2.99341 0.00810842 0)
(3 6.6085e-14 0)
(3 9.77943e-13 0)
(3 -8.03313e-11 0)
(3 1.05355e-09 0)
(3 -1.22092e-07 0)
(3.00001 1.09443e-05 0)
(2.99999 -0.000319778 0)
(2.99326 0.007269 0)
(3 -2.06311e-15 0)
(3 7.39618e-13 0)
(3 -5.6098e-11 0)
(3 1.06203e-09 0)
(3 -1.15547e-07 0)
(3.00001 1.11492e-05 0)
(2.99997 -0.000294237 0)
(2.99314 0.00634055 0)
(3 -8.48026e-15 0)
(3 6.38273e-13 0)
(3 -2.84841e-11 0)
(3 1.0509e-09 0)
(3 -1.07187e-07 0)
(3.00001 1.11513e-05 0)
(2.99995 -0.00026275 0)
(2.9931 0.00542294 0)
(3 2.19046e-14 0)
(3 6.70231e-13 0)
(3 -4.93435e-12 0)
(3 1.02071e-09 0)
(3 -9.8576e-08 0)
(3 1.09625e-05 0)
(2.99993 -0.000230787 0)
(2.99307 0.00471006 0)
(3 -3.60455e-14 0)
(3 5.80782e-13 0)
(3 8.66044e-12 0)
(3 9.88488e-10 0)
(3 -8.98139e-08 0)
(3 1.05455e-05 0)
(2.99991 -0.000198959 0)
(2.99302 0.00403682 0)
(3 2.54847e-14 0)
(3 5.73959e-13 0)
(3 7.59946e-12 0)
(3 9.66039e-10 0)
(3 -8.0945e-08 0)
(3 9.76169e-06 0)
(2.9999 -0.000167896 0)
(2.99299 0.00336032 0)
(3 6.14127e-14 0)
(3 5.81733e-13 0)
(3 5.06432e-12 0)
(3 9.46984e-10 0)
(3 -7.20379e-08 0)
(3 8.60739e-06 0)
(2.99988 -0.000138193 0)
(2.993 0.00267041 0)
(3 1.43938e-14 0)
(3 4.90452e-13 0)
(3 3.14832e-12 0)
(3 9.3026e-10 0)
(3 -6.33159e-08 0)
(3 7.23393e-06 0)
(2.99987 -0.000110499 0)
(2.99303 0.002018 0)
(3 -8.62343e-15 0)
(3 3.47706e-13 0)
(3 2.28628e-12 0)
(3 9.11554e-10 0)
(3 -5.4751e-08 0)
(3 5.75081e-06 0)
(2.99986 -8.53312e-05 0)
(2.99308 0.00146435 0)
(3 -6.86725e-14 0)
(3 2.08868e-13 0)
(3 1.97925e-12 0)
(3 8.82254e-10 0)
(3 -4.6011e-08 0)
(3 4.26193e-06 0)
(2.99986 -6.29676e-05 0)
(2.99315 0.00103196 0)
(3 -6.81642e-14 0)
(3 2.15949e-13 0)
(3 1.76336e-12 0)
(3 8.41763e-10 0)
(3 -3.72392e-08 0)
(3 2.89876e-06 0)
(2.99985 -4.34687e-05 0)
(2.99322 0.000693365 0)
(3 5.8629e-14 0)
(3 1.80452e-13 0)
(3 1.63616e-12 0)
(3 7.49299e-10 0)
(3 -2.87491e-08 0)
(3 1.77234e-06 0)
(2.99985 -2.64351e-05 0)
(2.99332 0.0003794 0)
(2.84301 -0.00210054 0)
(3 9.82045e-14 0)
(3 1.54826e-13 0)
(3 1.41358e-12 0)
(3 5.68478e-10 0)
(3 -2.09724e-08 0)
(3 9.45689e-07 0)
(2.99984 -1.21896e-05 0)
(2.99341 9.64226e-05 0)
(2.84141 -0.000776882 0)
(3 -2.50209e-14 0)
(3 2.00244e-13 0)
(3 1.38459e-12 0)
(3 3.61242e-10 0)
(3 -1.44489e-08 0)
(3 4.19755e-07 0)
(2.99984 -1.50077e-06 0)
(2.99348 -0.000128817 0)
(2.8406 0.000702851 0)
(3 -7.62589e-14 0)
(3 1.1396e-13 0)
(3 1.08192e-12 0)
(3 2.1398e-10 0)
(3 -9.55815e-09 0)
(3 1.43201e-07 0)
(2.99984 4.93717e-06 0)
(2.9935 -0.000232693 0)
(2.84055 0.0017294 0)
(3 2.75769e-14 0)
(3 8.41266e-14 0)
(3 2.64341e-14 0)
(3 1.29452e-10 0)
(3 -6.32342e-09 0)
(3 4.42116e-08 0)
(2.99984 5.51906e-06 0)
(2.99349 -0.000213798 0)
(2.84091 0.00207739 0)
(3 6.10391e-14 0)
(3 9.03361e-14 0)
(3 -1.3447e-11 0)
(3 9.11453e-11 0)
(3 -4.31322e-09 0)
(3 2.44744e-08 0)
(2.99984 4.06997e-06 0)
(2.99349 -0.000166142 0)
(2.84143 0.00184768 0)
(3 -3.89884e-14 0)
(3 6.65015e-14 0)
(3 -1.8088e-11 0)
(3 6.37055e-11 0)
(3 -3.0109e-09 0)
(3 2.56924e-08 0)
(2.99984 2.57404e-06 0)
(2.99348 -0.000109802 0)
(2.84187 0.00122423 0)
(3 -4.84676e-14 0)
(3 -1.30048e-14 0)
(3 -1.45817e-11 0)
(3 3.95308e-11 0)
(3 -2.05424e-09 0)
(3 2.77382e-08 0)
(2.99984 1.25925e-06 0)
(2.99347 -5.65189e-05 0)
(2.84203 0.00060111 0)
(3 -2.84156e-14 0)
(3 -1.06832e-14 0)
(3 -8.514e-12 0)
(3 2.03856e-11 0)
(3 -1.18503e-09 0)
(3 2.20377e-08 0)
(2.99984 3.32347e-07 0)
(2.99347 -1.69067e-05 0)
(2.84205 0.000121496 0)
(3 -2.18346e-14 0)
(3 2.68845e-14 0)
(3 -2.77576e-12 0)
(3 5.95862e-12 0)
(3 -3.81607e-10 0)
(3 8.51916e-09 0)
(2.99984 5.57492e-08 0)
(2.99347 -3.06541e-06 0)
(2.84203 -1.34405e-05 0)
)
;

boundaryField
{
    inlet
    {
        type            fixedValue;
        value           uniform (3 0 0);
    }
    outlet
    {
        type            inletOutlet;
        inletValue      nonuniform List<vector> 0();
        value           nonuniform List<vector> 0();
    }
    triangle
    {
        type            slip;
    }
    top
    {
        type            symmetryPlane;
    }
    bottom
    {
        type            symmetryPlane;
    }
    defaultFaces
    {
        type            empty;
    }
    procBoundary4to0
    {
        type            processor;
        value           nonuniform List<vector> 9((3 2.0021e-14 0) (3 1.67283e-13 0) (3 -1.72177e-11 0) (3 4.67043e-11 0) (3 -1.62579e-08 0) (3 -1.62579e-08 0) (3 -5.40915e-07 0) (2.99977 0.000112532 0) (2.99407 -0.000656171 0));
    }
    procBoundary4to1
    {
        type            processor;
        value           nonuniform List<vector> 2((3.20722 -0.00791992 0) (3.2088 -0.0230025 0));
    }
    procBoundary4to5
    {
        type            processor;
        value           nonuniform List<vector> 
39
(
(3.1897 -0.0419211 0)
(3.15467 -0.0648848 0)
(3.06365 -0.0852315 0)
(2.96688 -0.0782373 0)
(2.92646 -0.0814104 0)
(2.91188 -0.076805 0)
(2.9037 -0.0720582 0)
(2.89859 -0.0670158 0)
(2.89354 -0.0617779 0)
(2.88704 -0.0558133 0)
(2.87994 -0.0485212 0)
(2.87388 -0.0409628 0)
(2.86856 -0.0328605 0)
(2.86454 -0.025431 0)
(2.86055 -0.0176101 0)
(2.8578 -0.0119981 0)
(2.85483 -0.00606527 0)
(2.85257 -0.00175029 0)
(2.85019 0.00269261 0)
(2.84846 0.00467459 0)
(2.84717 0.00436353 0)
(2.84608 0.00352211 0)
(2.84591 0.00231453 0)
(2.84617 0.00108004 0)
(2.84645 -6.89868e-05 0)
(2.84648 -0.00108264 0)
(2.84593 -0.00205255 0)
(2.84472 -0.00258001 0)
(2.84472 -0.00258001 0)
(2.38747 0.0049897 0)
(2.38782 0.00622016 0)
(2.38797 0.00501454 0)
(2.38758 0.00227513 0)
(2.38751 -0.000138749 0)
(2.38754 -0.00110482 0)
(2.38726 -0.000896107 0)
(2.38708 -0.000431724 0)
(2.38698 -4.96627e-05 0)
(2.38696 0.000117122 0)
)
;
    }
}


// ************************************************************************* //
