/*--------------------------------*- C++ -*----------------------------------*\
  =========                 |
  \\      /  F ield         | OpenFOAM: The Open Source CFD Toolbox
   \\    /   O peration     | Website:  https://openfoam.org
    \\  /    A nd           | Version:  8
     \\/     M anipulation  |
\*---------------------------------------------------------------------------*/
FoamFile
{
    version     2.0;
    format      ascii;
    class       volScalarField;
    location    "5";
    object      p;
}
// * * * * * * * * * * * * * * * * * * * * * * * * * * * * * * * * * * * * * //

dimensions      [1 -1 -2 0 0 0 0];

internalField   nonuniform List<scalar> 
2600
(
1.28241
1.10378
1.12865
1.55629
1.96329
2.06075
1.74296
2.37445
3.06226
3.23563
1.27275
1.10634
1.12636
1.55145
1.93642
2.0559
1.74855
2.38653
3.0645
3.24151
1.2728
1.10073
1.12751
1.5307
1.89242
2.04752
1.7614
2.40269
3.06228
3.24302
1.27305
1.10255
1.12725
1.48652
1.84297
2.02165
1.78001
2.42275
3.05517
3.2459
1.27398
1.11491
1.13234
1.43049
1.78999
1.97823
1.80173
2.4485
3.04324
3.24434
1.28175
1.13484
1.14946
1.38132
1.73011
1.92697
1.83152
2.48405
3.02578
3.24394
1.28798
1.16188
1.172
1.34087
1.66066
1.87817
1.86936
2.52394
3.0106
3.23983
1.29643
1.19608
1.20442
1.31268
1.57111
1.82885
1.92105
2.56918
2.98855
3.23256
1.30792
1.23152
1.23629
1.28628
1.48123
1.79397
1.98334
2.62256
2.97149
3.22925
1.31891
1.26884
1.27301
1.2689
1.38831
1.75234
2.05481
2.68035
2.95435
3.21396
1.32755
1.30435
1.30416
1.25751
1.29788
1.7288
2.12221
2.73826
2.9439
3.21094
1.33277
1.33588
1.34139
1.24984
1.2095
1.7032
2.20982
2.7933
2.94205
3.19759
1.33578
1.36337
1.3722
1.2418
1.12648
1.68809
2.27426
2.84665
2.94217
3.18776
1.33259
1.38997
1.3989
1.23793
1.05581
1.68039
2.34738
2.89345
2.95271
3.17644
1.32843
1.41485
1.41826
1.23729
0.998844
1.67277
2.41162
2.94418
2.95875
3.16222
1.31647
1.43959
1.42922
1.24162
0.965979
1.67563
2.4706
2.97263
2.96752
3.14974
1.30485
1.46568
1.43552
1.24475
0.966316
1.68103
2.52303
3.00008
2.97351
3.13395
1.29216
1.4812
1.43346
1.24068
0.99221
1.7025
2.56345
3.01953
2.96881
3.11763
1.28135
1.49533
1.423
1.23882
1.02695
1.72319
2.59599
3.04126
2.97048
3.10296
1.26637
1.51011
1.40543
1.22555
1.06491
1.75459
2.61717
3.05005
2.95826
3.08898
1.54271
1.50445
1.36876
1.20396
1.10043
1.79195
2.63454
3.05461
2.93771
3.07574
1.86163
1.52479
1.33868
1.17092
1.12942
1.83606
2.65209
3.06075
2.92062
3.06182
2.14909
1.54408
1.29825
1.14814
1.1459
1.87065
2.66184
3.05306
2.89203
3.04508
2.39783
1.57494
1.27366
1.16242
1.16527
1.90256
2.67525
3.04426
2.86935
3.02682
2.68904
1.62664
1.25907
1.18375
1.18242
1.92771
2.69188
3.02538
2.84336
3.00755
2.92264
1.68848
1.26857
1.19287
1.19816
1.94095
2.71004
3.00567
2.82061
2.98774
3.15327
1.78989
1.30096
1.18154
1.21206
1.95715
2.73011
2.99647
2.80292
2.9702
3.34445
1.91456
1.33913
1.17171
1.22861
1.97843
2.76073
2.98101
2.78725
2.95821
3.50068
2.05819
1.39271
1.1699
1.25145
1.99295
2.78522
2.95454
2.77531
2.92885
3.6385
2.19658
1.45664
1.17477
1.27629
1.99194
2.81147
2.94179
2.77527
2.89837
3.73396
2.33827
1.53608
1.18813
1.30648
1.98209
2.82447
2.92411
2.77542
2.86285
3.82479
2.47737
1.61606
1.2085
1.34887
1.97222
2.81545
2.90064
2.76675
2.83041
3.90452
2.60365
1.70381
1.24691
1.40367
1.97002
2.79467
2.87738
2.75735
2.79966
3.98308
2.72255
1.79253
1.29832
1.46746
1.97654
2.76339
2.85247
2.74763
2.77476
4.04397
2.82784
1.88418
1.36925
1.54881
1.99603
2.73267
2.82831
2.74093
2.75327
4.10827
2.93084
1.98011
1.45475
1.63075
2.02544
2.70621
2.80468
2.73712
2.73713
4.14679
3.0388
2.08188
1.55749
1.71032
2.05774
2.67978
2.77589
2.74085
2.7248
4.08748
3.14821
2.18852
1.66148
1.79835
2.09223
2.64869
2.74167
2.74251
2.71747
4.06259
3.25415
2.29825
1.76789
1.91162
2.13146
2.61209
2.70829
2.73757
2.71114
3.94094
3.33963
2.40401
1.87706
2.03785
2.17025
2.57228
2.68053
2.72855
2.70649
5.59821
6.66163
6.3881
6.22022
6.11237
6.03213
5.92116
5.75111
5.49249
5.01486
4.44491
5.96671
5.9355
5.93419
5.97122
5.95679
5.83934
5.64515
5.3447
4.75718
2.43391
5.38548
6.13582
6.15683
6.10806
6.00626
5.84212
5.66649
5.38023
4.79095
1.39682
2.99145
5.79225
6.146
6.0158
5.90471
5.76689
5.59701
5.28348
4.77076
1.21188
1.32858
3.86338
5.92185
6.02061
5.91303
5.77098
5.61423
5.26884
4.84673
1.18436
1.18728
1.54461
4.67215
5.99125
5.89419
5.74721
5.57056
5.22026
4.87663
1.15775
1.16357
1.17074
2.09353
5.47585
5.87974
5.68956
5.54619
5.22607
4.9183
1.13743
1.1425
1.14581
1.17575
3.48562
5.69134
5.63054
5.53972
5.22846
4.93268
1.11911
1.1225
1.12604
1.13057
1.47774
4.76352
5.68699
5.52891
5.23123
4.94626
1.10491
1.10846
1.11308
1.11697
1.12694
2.58331
5.44693
5.49703
5.22887
4.95608
1.09445
1.09696
1.10032
1.1037
1.10739
1.26193
4.29445
5.47214
5.23947
4.97447
1.08558
1.08777
1.09005
1.0933
1.09644
1.10442
2.27817
5.1964
5.25223
4.99478
1.07958
1.08182
1.08432
1.0873
1.09033
1.0938
1.22524
4.08378
5.19363
5.0109
1.07443
1.07629
1.07859
1.08102
1.08413
1.08679
1.0958
2.36706
4.98618
5.03783
1.0704
1.07201
1.0739
1.07607
1.07874
1.08153
1.08557
1.30072
4.1456
5.00821
1.06753
1.06897
1.07066
1.07262
1.07492
1.0777
1.08029
1.09686
2.75183
4.8276
1.06517
1.06651
1.068
1.06982
1.0718
1.07431
1.07673
1.08215
1.54814
4.3311
1.06342
1.06465
1.06606
1.06773
1.06952
1.0718
1.07414
1.077
1.13264
3.43891
1.06203
1.06313
1.06444
1.06592
1.06761
1.0696
1.07189
1.07416
1.0847
2.41588
1.06093
1.06194
1.06313
1.06449
1.06606
1.06784
1.07002
1.0722
1.07716
1.54501
1.00174
1.0054
1.00944
1.01389
1.01885
1.0243
1.03038
1.03759
1.04336
1.36377
1.00174
1.0054
1.00944
1.01389
1.01885
1.02431
1.03038
1.03759
1.04338
1.28051
1.00174
1.0054
1.00944
1.01389
1.01884
1.02431
1.03037
1.03759
1.04335
1.23299
1.00174
1.0054
1.00944
1.01389
1.01884
1.02431
1.03036
1.0376
1.04325
1.18634
1.00174
1.0054
1.00944
1.01389
1.01884
1.02431
1.03035
1.03761
1.04324
1.15995
1.00174
1.0054
1.00944
1.01389
1.01884
1.02431
1.03035
1.03762
1.04325
1.1398
1.00174
1.0054
1.00944
1.01389
1.01884
1.02431
1.03034
1.03762
1.0433
1.11991
1.00174
1.0054
1.00944
1.01389
1.01884
1.02432
1.03034
1.03761
1.04334
1.10476
1.00174
1.0054
1.00944
1.01389
1.01883
1.02432
1.03033
1.0376
1.0434
1.09396
1.00174
1.0054
1.00944
1.0139
1.01883
1.02432
1.03033
1.03759
1.04347
1.08302
1.00174
1.0054
1.00944
1.0139
1.01883
1.02432
1.03033
1.03757
1.04354
1.07682
1.00174
1.0054
1.00944
1.0139
1.01883
1.02432
1.03033
1.03755
1.04363
1.07134
1.00174
1.0054
1.00944
1.0139
1.01883
1.02432
1.03033
1.03753
1.04372
1.06647
1.00174
1.0054
1.00944
1.0139
1.01883
1.02432
1.03034
1.0375
1.04382
1.06328
1.00174
1.0054
1.00944
1.0139
1.01883
1.02432
1.03034
1.03748
1.04392
1.06079
1.00174
1.0054
1.00944
1.0139
1.01883
1.02432
1.03034
1.03745
1.04402
1.05893
1.00174
1.0054
1.00944
1.0139
1.01883
1.02432
1.03035
1.03742
1.04413
1.05745
1.00174
1.0054
1.00944
1.0139
1.01883
1.02432
1.03035
1.03739
1.04423
1.0563
1.00174
1.0054
1.00944
1.0139
1.01883
1.02432
1.03036
1.03737
1.04432
1.05546
1.00174
1.0054
1.00944
1.0139
1.01883
1.02432
1.03036
1.03735
1.04441
1.05482
1.00174
1.0054
1.00944
1.0139
1.01883
1.02432
1.03036
1.03735
1.04441
1.05482
1.00174
1.0054
1.00944
1.0139
1.01883
1.02432
1.03036
1.03737
1.04432
1.05547
1.00174
1.0054
1.00944
1.0139
1.01883
1.02432
1.03035
1.03739
1.04423
1.0563
1.00174
1.0054
1.00944
1.0139
1.01883
1.02432
1.03035
1.03742
1.04413
1.05745
1.00174
1.0054
1.00944
1.0139
1.01883
1.02432
1.03034
1.03745
1.04402
1.05893
1.00174
1.0054
1.00944
1.0139
1.01883
1.02432
1.03034
1.03748
1.04392
1.06079
1.00174
1.0054
1.00944
1.0139
1.01883
1.02432
1.03034
1.0375
1.04382
1.06328
1.00174
1.0054
1.00944
1.0139
1.01883
1.02432
1.03033
1.03753
1.04372
1.06647
1.00174
1.0054
1.00944
1.0139
1.01883
1.02432
1.03033
1.03755
1.04363
1.07133
1.00174
1.0054
1.00944
1.0139
1.01883
1.02432
1.03033
1.03757
1.04354
1.07681
1.00174
1.0054
1.00944
1.0139
1.01883
1.02432
1.03033
1.03759
1.04347
1.08302
1.00174
1.0054
1.00944
1.01389
1.01883
1.02432
1.03033
1.0376
1.0434
1.09397
1.00174
1.0054
1.00944
1.01389
1.01884
1.02432
1.03034
1.03761
1.04334
1.10477
1.00174
1.0054
1.00944
1.01389
1.01884
1.02431
1.03034
1.03762
1.0433
1.11992
1.00174
1.0054
1.00944
1.01389
1.01884
1.02431
1.03035
1.03762
1.04325
1.13982
1.00174
1.0054
1.00944
1.01389
1.01884
1.02431
1.03035
1.03761
1.04324
1.15998
1.00174
1.0054
1.00944
1.01389
1.01884
1.02431
1.03036
1.0376
1.04325
1.1864
1.00174
1.0054
1.00944
1.01389
1.01884
1.02431
1.03037
1.03759
1.04335
1.23309
1.00174
1.0054
1.00944
1.01389
1.01885
1.02431
1.03038
1.03759
1.04338
1.28058
1.00174
1.0054
1.00944
1.01389
1.01885
1.0243
1.03038
1.03759
1.04336
1.36392
1.06093
1.06194
1.06313
1.06448
1.06606
1.06784
1.07001
1.07219
1.07716
1.54957
1.06203
1.06313
1.06444
1.06592
1.06761
1.06959
1.07189
1.07415
1.08479
2.42058
1.06342
1.06465
1.06606
1.06773
1.06951
1.07179
1.07412
1.07699
1.13345
3.43924
1.06517
1.0665
1.068
1.06981
1.07179
1.0743
1.07671
1.08216
1.55171
4.32658
1.06752
1.06897
1.07065
1.07261
1.07491
1.07769
1.08028
1.09698
2.75612
4.81884
1.0704
1.07201
1.0739
1.07606
1.07873
1.08151
1.08556
1.30279
4.14574
5.00171
1.07443
1.07629
1.07859
1.08102
1.08413
1.08679
1.09586
2.37383
4.98475
5.03004
1.07956
1.0818
1.08429
1.08728
1.0903
1.09379
1.22666
4.08942
5.19198
5.00509
1.08557
1.08774
1.09003
1.09328
1.09642
1.10444
2.28307
5.19467
5.24901
4.98863
1.09444
1.09696
1.10033
1.10371
1.10741
1.26318
4.2974
5.46494
5.23547
4.96847
1.10492
1.10847
1.11308
1.11698
1.12698
2.58862
5.4474
5.4946
5.22507
4.95269
1.11912
1.12251
1.12604
1.13057
1.47983
4.76619
5.68644
5.52634
5.22738
4.94397
1.13744
1.1425
1.14581
1.17583
3.49094
5.69001
5.62917
5.53728
5.22415
4.93224
1.15776
1.16358
1.17075
2.09444
5.47819
5.87794
5.68786
5.54402
5.22163
4.91884
1.18438
1.1873
1.54564
4.67245
5.99212
5.8936
5.74579
5.56864
5.217
4.87824
1.21193
1.32902
3.86567
5.92201
6.02037
5.91196
5.76909
5.61197
5.26715
4.85023
1.39758
2.99329
5.79272
6.14559
6.01528
5.90388
5.76465
5.59428
5.28288
4.77677
2.43629
5.38662
6.13528
6.15663
6.10755
6.00494
5.83993
5.66371
5.37935
4.80233
4.44606
5.96613
5.93464
5.93367
5.97072
5.95558
5.83678
5.64212
5.344
4.7723
5.59901
6.6615
6.38735
6.21973
6.11163
6.031
5.91939
5.74882
5.49206
5.02943
3.92034
3.29518
2.32447
1.93868
2.1936
2.46353
2.4058
2.42358
2.67744
2.77639
4.04138
3.20243
2.21428
1.85844
2.11013
2.44054
2.37985
2.4112
2.69448
2.80255
4.066
3.07965
2.10167
1.78767
2.03454
2.42188
2.35593
2.40743
2.72638
2.83167
4.12786
2.95298
1.98634
1.7311
1.96877
2.40731
2.34503
2.43086
2.78095
2.86122
4.09449
2.83114
1.86296
1.68352
1.90982
2.39091
2.33543
2.47894
2.84088
2.8881
4.03915
2.72174
1.73548
1.64396
1.86425
2.36531
2.32681
2.51194
2.88189
2.91182
3.98368
2.62378
1.60094
1.60552
1.82969
2.33291
2.30922
2.5185
2.90215
2.93401
3.902
2.52668
1.48626
1.55163
1.81098
2.29605
2.28758
2.51538
2.90933
2.96083
3.81417
2.42044
1.40623
1.48292
1.79314
2.25744
2.23498
2.44346
2.89768
2.97922
3.71097
2.29285
1.34949
1.41868
1.77565
2.21962
2.16425
2.3937
2.90917
3.00255
3.5992
2.15444
1.29598
1.36646
1.7643
2.18391
2.10384
2.3693
2.93333
3.02555
3.46096
1.99961
1.24628
1.33278
1.76416
2.15312
2.05362
2.36771
2.96685
3.05119
3.2974
1.83591
1.20187
1.31969
1.77323
2.13016
2.01976
2.3874
2.99525
3.07893
3.11331
1.67566
1.16433
1.33003
1.79217
2.10917
1.99811
2.41802
3.01522
3.10956
2.90109
1.51326
1.13646
1.36422
1.81717
2.09142
1.98
2.44555
3.02345
3.13934
2.6819
1.38879
1.11573
1.39763
1.84714
2.08083
1.94797
2.44295
3.03245
3.16495
2.41434
1.26978
1.10952
1.42965
1.89022
2.08394
1.88731
2.42295
3.03985
3.18813
2.17177
1.18498
1.09894
1.46632
1.92684
2.07661
1.81191
2.39662
3.04434
3.20662
1.88386
1.13497
1.10506
1.50005
1.96009
2.07525
1.7612
2.3784
3.05161
3.22122
1.55144
1.10199
1.12275
1.53087
1.96506
2.06651
1.74116
2.36953
3.0568
3.2297
1.07078
1.07389
2.2826
5.4221
4.97165
4.26254
3.5861
2.94125
2.26352
1.80537
1.07073
1.07396
2.30174
5.41505
4.95899
4.26214
3.57751
2.92929
2.26022
1.81676
1.07067
1.07387
2.32554
5.41637
4.94919
4.25478
3.56064
2.9091
2.25534
1.81796
1.07054
1.07383
2.36991
5.4146
4.92831
4.22888
3.53263
2.88092
2.2512
1.82764
1.07031
1.07387
2.43235
5.41508
4.89796
4.18649
3.49007
2.84209
2.24687
1.84542
1.07011
1.0743
2.50512
5.40367
4.85547
4.12872
3.43256
2.79419
2.24293
1.87092
1.06989
1.07559
2.59872
5.39155
4.80404
4.06112
3.36425
2.73898
2.23855
1.90421
1.06968
1.07957
2.69164
5.36909
4.74758
3.98099
3.28718
2.68018
2.23421
1.94468
1.06952
1.09196
2.78301
5.31453
4.66978
3.88459
3.19924
2.61519
2.22743
1.99232
1.06944
1.13099
2.8734
5.20323
4.55319
3.78617
3.11172
2.55476
2.22174
2.04699
1.06941
1.23222
3.08969
4.98585
4.41549
3.65155
3.00257
2.48971
2.21694
2.10925
1.06939
1.43461
3.334
4.69593
4.2408
3.53113
2.9067
2.43831
2.21754
2.17653
1.06937
1.73244
3.51933
4.39175
4.03033
3.3959
2.8129
2.40603
2.23105
2.2459
1.07287
2.01956
3.6264
4.02946
3.78301
3.24917
2.72233
2.38348
2.25617
2.31966
1.14544
2.25844
3.60256
3.66703
3.51213
3.09351
2.633
2.37576
2.29591
2.3927
1.41798
2.65736
3.45996
3.33661
3.23913
2.94043
2.56062
2.37598
2.34859
2.46357
1.87418
3.0243
3.19075
3.02509
2.99209
2.7998
2.49735
2.38406
2.41541
2.5373
2.44672
3.23378
2.94025
2.68111
2.77754
2.6913
2.46376
2.39439
2.4966
2.61291
2.86514
3.3214
2.72572
2.35277
2.57533
2.58815
2.44496
2.4148
2.58214
2.68371
3.56009
3.36772
2.5072
2.09177
2.35169
2.5111
2.4328
2.428
2.64773
2.74071
3.57969
3.391
2.5812
2.07216
2.23838
2.2548
2.5104
2.63769
2.6987
2.67944
2.8478
3.33934
2.78579
2.3754
2.48583
2.3816
2.49489
2.57292
2.62828
2.60838
2.4613
3.2603
2.97639
2.71689
2.72093
2.54023
2.53001
2.5133
2.54633
2.53217
1.88647
3.05558
3.21199
3.05501
2.97235
2.72603
2.57232
2.47481
2.47415
2.47593
1.41934
2.68183
3.4683
3.35131
3.24281
2.89195
2.63205
2.46856
2.42521
2.43169
1.14168
2.27254
3.60434
3.67042
3.52835
3.07104
2.69598
2.47263
2.38429
2.38244
1.07201
2.0243
3.6209
4.02472
3.80005
3.24307
2.77377
2.47528
2.34478
2.32354
1.06934
1.73812
3.51235
4.38974
4.04941
3.39554
2.8573
2.48687
2.3092
2.25621
1.06939
1.44213
3.327
4.69676
4.25736
3.53623
2.95121
2.51604
2.27995
2.18637
1.06941
1.23663
3.08147
4.99471
4.42754
3.65455
3.03732
2.54677
2.25664
2.11412
1.06944
1.13228
2.86134
5.21385
4.56034
3.78527
3.14358
2.59596
2.24524
2.04413
1.06952
1.09223
2.76665
5.32237
4.67103
3.87892
3.21447
2.64385
2.23683
1.98229
1.06967
1.07967
2.67213
5.36905
4.74191
3.9682
3.29105
2.69863
2.23303
1.9306
1.06988
1.07566
2.57847
5.38379
4.7916
4.04216
3.35951
2.75116
2.23265
1.88927
1.07009
1.07435
2.48701
5.38977
4.8366
4.10546
3.42111
2.80132
2.23655
1.85671
1.07029
1.0739
2.41617
5.39546
4.87437
4.1608
3.47455
2.84535
2.24347
1.83148
1.07051
1.07385
2.357
5.38982
4.89909
4.19961
3.51361
2.88074
2.25287
1.81263
1.07065
1.07388
2.31592
5.38563
4.91261
4.22267
3.53851
2.90564
2.26284
1.79968
1.07072
1.07397
2.29445
5.37865
4.91589
4.22919
3.55413
2.92356
2.27302
1.79153
1.07077
1.0739
2.27651
5.38073
4.92339
4.22594
3.56028
2.93373
2.2801
1.78627
1.05999
1.06091
1.06199
1.06319
1.06459
1.06615
1.06802
1.07018
1.07239
1.13489
1.05921
1.06004
1.061
1.06206
1.06328
1.06462
1.0662
1.06802
1.06998
1.07258
1.05874
1.05951
1.06039
1.06136
1.06245
1.06365
1.06504
1.06655
1.06854
1.06981
1.05847
1.05921
1.06004
1.06094
1.06195
1.06305
1.06432
1.06564
1.06745
1.06866
1.05834
1.05905
1.05984
1.0607
1.06165
1.06269
1.06386
1.06511
1.0667
1.06785
1.05827
1.05897
1.05973
1.06056
1.06147
1.06248
1.06357
1.06478
1.06621
1.06734
1.05825
1.05895
1.0597
1.06052
1.06143
1.06239
1.06347
1.06462
1.06595
1.06723
1.05824
1.05893
1.05969
1.06051
1.06141
1.06237
1.06343
1.06456
1.06581
1.06729
1.05825
1.05894
1.05969
1.06051
1.0614
1.06236
1.0634
1.06454
1.06575
1.06726
1.05827
1.05896
1.05971
1.06052
1.0614
1.06236
1.0634
1.06454
1.06574
1.06723
1.0583
1.05899
1.05973
1.06054
1.06142
1.06238
1.06341
1.06455
1.06575
1.06721
1.05834
1.05903
1.05977
1.06058
1.06145
1.0624
1.06343
1.06455
1.06575
1.0672
1.05839
1.05907
1.05981
1.06061
1.06148
1.06242
1.06344
1.06457
1.06576
1.06718
1.05842
1.05909
1.05983
1.06062
1.06149
1.06243
1.06346
1.06458
1.06578
1.06717
1.05844
1.05912
1.05985
1.06065
1.06151
1.06245
1.06348
1.0646
1.0658
1.06717
1.05844
1.05913
1.05988
1.06068
1.06155
1.06249
1.06351
1.06463
1.06584
1.06719
1.05842
1.05911
1.05986
1.06068
1.06156
1.06252
1.06355
1.06467
1.06589
1.06722
1.05837
1.05907
1.05983
1.06066
1.06155
1.06252
1.06357
1.06471
1.06595
1.06727
1.05834
1.05904
1.05981
1.06064
1.06155
1.06254
1.0636
1.06476
1.066
1.06733
1.0583
1.05901
1.05979
1.06063
1.06155
1.06255
1.06362
1.06479
1.06604
1.06738
1.00174
1.0054
1.00944
1.0139
1.01883
1.02432
1.03037
1.03733
1.0445
1.05428
1.00174
1.0054
1.00944
1.0139
1.01883
1.02432
1.03037
1.03731
1.0446
1.05386
1.00174
1.0054
1.00944
1.0139
1.01883
1.02432
1.03037
1.0373
1.04467
1.05362
1.00174
1.0054
1.00944
1.0139
1.01883
1.02432
1.03037
1.0373
1.04472
1.05349
1.00174
1.0054
1.00944
1.0139
1.01883
1.02432
1.03037
1.0373
1.04477
1.05344
1.00174
1.0054
1.00944
1.0139
1.01883
1.02432
1.03038
1.03729
1.0448
1.05343
1.00174
1.0054
1.00944
1.0139
1.01883
1.02432
1.03038
1.03727
1.04484
1.05342
1.00174
1.0054
1.00944
1.0139
1.01883
1.02432
1.03039
1.03726
1.04486
1.05342
1.00174
1.0054
1.00944
1.0139
1.01883
1.02432
1.03039
1.03724
1.04488
1.05343
1.00174
1.0054
1.00944
1.0139
1.01883
1.02432
1.03039
1.03723
1.04488
1.05346
1.00174
1.0054
1.00944
1.0139
1.01883
1.02432
1.0304
1.03722
1.04488
1.05348
1.00174
1.0054
1.00944
1.0139
1.01883
1.02432
1.0304
1.03721
1.04487
1.0535
1.00174
1.0054
1.00944
1.0139
1.01883
1.02432
1.0304
1.03721
1.04486
1.05353
1.00174
1.0054
1.00944
1.0139
1.01883
1.02432
1.0304
1.03722
1.04484
1.05356
1.00174
1.0054
1.00944
1.0139
1.01883
1.02432
1.03041
1.03722
1.04483
1.05357
1.00174
1.0054
1.00944
1.0139
1.01883
1.02431
1.03041
1.03722
1.04482
1.05355
1.00174
1.0054
1.00944
1.0139
1.01883
1.02431
1.03041
1.03723
1.04482
1.05353
1.00174
1.0054
1.00944
1.0139
1.01883
1.02431
1.0304
1.03723
1.04482
1.0535
1.00174
1.0054
1.00944
1.0139
1.01883
1.02431
1.0304
1.03723
1.04483
1.05347
1.00174
1.0054
1.00944
1.0139
1.01883
1.02431
1.0304
1.03723
1.04484
1.05344
1.00174
1.0054
1.00944
1.0139
1.01883
1.02431
1.0304
1.03723
1.04484
1.05344
1.00174
1.0054
1.00944
1.0139
1.01883
1.02431
1.0304
1.03723
1.04483
1.05347
1.00174
1.0054
1.00944
1.0139
1.01883
1.02431
1.0304
1.03723
1.04482
1.05349
1.00174
1.0054
1.00944
1.0139
1.01883
1.02431
1.0304
1.03723
1.04482
1.05353
1.00174
1.0054
1.00944
1.0139
1.01883
1.02431
1.03041
1.03722
1.04482
1.05355
1.00174
1.0054
1.00944
1.0139
1.01883
1.02432
1.03041
1.03722
1.04483
1.05357
1.00174
1.0054
1.00944
1.0139
1.01883
1.02432
1.0304
1.03722
1.04484
1.05356
1.00174
1.0054
1.00944
1.0139
1.01883
1.02432
1.0304
1.03721
1.04486
1.05353
1.00174
1.0054
1.00944
1.0139
1.01883
1.02432
1.0304
1.03722
1.04487
1.0535
1.00174
1.0054
1.00944
1.0139
1.01883
1.02432
1.0304
1.03722
1.04488
1.05348
1.00174
1.0054
1.00944
1.0139
1.01883
1.02432
1.03039
1.03723
1.04488
1.05346
1.00174
1.0054
1.00944
1.0139
1.01883
1.02432
1.03039
1.03724
1.04488
1.05343
1.00174
1.0054
1.00944
1.0139
1.01883
1.02432
1.03039
1.03726
1.04486
1.05342
1.00174
1.0054
1.00944
1.0139
1.01883
1.02432
1.03038
1.03727
1.04484
1.05342
1.00174
1.0054
1.00944
1.0139
1.01883
1.02432
1.03038
1.03729
1.0448
1.05343
1.00174
1.0054
1.00944
1.0139
1.01883
1.02432
1.03038
1.0373
1.04477
1.05344
1.00174
1.0054
1.00944
1.0139
1.01883
1.02432
1.03037
1.0373
1.04472
1.05348
1.00174
1.0054
1.00944
1.0139
1.01883
1.02432
1.03037
1.0373
1.04467
1.05362
1.00174
1.0054
1.00944
1.0139
1.01883
1.02432
1.03037
1.03731
1.0446
1.05386
1.00174
1.0054
1.00944
1.0139
1.01883
1.02432
1.03037
1.03733
1.0445
1.05428
1.0583
1.05901
1.05978
1.06063
1.06155
1.06255
1.06362
1.06478
1.06604
1.06738
1.05834
1.05904
1.05981
1.06064
1.06155
1.06253
1.0636
1.06476
1.066
1.06733
1.05837
1.05907
1.05983
1.06066
1.06155
1.06252
1.06357
1.06471
1.06595
1.06727
1.05842
1.05911
1.05986
1.06068
1.06156
1.06252
1.06355
1.06467
1.06589
1.06722
1.05844
1.05913
1.05988
1.06069
1.06155
1.0625
1.06351
1.06463
1.06584
1.06719
1.05844
1.05912
1.05985
1.06065
1.06151
1.06246
1.06348
1.0646
1.0658
1.06717
1.05842
1.0591
1.05983
1.06063
1.06149
1.06243
1.06346
1.06458
1.06578
1.06717
1.05839
1.05907
1.05981
1.06061
1.06148
1.06242
1.06345
1.06457
1.06577
1.06718
1.05834
1.05903
1.05977
1.06058
1.06145
1.0624
1.06343
1.06456
1.06576
1.0672
1.0583
1.05899
1.05974
1.06055
1.06142
1.06238
1.06341
1.06455
1.06575
1.06721
1.05827
1.05896
1.05971
1.06052
1.0614
1.06236
1.0634
1.06454
1.06575
1.06723
1.05825
1.05894
1.05969
1.06051
1.0614
1.06236
1.0634
1.06454
1.06575
1.06725
1.05824
1.05893
1.05969
1.06051
1.06141
1.06237
1.06342
1.06456
1.06581
1.06728
1.05825
1.05894
1.0597
1.06052
1.06142
1.06239
1.06347
1.06461
1.06595
1.06721
1.05827
1.05897
1.05973
1.06056
1.06147
1.06247
1.06357
1.06478
1.06621
1.06734
1.05834
1.05905
1.05984
1.0607
1.06165
1.06269
1.06386
1.06511
1.0667
1.06784
1.05847
1.05921
1.06004
1.06094
1.06195
1.06304
1.06431
1.06563
1.06745
1.06865
1.05874
1.05951
1.06039
1.06136
1.06245
1.06365
1.06504
1.06654
1.06853
1.0698
1.05921
1.06004
1.061
1.06206
1.06327
1.06462
1.0662
1.06802
1.06997
1.0726
1.05999
1.06091
1.06198
1.06319
1.06458
1.06615
1.06801
1.07017
1.07237
1.13597
)
;

boundaryField
{
    inlet
    {
        type            fixedValue;
        value           uniform 1;
    }
    outlet
    {
        type            zeroGradient;
    }
    triangle
    {
        type            zeroGradient;
    }
    top
    {
        type            symmetryPlane;
    }
    bottom
    {
        type            symmetryPlane;
    }
    defaultFaces
    {
        type            empty;
    }
}


// ************************************************************************* //
