/*--------------------------------*- C++ -*----------------------------------*\
  =========                 |
  \\      /  F ield         | OpenFOAM: The Open Source CFD Toolbox
   \\    /   O peration     | Website:  https://openfoam.org
    \\  /    A nd           | Version:  8
     \\/     M anipulation  |
\*---------------------------------------------------------------------------*/
FoamFile
{
    version     2.0;
    format      ascii;
    class       volScalarField;
    location    "5";
    object      rho;
}
// * * * * * * * * * * * * * * * * * * * * * * * * * * * * * * * * * * * * * //

dimensions      [1 -3 0 0 0 0 0];

internalField   nonuniform List<scalar> 
2600
(
0.986609
0.947004
1.00262
1.22037
1.37188
1.45138
1.37421
1.96778
2.58488
2.55617
0.958972
0.891351
0.942111
1.16561
1.34925
1.4528
1.37214
1.94215
2.53242
2.5047
0.958329
0.864828
0.900297
1.12679
1.3268
1.4573
1.38003
1.92763
2.47925
2.45782
0.963423
0.863544
0.881755
1.09253
1.30824
1.4545
1.39171
1.92004
2.42688
2.42021
0.9701
0.872687
0.880072
1.05829
1.28868
1.43959
1.40181
1.91631
2.37518
2.38962
0.979055
0.888505
0.88984
1.03385
1.26238
1.41529
1.41347
1.91643
2.32246
2.36876
0.986013
0.908176
0.90587
1.01638
1.22571
1.38773
1.43079
1.91742
2.2741
2.35286
0.99338
0.930589
0.92839
1.00508
1.17258
1.35634
1.45923
1.92066
2.22756
2.34014
1.00213
0.952814
0.950731
0.992299
1.1144
1.33095
1.49585
1.92952
2.19088
2.33309
1.0103
0.975758
0.974689
0.980849
1.0519
1.3011
1.53725
1.94461
2.16176
2.32412
1.01653
0.997046
0.992923
0.970579
0.990355
1.2808
1.57412
1.96529
2.14348
2.32663
1.01988
1.01502
1.01165
0.960372
0.93182
1.26148
1.61747
1.98896
2.13666
2.33061
1.02136
1.02955
1.02355
0.947608
0.878923
1.2509
1.64586
2.01491
2.13594
2.34574
1.0191
1.0425
1.03181
0.93629
0.83644
1.24756
1.67898
2.03851
2.14434
2.36807
1.01567
1.05353
1.03781
0.929894
0.806944
1.25346
1.71141
2.06175
2.15387
2.39215
1.00693
1.06324
1.04276
0.931313
0.796774
1.27725
1.74777
2.07059
2.16289
2.41544
0.997418
1.07317
1.0473
0.935739
0.810388
1.31257
1.78609
2.07757
2.16522
2.43239
0.987636
1.08001
1.04938
0.941213
0.845921
1.36334
1.82988
2.08233
2.15721
2.44483
0.981989
1.09899
1.05577
0.953804
0.894144
1.41845
1.88603
2.09358
2.15174
2.45656
0.992326
1.15502
1.08143
0.970299
0.949007
1.48492
1.95204
2.10665
2.14395
2.47117
1.25833
1.25179
1.13226
1.00661
1.0134
1.56726
2.03603
2.13648
2.14959
2.49767
1.55832
1.37658
1.20309
1.06009
1.08977
1.66493
2.13418
2.19811
2.1979
2.5407
1.83561
1.4722
1.2533
1.12353
1.16471
1.75557
2.22541
2.28566
2.28277
2.59579
2.09309
1.55536
1.2925
1.20332
1.23776
1.83645
2.30966
2.39828
2.39192
2.65463
2.38116
1.64731
1.32244
1.27563
1.29922
1.90184
2.38544
2.51189
2.49243
2.70676
2.61581
1.73974
1.3645
1.32575
1.34879
1.94818
2.45267
2.61124
2.57055
2.7472
2.81782
1.85131
1.42505
1.34964
1.3884
1.98821
2.51227
2.69205
2.62382
2.77732
2.97448
1.97438
1.48995
1.36753
1.42536
2.02509
2.57002
2.74298
2.65563
2.79978
3.08966
2.10484
1.56344
1.38675
1.46247
2.05218
2.61495
2.76492
2.67484
2.80164
3.17829
2.22065
1.63944
1.40671
1.49621
2.06465
2.65332
2.77955
2.69208
2.79539
3.23128
2.32859
1.72209
1.42942
1.53203
2.06797
2.67567
2.78157
2.70191
2.77817
3.27885
2.42619
1.79638
1.45552
1.57558
2.06755
2.67789
2.77334
2.69969
2.75811
3.32023
2.50961
1.86849
1.49439
1.62574
2.06981
2.66738
2.75875
2.69226
2.736
3.36286
2.58498
1.93513
1.53984
1.67994
2.07809
2.64545
2.73865
2.68117
2.71555
3.39566
2.64998
2.00061
1.59947
1.74696
2.09433
2.6214
2.71659
2.67011
2.696
3.43499
2.71294
2.06681
1.6702
1.81266
2.11443
2.59811
2.69347
2.66073
2.67881
3.4687
2.77918
2.13536
1.75316
1.87378
2.13442
2.57302
2.66602
2.65748
2.66288
3.43147
2.8479
2.20682
1.83359
1.93849
2.1556
2.54375
2.63516
2.65377
2.6496
3.41827
2.91673
2.28073
1.91283
2.02073
2.18075
2.51212
2.60596
2.64489
2.63685
3.34896
2.9719
2.35149
1.992
2.11131
2.20509
2.48094
2.58087
2.63219
2.6254
3.65095
4.12286
4.02055
3.9733
3.94365
3.91746
3.87387
3.80068
3.6818
3.46109
3.31103
3.9965
3.9651
3.95218
3.96061
3.94995
3.88998
3.79488
3.65057
3.3993
2.40717
4.0806
4.3622
4.29583
4.22698
4.14835
4.04313
3.93801
3.78582
3.55572
1.74961
2.85035
4.47413
4.49015
4.39465
4.30431
4.20502
4.09247
3.90728
3.69708
1.60063
1.69853
3.37866
4.49522
4.4986
4.43777
4.35053
4.25369
4.04735
3.84928
1.57778
1.58076
1.86176
3.81917
4.52049
4.47127
4.39277
4.29368
4.09245
3.91376
1.55355
1.55922
1.56593
2.25456
4.24485
4.46611
4.36181
4.28503
4.11001
3.94446
1.53434
1.53922
1.54246
1.5688
3.08183
4.32166
4.29861
4.26193
4.10443
3.94658
1.51682
1.52011
1.52357
1.52787
1.80521
3.7745
4.31001
4.23589
4.09003
3.93952
1.50319
1.50664
1.51113
1.51496
1.52412
2.55164
4.17263
4.21354
4.07277
3.92724
1.4931
1.49555
1.49883
1.50213
1.5057
1.63832
3.50216
4.18296
4.06483
3.92474
1.48451
1.48665
1.48889
1.49205
1.49513
1.50262
2.35993
4.03696
4.0748
3.93162
1.47868
1.48088
1.48332
1.48624
1.48919
1.49255
1.60836
3.38806
4.03414
3.93769
1.47366
1.47548
1.47773
1.48011
1.48315
1.48576
1.49441
2.41886
3.93362
3.95849
1.46972
1.4713
1.47315
1.47527
1.47789
1.48062
1.48451
1.67352
3.45319
3.94271
1.4669
1.46832
1.46998
1.4719
1.47415
1.47688
1.47942
1.49492
2.65548
3.85284
1.46459
1.4659
1.46738
1.46916
1.4711
1.47356
1.47593
1.48119
1.8755
3.5861
1.46287
1.46409
1.46547
1.46711
1.46886
1.4711
1.47339
1.47618
1.5281
3.00733
1.46151
1.46259
1.46388
1.46533
1.46699
1.46894
1.47119
1.47342
1.48369
2.39588
1.46042
1.46142
1.46259
1.46392
1.46547
1.46722
1.46935
1.4715
1.47637
1.8545
1.40174
1.4054
1.40944
1.41387
1.4188
1.42423
1.43026
1.43739
1.44314
1.55829
1.40174
1.4054
1.40944
1.41387
1.4188
1.42423
1.43026
1.43738
1.44316
1.54966
1.40174
1.4054
1.40944
1.41387
1.4188
1.42423
1.43025
1.43739
1.44312
1.5723
1.40174
1.4054
1.40944
1.41387
1.4188
1.42423
1.43024
1.4374
1.44301
1.56277
1.40174
1.4054
1.40944
1.41387
1.4188
1.42423
1.43023
1.43741
1.443
1.54996
1.40174
1.4054
1.40944
1.41387
1.4188
1.42424
1.43023
1.43742
1.44301
1.53503
1.40174
1.4054
1.40943
1.41387
1.41879
1.42424
1.43022
1.43742
1.44305
1.51729
1.40174
1.4054
1.40943
1.41387
1.41879
1.42424
1.43022
1.43742
1.4431
1.50292
1.40174
1.4054
1.40943
1.41387
1.41879
1.42424
1.43021
1.43741
1.44315
1.49253
1.40174
1.4054
1.40943
1.41387
1.41879
1.42424
1.43021
1.43739
1.44322
1.48194
1.40174
1.4054
1.40943
1.41387
1.41879
1.42424
1.43021
1.43738
1.44329
1.47593
1.40174
1.4054
1.40943
1.41387
1.41879
1.42424
1.43021
1.43736
1.44337
1.47061
1.40174
1.4054
1.40943
1.41388
1.41879
1.42425
1.43021
1.43733
1.44347
1.46586
1.40174
1.4054
1.40943
1.41388
1.41879
1.42425
1.43022
1.43731
1.44357
1.46273
1.40174
1.4054
1.40943
1.41388
1.41879
1.42425
1.43022
1.43728
1.44366
1.46029
1.40174
1.4054
1.40943
1.41388
1.41879
1.42424
1.43022
1.43726
1.44376
1.45846
1.40174
1.4054
1.40943
1.41388
1.41879
1.42424
1.43023
1.43723
1.44387
1.45701
1.40174
1.4054
1.40943
1.41388
1.41879
1.42424
1.43023
1.43721
1.44396
1.45587
1.40174
1.4054
1.40943
1.41388
1.41879
1.42424
1.43024
1.43718
1.44406
1.45505
1.40174
1.4054
1.40943
1.41388
1.41879
1.42424
1.43024
1.43716
1.44414
1.45442
1.40174
1.4054
1.40943
1.41388
1.41879
1.42424
1.43024
1.43716
1.44415
1.45442
1.40174
1.4054
1.40943
1.41388
1.41879
1.42424
1.43024
1.43718
1.44406
1.45505
1.40174
1.4054
1.40943
1.41388
1.41879
1.42424
1.43023
1.43721
1.44396
1.45587
1.40174
1.4054
1.40943
1.41388
1.41879
1.42424
1.43023
1.43723
1.44387
1.45701
1.40174
1.4054
1.40943
1.41388
1.41879
1.42424
1.43022
1.43726
1.44376
1.45846
1.40174
1.4054
1.40943
1.41388
1.41879
1.42425
1.43022
1.43728
1.44367
1.46029
1.40174
1.4054
1.40943
1.41388
1.41879
1.42425
1.43022
1.43731
1.44357
1.46273
1.40174
1.4054
1.40943
1.41388
1.41879
1.42425
1.43021
1.43733
1.44347
1.46586
1.40174
1.4054
1.40943
1.41387
1.41879
1.42424
1.43021
1.43736
1.44337
1.4706
1.40174
1.4054
1.40943
1.41387
1.41879
1.42424
1.43021
1.43738
1.44329
1.47592
1.40174
1.4054
1.40943
1.41387
1.41879
1.42424
1.43021
1.43739
1.44322
1.48194
1.40174
1.4054
1.40943
1.41387
1.41879
1.42424
1.43021
1.43741
1.44315
1.49254
1.40174
1.4054
1.40943
1.41387
1.41879
1.42424
1.43022
1.43742
1.4431
1.50293
1.40174
1.4054
1.40943
1.41387
1.41879
1.42424
1.43022
1.43742
1.44305
1.5173
1.40174
1.4054
1.40944
1.41387
1.4188
1.42424
1.43023
1.43742
1.44301
1.53505
1.40174
1.4054
1.40944
1.41387
1.4188
1.42423
1.43023
1.43741
1.443
1.54998
1.40174
1.4054
1.40944
1.41387
1.4188
1.42423
1.43024
1.4374
1.44301
1.56279
1.40174
1.4054
1.40944
1.41387
1.4188
1.42423
1.43025
1.43739
1.44312
1.57231
1.40174
1.4054
1.40944
1.41387
1.4188
1.42423
1.43026
1.43739
1.44316
1.54954
1.40174
1.4054
1.40944
1.41387
1.4188
1.42423
1.43026
1.43739
1.44314
1.5583
1.46042
1.46142
1.46259
1.46392
1.46547
1.46721
1.46935
1.47149
1.47636
1.85759
1.46151
1.46259
1.46388
1.46533
1.46699
1.46894
1.47118
1.47341
1.48378
2.3985
1.46287
1.46408
1.46546
1.46711
1.46886
1.4711
1.47338
1.47618
1.52887
3.0082
1.46459
1.4659
1.46737
1.46915
1.47109
1.47355
1.47592
1.4812
1.87835
3.58422
1.4669
1.46832
1.46997
1.47189
1.47414
1.47686
1.47941
1.49504
2.65829
3.84832
1.46971
1.47129
1.47315
1.47527
1.47788
1.48061
1.48451
1.67527
3.45411
3.93959
1.47366
1.47548
1.47773
1.48011
1.48315
1.48576
1.49446
2.4234
3.93314
3.95425
1.47867
1.48086
1.48329
1.48621
1.48917
1.49254
1.60958
3.39204
4.03335
3.93443
1.4845
1.48663
1.48887
1.49203
1.49512
1.50264
2.36325
4.03617
4.07282
3.92795
1.49309
1.49555
1.49884
1.50215
1.50571
1.63935
3.50453
4.17885
4.06222
3.9208
1.50319
1.50665
1.51113
1.51496
1.52415
2.55481
4.17325
4.21195
4.07025
3.92463
1.51683
1.52012
1.52357
1.52786
1.80677
3.77618
4.30974
4.23442
4.08779
3.93753
1.53434
1.53922
1.54245
1.56887
3.0846
4.32072
4.29771
4.26046
4.10205
3.94543
1.55357
1.55923
1.56594
2.25523
4.24614
4.46505
4.36076
4.28366
4.10749
3.94397
1.5778
1.58078
1.86256
3.81936
4.52097
4.47098
4.39197
4.29257
4.09057
3.91421
1.60068
1.69889
3.38012
4.495
4.49844
4.43722
4.34958
4.25256
4.04642
3.85112
1.7502
2.85147
4.47439
4.48961
4.39411
4.30384
4.20381
4.09105
3.90693
3.70055
2.4085
4.08087
4.36165
4.29529
4.22627
4.14751
4.04183
3.9365
3.78516
3.5609
3.31106
3.99569
3.9642
3.95149
3.95991
3.94901
3.88847
3.7932
3.64998
3.40593
3.65077
4.12223
4.01967
3.97261
3.94287
3.91653
3.87272
3.79934
3.68141
3.4676
3.33706
2.94564
2.29269
2.02212
2.21385
2.41893
2.38092
2.39575
2.57526
2.67298
3.40597
2.88613
2.21439
1.96581
2.1587
2.40768
2.36692
2.39252
2.59455
2.69982
3.4189
2.8063
2.13476
1.91747
2.11036
2.4009
2.35488
2.39497
2.62233
2.7277
3.45712
2.72561
2.05384
1.8797
2.06859
2.39824
2.35345
2.4154
2.66475
2.75483
3.42682
2.64944
1.96636
1.84639
2.02846
2.39384
2.35317
2.4542
2.70952
2.77859
3.39274
2.58119
1.8734
1.81494
1.99344
2.37955
2.3522
2.48121
2.74247
2.7994
3.36324
2.52014
1.77098
1.77967
1.96236
2.35352
2.34166
2.48864
2.76319
2.81909
3.31907
2.45862
1.67828
1.73286
1.94106
2.31722
2.32366
2.48838
2.77484
2.84121
3.27342
2.38754
1.61011
1.67373
1.91788
2.27427
2.27915
2.43828
2.77342
2.85565
3.21927
2.29599
1.55782
1.61512
1.88789
2.22547
2.21485
2.39888
2.7873
2.86858
3.15741
2.18838
1.50327
1.56143
1.85248
2.16956
2.15122
2.37216
2.80929
2.87369
3.07092
2.05797
1.44779
1.51914
1.81387
2.10602
2.09059
2.35991
2.83628
2.87421
2.9541
1.90905
1.39233
1.4878
1.77089
2.03284
2.03318
2.35715
2.85465
2.87111
2.80619
1.75258
1.33749
1.46832
1.72654
1.94183
1.97272
2.35578
2.86121
2.86547
2.62064
1.58778
1.28646
1.46158
1.67958
1.83366
1.89988
2.34413
2.85257
2.85428
2.40155
1.44345
1.23847
1.44824
1.6279
1.71718
1.80048
2.30282
2.83322
2.83263
2.13149
1.29832
1.20019
1.42674
1.57539
1.61191
1.67377
2.23882
2.79927
2.79873
1.87244
1.18328
1.15535
1.39688
1.51271
1.52581
1.54611
2.16028
2.75238
2.74983
1.5786
1.09773
1.11338
1.34795
1.45384
1.47971
1.45118
2.08187
2.69987
2.68854
1.25086
1.01852
1.06434
1.28194
1.40034
1.45786
1.39473
2.01331
2.64078
2.61902
1.47009
1.47315
2.32599
4.11014
3.86887
3.47879
3.08036
2.67322
2.21418
1.87649
1.47005
1.47321
2.34505
4.1125
3.86584
3.48052
3.07594
2.66564
2.21184
1.88499
1.46998
1.47313
2.3711
4.12594
3.86923
3.48164
3.06813
2.65319
2.20843
1.88601
1.46986
1.47309
2.40775
4.13762
3.86848
3.47442
3.05496
2.63603
2.20568
1.89332
1.46964
1.47313
2.44854
4.14769
3.8628
3.45859
3.03363
2.61224
2.203
1.90664
1.46943
1.47356
2.49461
4.15446
3.85274
3.4351
3.00367
2.58275
2.20089
1.92563
1.46922
1.47482
2.5658
4.17258
3.84461
3.4088
2.96805
2.5488
2.19882
1.95015
1.46901
1.47875
2.64663
4.19571
3.84089
3.37869
2.92858
2.51319
2.19728
1.97948
1.46886
1.49103
2.73132
4.20492
3.82718
3.34021
2.88371
2.47461
2.1949
2.01346
1.46878
1.52955
2.82261
4.17602
3.78332
3.29788
2.83954
2.44038
2.1944
2.05213
1.46875
1.62602
2.98363
4.06159
3.71132
3.22559
2.77913
2.40403
2.19421
2.09659
1.46874
1.80169
3.1315
3.88179
3.60234
3.15223
2.72252
2.3778
2.19531
2.14678
1.46871
2.02622
3.21726
3.68289
3.46137
3.05977
2.66088
2.36377
2.20383
2.20033
1.47229
2.22175
3.25446
3.44563
3.29165
2.95152
2.59541
2.35096
2.22285
2.25611
1.54541
2.38833
3.20803
3.20445
3.10229
2.83273
2.52751
2.3417
2.25618
2.31306
1.79881
2.63287
3.06607
2.97731
2.91119
2.71819
2.47159
2.33636
2.30067
2.3721
2.10782
2.80099
2.87023
2.76127
2.74239
2.61919
2.42481
2.33902
2.3536
2.43702
2.40163
2.89463
2.70666
2.53204
2.60238
2.5485
2.40205
2.34949
2.41431
2.50668
2.61549
2.94949
2.56619
2.31174
2.47172
2.48632
2.39349
2.37189
2.48136
2.57514
3.0873
2.98107
2.4203
2.13103
2.32163
2.44467
2.39291
2.39154
2.54203
2.63388
3.09755
2.99382
2.46982
2.13063
2.25065
2.25778
2.43473
2.54228
2.60013
2.59382
2.60097
2.95888
2.60275
2.33692
2.41336
2.33521
2.42118
2.48831
2.5357
2.52673
2.40968
2.91045
2.72698
2.56005
2.56424
2.43573
2.44247
2.44016
2.46485
2.45658
2.11692
2.8221
2.88213
2.78207
2.72934
2.56353
2.46985
2.4098
2.40274
2.40102
1.80011
2.65028
3.07121
2.98702
2.91378
2.68423
2.51539
2.40676
2.35749
2.35559
1.54156
2.39617
3.20831
3.20607
3.11288
2.81842
2.56768
2.41253
2.32055
2.30912
1.47143
2.22235
3.24934
3.44226
3.30282
2.94898
2.62943
2.41626
2.28876
2.25914
1.46868
2.02887
3.21089
3.68178
3.47431
3.06123
2.69096
2.41961
2.26419
2.20587
1.46873
1.80756
3.12593
3.88347
3.61437
3.15694
2.75238
2.43109
2.24283
2.15281
1.46875
1.63002
2.97947
4.06881
3.72062
3.22821
2.80169
2.4429
2.22239
2.10063
1.46878
1.53079
2.81734
4.18375
3.78876
3.29713
2.85933
2.46812
2.21033
2.05112
1.46886
1.49129
2.72322
4.21028
3.82798
3.33571
2.89213
2.49371
2.20149
2.00719
1.46901
1.47884
2.63667
4.1966
3.83707
3.36951
2.92954
2.52533
2.1967
1.96993
1.46921
1.47489
2.55553
4.16919
3.83688
3.39607
2.96368
2.55669
2.19494
1.93963
1.46942
1.47361
2.48546
4.14795
3.84166
3.42019
2.99538
2.5873
2.19652
1.91537
1.46961
1.47316
2.43982
4.13797
3.84925
3.44264
3.02317
2.61428
2.2006
1.89636
1.46983
1.47311
2.39995
4.12468
3.85209
3.45677
3.04267
2.63586
2.20689
1.88211
1.46997
1.47313
2.3649
4.10939
3.84881
3.46255
3.05417
2.65092
2.21387
1.87234
1.47003
1.47322
2.34055
4.09272
3.84154
3.46101
3.06132
2.6619
2.22109
1.86621
1.47008
1.47316
2.32234
4.08764
3.84172
3.45716
3.06427
2.66832
2.2261
1.86224
1.4595
1.46041
1.46146
1.46265
1.46402
1.46556
1.46739
1.46951
1.47168
1.52873
1.45873
1.45955
1.46049
1.46153
1.46273
1.46405
1.46561
1.46739
1.46932
1.47185
1.45827
1.45903
1.4599
1.46084
1.46192
1.4631
1.46446
1.46594
1.4679
1.46915
1.45801
1.45873
1.45955
1.46043
1.46143
1.4625
1.46375
1.46505
1.46683
1.46802
1.45787
1.45858
1.45935
1.4602
1.46113
1.46216
1.4633
1.46453
1.46609
1.46722
1.45781
1.4585
1.45924
1.46006
1.46095
1.46194
1.46302
1.46421
1.46561
1.46672
1.45779
1.45847
1.45922
1.46002
1.46091
1.46186
1.46292
1.46405
1.46535
1.46661
1.45778
1.45846
1.4592
1.46001
1.46089
1.46184
1.46287
1.46399
1.46521
1.46667
1.45779
1.45847
1.45921
1.46001
1.46088
1.46182
1.46285
1.46397
1.46516
1.46664
1.45781
1.45848
1.45922
1.46002
1.46089
1.46183
1.46285
1.46397
1.46515
1.46661
1.45784
1.45851
1.45925
1.46004
1.4609
1.46184
1.46286
1.46398
1.46516
1.46659
1.45788
1.45855
1.45928
1.46007
1.46093
1.46187
1.46288
1.46398
1.46516
1.46658
1.45792
1.45859
1.45932
1.4601
1.46096
1.46189
1.46289
1.464
1.46517
1.46657
1.45795
1.45862
1.45934
1.46012
1.46097
1.4619
1.4629
1.46401
1.46518
1.46655
1.45797
1.45864
1.45936
1.46015
1.46099
1.46192
1.46292
1.46403
1.46521
1.46656
1.45797
1.45865
1.45939
1.46018
1.46103
1.46196
1.46296
1.46406
1.46524
1.46657
1.45795
1.45863
1.45937
1.46017
1.46104
1.46198
1.463
1.4641
1.46529
1.4666
1.45791
1.4586
1.45934
1.46016
1.46103
1.46198
1.46302
1.46414
1.46535
1.46665
1.45787
1.45856
1.45932
1.46014
1.46103
1.462
1.46305
1.46418
1.4654
1.46671
1.45784
1.45853
1.4593
1.46013
1.46104
1.46201
1.46307
1.46421
1.46545
1.46676
1.40174
1.4054
1.40943
1.41388
1.41878
1.42424
1.43024
1.43714
1.44424
1.45388
1.40174
1.4054
1.40943
1.41388
1.41878
1.42424
1.43025
1.43712
1.44433
1.45347
1.40174
1.4054
1.40943
1.41388
1.41878
1.42425
1.43025
1.43712
1.4444
1.45323
1.40174
1.4054
1.40943
1.41388
1.41878
1.42425
1.43025
1.43711
1.44445
1.4531
1.40174
1.4054
1.40943
1.41388
1.41878
1.42425
1.43025
1.43711
1.4445
1.45305
1.40174
1.4054
1.40943
1.41388
1.41878
1.42425
1.43026
1.4371
1.44453
1.45304
1.40174
1.4054
1.40943
1.41388
1.41878
1.42425
1.43026
1.43709
1.44456
1.45303
1.40174
1.4054
1.40943
1.41388
1.41878
1.42425
1.43026
1.43707
1.44459
1.45303
1.40174
1.4054
1.40943
1.41388
1.41878
1.42425
1.43027
1.43706
1.44461
1.45305
1.40174
1.4054
1.40943
1.41388
1.41878
1.42425
1.43027
1.43704
1.44461
1.45307
1.40174
1.4054
1.40943
1.41388
1.41878
1.42424
1.43028
1.43703
1.44461
1.45309
1.40174
1.4054
1.40943
1.41388
1.41878
1.42424
1.43028
1.43703
1.4446
1.45311
1.40174
1.4054
1.40943
1.41388
1.41878
1.42424
1.43028
1.43703
1.44458
1.45314
1.40174
1.4054
1.40943
1.41388
1.41879
1.42424
1.43028
1.43703
1.44457
1.45317
1.40174
1.4054
1.40943
1.41388
1.41879
1.42424
1.43028
1.43703
1.44455
1.45318
1.40174
1.4054
1.40943
1.41388
1.41879
1.42424
1.43028
1.43704
1.44455
1.45316
1.40174
1.4054
1.40943
1.41388
1.41879
1.42424
1.43028
1.43704
1.44455
1.45314
1.40174
1.4054
1.40943
1.41388
1.41879
1.42424
1.43028
1.43704
1.44455
1.45311
1.40174
1.4054
1.40943
1.41388
1.41879
1.42424
1.43028
1.43704
1.44455
1.45308
1.40174
1.4054
1.40943
1.41388
1.41879
1.42424
1.43028
1.43704
1.44456
1.45305
1.40174
1.4054
1.40943
1.41388
1.41879
1.42424
1.43028
1.43704
1.44456
1.45305
1.40174
1.4054
1.40943
1.41388
1.41879
1.42424
1.43028
1.43704
1.44455
1.45308
1.40174
1.4054
1.40943
1.41388
1.41879
1.42424
1.43028
1.43704
1.44455
1.45311
1.40174
1.4054
1.40943
1.41388
1.41879
1.42424
1.43028
1.43704
1.44455
1.45314
1.40174
1.4054
1.40943
1.41388
1.41879
1.42424
1.43028
1.43704
1.44455
1.45316
1.40174
1.4054
1.40943
1.41388
1.41879
1.42424
1.43028
1.43703
1.44455
1.45318
1.40174
1.4054
1.40943
1.41388
1.41879
1.42424
1.43028
1.43703
1.44457
1.45317
1.40174
1.4054
1.40943
1.41388
1.41878
1.42424
1.43028
1.43703
1.44458
1.45314
1.40174
1.4054
1.40943
1.41388
1.41878
1.42424
1.43028
1.43703
1.4446
1.45311
1.40174
1.4054
1.40943
1.41388
1.41878
1.42424
1.43028
1.43703
1.44461
1.45309
1.40174
1.4054
1.40943
1.41388
1.41878
1.42425
1.43027
1.43704
1.44461
1.45307
1.40174
1.4054
1.40943
1.41388
1.41878
1.42425
1.43027
1.43705
1.44461
1.45305
1.40174
1.4054
1.40943
1.41388
1.41878
1.42425
1.43026
1.43707
1.44459
1.45303
1.40174
1.4054
1.40943
1.41388
1.41878
1.42425
1.43026
1.43709
1.44457
1.45303
1.40174
1.4054
1.40943
1.41388
1.41878
1.42425
1.43026
1.4371
1.44453
1.45304
1.40174
1.4054
1.40943
1.41388
1.41878
1.42425
1.43025
1.43711
1.4445
1.45305
1.40174
1.4054
1.40943
1.41388
1.41878
1.42425
1.43025
1.43711
1.44445
1.4531
1.40174
1.4054
1.40943
1.41388
1.41878
1.42425
1.43025
1.43711
1.4444
1.45323
1.40174
1.4054
1.40943
1.41388
1.41878
1.42424
1.43025
1.43712
1.44433
1.45347
1.40174
1.4054
1.40943
1.41388
1.41878
1.42424
1.43024
1.43714
1.44424
1.45389
1.45784
1.45853
1.45929
1.46013
1.46103
1.46201
1.46307
1.46421
1.46544
1.46676
1.45787
1.45856
1.45932
1.46014
1.46103
1.462
1.46305
1.46418
1.4654
1.46671
1.45791
1.45859
1.45934
1.46015
1.46103
1.46198
1.46302
1.46414
1.46535
1.46665
1.45795
1.45863
1.45937
1.46017
1.46104
1.46198
1.463
1.4641
1.4653
1.4666
1.45797
1.45865
1.45939
1.46018
1.46103
1.46196
1.46296
1.46406
1.46525
1.46657
1.45798
1.45864
1.45936
1.46015
1.461
1.46192
1.46293
1.46403
1.46521
1.46656
1.45795
1.45862
1.45934
1.46012
1.46097
1.4619
1.46291
1.46401
1.46519
1.46655
1.45792
1.45859
1.45932
1.46011
1.46096
1.46189
1.4629
1.464
1.46517
1.46657
1.45788
1.45855
1.45928
1.46008
1.46094
1.46187
1.46288
1.46399
1.46516
1.46658
1.45784
1.45851
1.45925
1.46004
1.46091
1.46185
1.46286
1.46398
1.46516
1.46659
1.45781
1.45848
1.45922
1.46002
1.46089
1.46183
1.46285
1.46397
1.46515
1.46661
1.45779
1.45846
1.45921
1.46001
1.46088
1.46182
1.46285
1.46397
1.46516
1.46663
1.45778
1.45846
1.4592
1.46001
1.46089
1.46184
1.46287
1.46399
1.46521
1.46666
1.45779
1.45847
1.45921
1.46002
1.46091
1.46186
1.46291
1.46404
1.46535
1.46658
1.45781
1.45849
1.45924
1.46006
1.46095
1.46194
1.46302
1.46421
1.46561
1.46672
1.45787
1.45857
1.45935
1.4602
1.46113
1.46215
1.4633
1.46453
1.46609
1.46722
1.45801
1.45873
1.45955
1.46043
1.46143
1.4625
1.46375
1.46504
1.46683
1.46801
1.45827
1.45903
1.45989
1.46084
1.46192
1.46309
1.46446
1.46594
1.46789
1.46914
1.45873
1.45955
1.46049
1.46153
1.46273
1.46405
1.4656
1.46739
1.4693
1.47188
1.4595
1.46041
1.46146
1.46265
1.46402
1.46556
1.46739
1.4695
1.47166
1.52967
)
;

boundaryField
{
    inlet
    {
        type            calculated;
        value           uniform 1.40001;
    }
    outlet
    {
        type            calculated;
        value           nonuniform List<scalar> 
100
(
2.59391
2.52703
2.45683
2.40104
2.3555
2.30906
2.25914
2.20588
2.15282
2.10066
2.05118
2.00728
1.97003
1.93973
1.91548
1.89646
1.88222
1.87244
1.8663
1.86234
2.49872
2.54166
2.59653
2.65508
2.70697
2.74725
2.77723
2.79972
2.80164
2.79542
2.77826
2.7582
2.73606
2.71558
2.696
2.67874
2.66271
2.64937
2.63664
2.62532
2.55503
2.50362
2.45684
2.41937
2.38899
2.36838
2.35276
2.34019
2.3333
2.32447
2.32713
2.33126
2.34654
2.36889
2.39301
2.41634
2.43335
2.44583
2.4576
2.47223
2.67297
2.69988
2.72783
2.755
2.77874
2.79951
2.81915
2.84119
2.85554
2.86841
2.87346
2.87388
2.87061
2.86488
2.85359
2.83179
2.79772
2.74868
2.68733
2.61784
1.87659
1.88507
1.88611
1.89342
1.90674
1.92572
1.95022
1.97951
2.01345
2.05208
2.09653
2.14675
2.20031
2.25611
2.31306
2.37213
2.43714
2.50687
2.57529
2.6339
)
;
    }
    triangle
    {
        type            calculated;
        value           nonuniform List<scalar> 
40
(
3.65095
4.12286
4.02055
3.9733
3.94365
3.91746
3.87387
3.80068
3.6818
3.46109
0.986609
0.958972
0.958329
0.963423
0.9701
0.979055
0.986013
0.99338
1.00213
1.0103
1.01653
1.01988
1.02136
1.0191
1.01567
1.00693
0.997418
0.987636
0.981989
0.992326
3.65077
4.12223
4.01967
3.97261
3.94287
3.91653
3.87272
3.79934
3.68141
3.4676
)
;
    }
    top
    {
        type            symmetryPlane;
    }
    bottom
    {
        type            symmetryPlane;
    }
    defaultFaces
    {
        type            empty;
    }
}


// ************************************************************************* //
