/*--------------------------------*- C++ -*----------------------------------*\
  =========                 |
  \\      /  F ield         | OpenFOAM: The Open Source CFD Toolbox
   \\    /   O peration     | Website:  https://openfoam.org
    \\  /    A nd           | Version:  8
     \\/     M anipulation  |
\*---------------------------------------------------------------------------*/
FoamFile
{
    version     2.0;
    format      ascii;
    class       volScalarField;
    location    "5";
    object      T;
}
// * * * * * * * * * * * * * * * * * * * * * * * * * * * * * * * * * * * * * //

dimensions      [0 0 0 1 0 0 0];

internalField   nonuniform List<scalar> 
2600
(
1.81975
1.63177
1.57597
1.78538
2.00354
1.98781
1.77567
1.68933
1.65856
1.77214
1.85809
1.73769
1.6738
1.86343
2.00926
1.98119
1.78406
1.72034
1.69415
1.81185
1.8594
1.78188
1.75333
1.90184
1.99684
1.96702
1.7869
1.74503
1.72923
1.84727
1.84994
1.78749
1.78979
1.90488
1.97224
1.9459
1.79061
1.76656
1.76245
1.87763
1.83855
1.78859
1.80131
1.89238
1.94461
1.92383
1.79942
1.78881
1.79378
1.90076
1.83285
1.78815
1.80847
1.87053
1.91873
1.90616
1.81407
1.81467
1.82397
1.91726
1.82876
1.79111
1.8113
1.84697
1.8968
1.89479
1.82913
1.84286
1.85341
1.92777
1.8271
1.79941
1.81625
1.82848
1.87582
1.88773
1.84308
1.87272
1.87829
1.9339
1.82721
1.80952
1.82051
1.81477
1.86084
1.88705
1.85625
1.90285
1.89883
1.93776
1.82766
1.82052
1.8285
1.81116
1.84775
1.88555
1.87136
1.92969
1.91331
1.93603
1.82836
1.83151
1.83884
1.81388
1.83474
1.8897
1.88746
1.95064
1.9228
1.93212
1.82951
1.84256
1.85634
1.82199
1.81721
1.89023
1.91272
1.96617
1.92773
1.9208
1.83098
1.85394
1.87688
1.83464
1.79432
1.88932
1.93454
1.97792
1.92845
1.90255
1.83066
1.86663
1.89809
1.85103
1.76717
1.88573
1.95735
1.98716
1.92777
1.87792
1.83112
1.88015
1.91323
1.8628
1.73294
1.86833
1.9728
1.99921
1.92317
1.85069
1.83039
1.89555
1.91885
1.86648
1.69732
1.83667
1.97901
2.00991
1.92083
1.82561
1.83153
1.91205
1.91896
1.86233
1.66938
1.79301
1.97765
2.02165
1.92263
1.8038
1.83167
1.92007
1.91241
1.84544
1.64211
1.74828
1.96125
2.03011
1.92672
1.78528
1.8268
1.90491
1.88697
1.81835
1.60795
1.70079
1.92701
2.03373
1.93271
1.7684
1.78664
1.83041
1.81946
1.7683
1.57099
1.65425
1.87703
2.02695
1.93175
1.75001
1.7164
1.68258
1.69243
1.67448
1.52023
1.60071
1.81155
2.00165
1.9133
1.72403
1.6725
1.55074
1.55779
1.54637
1.45094
1.54391
1.73975
1.94943
1.86036
1.68716
1.63909
1.46836
1.45022
1.43067
1.37739
1.49177
1.67456
1.87005
1.77366
1.64233
1.60384
1.41762
1.3796
1.35242
1.31801
1.4504
1.62161
1.7771
1.67945
1.5963
1.58102
1.38244
1.33292
1.29917
1.27414
1.41905
1.57986
1.6862
1.59712
1.55558
1.56423
1.35875
1.30158
1.25969
1.24365
1.39481
1.54692
1.61148
1.5362
1.52259
1.56667
1.35356
1.2781
1.22564
1.22219
1.37813
1.5214
1.55832
1.49557
1.49723
1.57414
1.35759
1.25829
1.19953
1.20676
1.36775
1.50389
1.52149
1.46939
1.47922
1.58625
1.36898
1.24712
1.18108
1.19799
1.3596
1.49116
1.49602
1.45259
1.46358
1.60272
1.38483
1.2439
1.16917
1.19422
1.3507
1.48345
1.48172
1.44327
1.45158
1.6178
1.40583
1.24878
1.16368
1.19389
1.34187
1.47786
1.47175
1.43809
1.44268
1.63311
1.42954
1.25947
1.1624
1.19856
1.33545
1.47192
1.46427
1.43478
1.43671
1.64638
1.45247
1.27661
1.16816
1.20878
1.33251
1.46681
1.46021
1.43386
1.43258
1.65821
1.47451
1.29684
1.18042
1.22293
1.33159
1.46242
1.45819
1.43471
1.43053
1.6673
1.49397
1.31853
1.19849
1.24121
1.33429
1.45943
1.45758
1.43714
1.42974
1.67442
1.51245
1.34127
1.21941
1.25951
1.34108
1.45825
1.45781
1.4402
1.43049
1.67369
1.53079
1.36494
1.24376
1.27788
1.34971
1.45809
1.4577
1.44393
1.43256
1.66765
1.54763
1.38839
1.26859
1.29879
1.35885
1.45776
1.45659
1.44682
1.43587
1.6639
1.56196
1.41076
1.29392
1.32441
1.36836
1.45572
1.45498
1.44906
1.43945
1.64748
1.57324
1.43127
1.31922
1.35129
1.37788
1.45155
1.45407
1.45125
1.44325
2.14671
2.2621
2.22441
2.19172
2.16991
2.15574
2.13989
2.11846
2.08852
2.0285
1.87944
2.09019
2.09572
2.10211
2.11072
2.1113
2.10158
2.08261
2.04971
1.95925
1.41555
1.8477
1.96923
2.0065
2.02303
2.02702
2.02294
2.0145
1.98962
1.88636
1.11771
1.46931
1.81246
1.91629
1.91646
1.92055
1.92001
1.9147
1.8931
1.80658
1.05998
1.09507
1.60086
1.84432
1.87367
1.86541
1.85711
1.84779
1.82253
1.76278
1.05091
1.05152
1.16151
1.71269
1.8555
1.84554
1.83167
1.81635
1.78582
1.74444
1.04332
1.04476
1.04669
1.30001
1.806
1.84314
1.82617
1.81205
1.78017
1.74565
1.03785
1.03916
1.03999
1.04925
1.58344
1.84372
1.8338
1.81975
1.78341
1.74981
1.03292
1.03381
1.03472
1.03596
1.14604
1.76685
1.84729
1.82736
1.79063
1.75777
1.02907
1.03001
1.03122
1.03222
1.03517
1.41738
1.82756
1.82646
1.79741
1.76677
1.02621
1.02688
1.02777
1.02866
1.02966
1.07837
1.71673
1.83148
1.80457
1.77446
1.02378
1.02437
1.02498
1.02585
1.02667
1.029
1.3515
1.80209
1.80454
1.77859
1.02214
1.02274
1.02342
1.02422
1.02503
1.02598
1.06652
1.68749
1.80239
1.78157
1.02073
1.02123
1.02186
1.02251
1.02336
1.02407
1.02657
1.37002
1.77462
1.78174
1.01963
1.02007
1.02058
1.02117
1.02189
1.02264
1.02377
1.08813
1.68072
1.77835
1.01884
1.01924
1.01969
1.02023
1.02085
1.02161
1.0223
1.02722
1.4508
1.7542
1.0182
1.01856
1.01897
1.01946
1.02
1.02069
1.02134
1.02284
1.15564
1.69085
1.01772
1.01805
1.01844
1.01889
1.01938
1.02
1.02064
1.02142
1.03769
1.60092
1.01734
1.01764
1.018
1.0184
1.01886
1.0194
1.02003
1.02064
1.02352
1.4117
1.01704
1.01731
1.01764
1.01801
1.01844
1.01892
1.01952
1.02011
1.02145
1.16636
1.0005
1.00154
1.00269
1.00395
1.00535
1.00688
1.00858
1.01061
1.01217
1.22525
1.0005
1.00154
1.00269
1.00395
1.00535
1.00688
1.00858
1.01061
1.01218
1.15684
1.0005
1.00154
1.00269
1.00395
1.00535
1.00688
1.00858
1.01061
1.01218
1.09787
1.0005
1.00154
1.00269
1.00395
1.00535
1.00688
1.00858
1.01061
1.01216
1.06279
1.0005
1.00154
1.00269
1.00395
1.00535
1.00689
1.00858
1.01061
1.01216
1.04772
1.0005
1.00154
1.00269
1.00395
1.00535
1.00689
1.00857
1.01061
1.01216
1.03954
1.0005
1.00154
1.00269
1.00395
1.00535
1.00689
1.00857
1.01061
1.01218
1.03334
1.0005
1.00154
1.00269
1.00395
1.00534
1.00689
1.00857
1.01061
1.01219
1.02911
1.0005
1.00154
1.00269
1.00395
1.00534
1.00689
1.00857
1.0106
1.01221
1.02614
1.0005
1.00154
1.00269
1.00395
1.00534
1.00689
1.00857
1.0106
1.01223
1.02314
1.0005
1.00154
1.00269
1.00395
1.00534
1.00689
1.00857
1.0106
1.01225
1.02142
1.0005
1.00154
1.00269
1.00395
1.00534
1.00689
1.00857
1.01059
1.01227
1.0199
1.0005
1.00154
1.00269
1.00395
1.00534
1.00689
1.00857
1.01058
1.0123
1.01856
1.0005
1.00154
1.00269
1.00395
1.00534
1.00689
1.00857
1.01057
1.01232
1.01768
1.0005
1.00154
1.00269
1.00395
1.00534
1.00689
1.00857
1.01057
1.01235
1.017
1.0005
1.00154
1.00269
1.00395
1.00534
1.00689
1.00858
1.01056
1.01238
1.01649
1.0005
1.00154
1.00269
1.00395
1.00534
1.00689
1.00858
1.01055
1.01241
1.01608
1.0005
1.00154
1.00269
1.00395
1.00534
1.00689
1.00858
1.01054
1.01244
1.01576
1.0005
1.00154
1.00269
1.00395
1.00534
1.00689
1.00858
1.01054
1.01246
1.01553
1.0005
1.00154
1.00269
1.00395
1.00534
1.00689
1.00858
1.01053
1.01249
1.01536
1.0005
1.00154
1.00269
1.00395
1.00534
1.00689
1.00858
1.01053
1.01249
1.01536
1.0005
1.00154
1.00269
1.00395
1.00534
1.00689
1.00858
1.01054
1.01246
1.01553
1.0005
1.00154
1.00269
1.00395
1.00534
1.00689
1.00858
1.01054
1.01244
1.01576
1.0005
1.00154
1.00269
1.00395
1.00534
1.00689
1.00858
1.01055
1.01241
1.01608
1.0005
1.00154
1.00269
1.00395
1.00534
1.00689
1.00858
1.01056
1.01238
1.01648
1.0005
1.00154
1.00269
1.00395
1.00534
1.00689
1.00857
1.01057
1.01235
1.017
1.0005
1.00154
1.00269
1.00395
1.00534
1.00689
1.00857
1.01057
1.01232
1.01768
1.0005
1.00154
1.00269
1.00395
1.00534
1.00689
1.00857
1.01058
1.0123
1.01856
1.0005
1.00154
1.00269
1.00395
1.00534
1.00689
1.00857
1.01059
1.01227
1.0199
1.0005
1.00154
1.00269
1.00395
1.00534
1.00689
1.00857
1.01059
1.01225
1.02142
1.0005
1.00154
1.00269
1.00395
1.00534
1.00689
1.00857
1.0106
1.01223
1.02314
1.0005
1.00154
1.00269
1.00395
1.00534
1.00689
1.00857
1.0106
1.01221
1.02614
1.0005
1.00154
1.00269
1.00395
1.00534
1.00689
1.00857
1.01061
1.01219
1.02911
1.0005
1.00154
1.00269
1.00395
1.00535
1.00689
1.00857
1.01061
1.01218
1.03334
1.0005
1.00154
1.00269
1.00395
1.00535
1.00689
1.00857
1.01061
1.01216
1.03954
1.0005
1.00154
1.00269
1.00395
1.00535
1.00689
1.00858
1.01061
1.01216
1.04774
1.0005
1.00154
1.00269
1.00395
1.00535
1.00688
1.00858
1.01061
1.01216
1.06282
1.0005
1.00154
1.00269
1.00395
1.00535
1.00688
1.00858
1.01061
1.01218
1.09797
1.0005
1.00154
1.00269
1.00395
1.00535
1.00688
1.00858
1.01061
1.01218
1.15699
1.0005
1.00154
1.00269
1.00395
1.00535
1.00688
1.00858
1.01061
1.01217
1.22537
1.01704
1.01731
1.01764
1.01801
1.01844
1.01892
1.01952
1.02011
1.02145
1.16786
1.01734
1.01764
1.018
1.0184
1.01886
1.0194
1.02002
1.02064
1.02354
1.4129
1.01772
1.01805
1.01844
1.01889
1.01938
1.02
1.02063
1.02141
1.03792
1.60061
1.01819
1.01856
1.01897
1.01946
1.02
1.02068
1.02133
1.02284
1.15655
1.68997
1.01884
1.01923
1.01969
1.02022
1.02085
1.0216
1.0223
1.02725
1.45153
1.75307
1.01963
1.02007
1.02058
1.02117
1.02189
1.02264
1.02377
1.08873
1.68034
1.77745
1.02073
1.02123
1.02186
1.02251
1.02335
1.02406
1.02659
1.37136
1.77433
1.78089
1.02213
1.02274
1.02341
1.02421
1.02502
1.02598
1.06695
1.68783
1.80218
1.78098
1.02378
1.02436
1.02498
1.02585
1.02667
1.02901
1.3525
1.80185
1.80431
1.77806
1.02621
1.02688
1.02777
1.02866
1.02967
1.07875
1.71675
1.83087
1.80436
1.7741
1.02907
1.03001
1.03123
1.03222
1.03519
1.41853
1.82745
1.82634
1.79722
1.76674
1.03293
1.03381
1.03472
1.03596
1.14667
1.76705
1.84722
1.82715
1.7903
1.75785
1.03785
1.03916
1.03999
1.04927
1.58443
1.84369
1.83374
1.81957
1.78297
1.75016
1.04332
1.04476
1.04669
1.30019
1.80623
1.84301
1.82607
1.81192
1.77975
1.74606
1.05092
1.05152
1.16179
1.71271
1.85557
1.84547
1.83155
1.81619
1.78553
1.74481
1.05999
1.09521
1.60111
1.84446
1.87366
1.8653
1.8569
1.84755
1.82236
1.76321
1.11794
1.46963
1.8125
1.9164
1.91653
1.92048
1.91981
1.91443
1.89306
1.80716
1.41616
1.84797
1.96931
2.00669
2.0232
2.02699
2.02283
2.01428
1.98964
1.88809
1.87991
2.09041
2.09589
2.10229
2.11092
2.11137
2.10147
2.08241
2.04977
1.96165
2.14712
2.2624
2.22464
2.19192
2.17008
2.15585
2.13988
2.11836
2.08858
2.03058
1.64471
1.56614
1.41941
1.34224
1.3872
1.42582
1.41464
1.41627
1.45556
1.45417
1.66119
1.55343
1.39994
1.32354
1.3685
1.41912
1.40765
1.41094
1.45392
1.45328
1.66498
1.53637
1.3783
1.30524
1.34971
1.41224
1.40063
1.40729
1.45555
1.45337
1.67163
1.51679
1.35399
1.28933
1.33245
1.4053
1.395
1.40897
1.46105
1.45407
1.67278
1.49602
1.32639
1.27651
1.31812
1.39829
1.38945
1.41412
1.46788
1.45518
1.66674
1.47624
1.29693
1.26812
1.30928
1.39162
1.38489
1.41735
1.47118
1.45623
1.65827
1.45758
1.26558
1.26301
1.30536
1.38774
1.38061
1.4168
1.47041
1.45708
1.64589
1.43876
1.23982
1.25358
1.30618
1.38722
1.37827
1.4152
1.46786
1.45895
1.63128
1.4193
1.22273
1.2404
1.30895
1.38964
1.37287
1.40298
1.46274
1.46058
1.61383
1.39809
1.21278
1.22973
1.31677
1.39633
1.36802
1.39699
1.46122
1.46539
1.5959
1.37829
1.20695
1.2252
1.33336
1.40926
1.36917
1.39832
1.46182
1.47399
1.57782
1.3603
1.20514
1.22826
1.36164
1.43131
1.37525
1.40463
1.46445
1.48621
1.5627
1.34636
1.2085
1.24182
1.40186
1.46703
1.39077
1.41797
1.46896
1.50134
1.55323
1.33856
1.21875
1.26815
1.45322
1.52065
1.41802
1.437
1.47536
1.51926
1.54983
1.3343
1.23677
1.30674
1.51469
1.5968
1.45904
1.46057
1.48387
1.53982
1.56343
1.34699
1.26126
1.35108
1.58856
1.69649
1.51469
1.4852
1.49845
1.56425
1.58579
1.36923
1.29424
1.40286
1.67979
1.80998
1.57862
1.51515
1.52033
1.5948
1.62381
1.40201
1.33165
1.46961
1.78329
1.90539
1.64069
1.55317
1.54851
1.63257
1.67073
1.44749
1.38955
1.55798
1.88751
1.96346
1.69909
1.59941
1.5824
1.67739
1.73642
1.51474
1.47683
1.67187
1.96458
1.98449
1.74775
1.64771
1.62056
1.72645
1.01973
1.02057
1.37389
1.84689
1.79906
1.71542
1.62986
1.54038
1.4312
1.34695
1.01972
1.02059
1.37414
1.84343
1.79589
1.7144
1.62829
1.53847
1.43063
1.34932
1.0197
1.02057
1.37311
1.83787
1.79077
1.71089
1.62474
1.53504
1.42974
1.34949
1.01967
1.02056
1.378
1.83208
1.78356
1.70401
1.61891
1.53007
1.4289
1.35144
1.0196
1.02057
1.39074
1.8278
1.77518
1.69465
1.61065
1.52319
1.42788
1.35505
1.01955
1.02068
1.4059
1.82097
1.76438
1.68269
1.59991
1.51462
1.42675
1.36023
1.01949
1.02103
1.41797
1.809
1.74938
1.66792
1.58689
1.50447
1.4253
1.36703
1.01943
1.02208
1.42382
1.79153
1.73049
1.64958
1.57143
1.49302
1.42353
1.37539
1.01939
1.0253
1.4265
1.76944
1.70823
1.62817
1.55319
1.47954
1.42075
1.3853
1.01936
1.0352
1.4252
1.74438
1.68489
1.6073
1.5342
1.46562
1.41745
1.3965
1.01935
1.06094
1.44977
1.71859
1.66563
1.58488
1.51256
1.4499
1.41451
1.40846
1.01935
1.11477
1.49054
1.69363
1.64813
1.56829
1.49471
1.43563
1.41418
1.4194
1.01934
1.19702
1.53145
1.66947
1.63013
1.5538
1.47999
1.42503
1.4173
1.429
1.02019
1.2726
1.56001
1.63722
1.60899
1.54119
1.46847
1.41937
1.42099
1.43944
1.03767
1.32386
1.57218
1.6021
1.58496
1.52889
1.45844
1.42037
1.42465
1.44821
1.10361
1.41303
1.57986
1.56896
1.55771
1.51447
1.45043
1.42375
1.42916
1.45399
1.24482
1.51162
1.55634
1.53377
1.52747
1.49655
1.44189
1.42696
1.43677
1.45761
1.42629
1.56404
1.52083
1.48243
1.49424
1.47845
1.43597
1.42676
1.44773
1.45934
1.53363
1.57654
1.48704
1.42485
1.45869
1.45734
1.43011
1.42533
1.45687
1.45903
1.6144
1.58159
1.45027
1.37421
1.41813
1.43805
1.42334
1.42135
1.45822
1.45679
1.61792
1.58574
1.46314
1.36159
1.39237
1.39816
1.44352
1.45255
1.45308
1.44621
1.53287
1.58002
1.49846
1.42306
1.44205
1.42782
1.44263
1.44761
1.45112
1.44525
1.43
1.56829
1.52805
1.48578
1.48555
1.46007
1.45018
1.44197
1.44628
1.44309
1.2476
1.51583
1.56023
1.53735
1.52466
1.48875
1.45809
1.43778
1.44161
1.44368
1.10387
1.41667
1.58102
1.57074
1.5581
1.50835
1.46494
1.43595
1.44022
1.44523
1.03684
1.32777
1.57282
1.60278
1.58686
1.52549
1.46996
1.43488
1.43846
1.44446
1.01997
1.27524
1.56009
1.6369
1.61077
1.53962
1.47686
1.4342
1.43427
1.43992
1.01933
1.19937
1.53145
1.66921
1.63175
1.55289
1.48654
1.43893
1.42783
1.43196
1.01935
1.11697
1.49006
1.6932
1.64906
1.56821
1.50114
1.44892
1.42317
1.42183
1.01935
1.06212
1.44793
1.71859
1.66601
1.5849
1.51775
1.45953
1.42158
1.409
1.01936
1.03555
1.42187
1.74471
1.68511
1.60728
1.53918
1.47252
1.42211
1.39523
1.01939
1.02537
1.42233
1.7698
1.70833
1.62799
1.55604
1.4843
1.42248
1.38264
1.01943
1.02211
1.41883
1.79114
1.73015
1.64875
1.57277
1.49608
1.42316
1.37205
1.01948
1.02105
1.41257
1.80787
1.74837
1.66635
1.58699
1.50649
1.42406
1.36365
1.01954
1.0207
1.40088
1.81914
1.76259
1.68051
1.59898
1.51581
1.42552
1.35713
1.0196
1.02057
1.38644
1.82545
1.77285
1.69205
1.60904
1.52375
1.42728
1.35211
1.01966
1.02056
1.37495
1.82942
1.78053
1.70086
1.6167
1.53007
1.42917
1.34832
1.01969
1.02057
1.37101
1.8348
1.78696
1.70734
1.62202
1.53453
1.43097
1.34567
1.01971
1.02059
1.37243
1.83989
1.79154
1.71074
1.62538
1.53762
1.43274
1.34398
1.01973
1.02057
1.37238
1.84289
1.79419
1.71133
1.62662
1.53926
1.43397
1.34289
1.01678
1.01703
1.01733
1.01766
1.01804
1.01846
1.01897
1.01956
1.02016
1.03933
1.01657
1.01679
1.01706
1.01735
1.01768
1.01805
1.01848
1.01897
1.01951
1.02022
1.01644
1.01665
1.01689
1.01715
1.01745
1.01778
1.01816
1.01857
1.01912
1.01946
1.01637
1.01657
1.0168
1.01704
1.01732
1.01762
1.01797
1.01833
1.01882
1.01915
1.01633
1.01652
1.01674
1.01698
1.01724
1.01752
1.01784
1.01818
1.01862
1.01893
1.01631
1.0165
1.01671
1.01694
1.01719
1.01746
1.01776
1.01809
1.01848
1.01879
1.01631
1.0165
1.0167
1.01693
1.01718
1.01744
1.01773
1.01805
1.01841
1.01876
1.0163
1.01649
1.0167
1.01693
1.01717
1.01743
1.01772
1.01803
1.01837
1.01878
1.01631
1.01649
1.0167
1.01692
1.01717
1.01743
1.01772
1.01803
1.01836
1.01877
1.01631
1.0165
1.0167
1.01693
1.01717
1.01743
1.01772
1.01803
1.01836
1.01876
1.01632
1.01651
1.01671
1.01693
1.01717
1.01744
1.01772
1.01803
1.01836
1.01876
1.01633
1.01652
1.01672
1.01694
1.01718
1.01744
1.01772
1.01803
1.01836
1.01875
1.01634
1.01653
1.01673
1.01695
1.01719
1.01745
1.01773
1.01803
1.01836
1.01875
1.01635
1.01654
1.01674
1.01696
1.01719
1.01745
1.01773
1.01804
1.01837
1.01875
1.01636
1.01654
1.01674
1.01696
1.0172
1.01746
1.01774
1.01804
1.01837
1.01875
1.01636
1.01655
1.01675
1.01697
1.01721
1.01747
1.01775
1.01805
1.01838
1.01875
1.01635
1.01654
1.01675
1.01697
1.01721
1.01747
1.01776
1.01806
1.0184
1.01876
1.01634
1.01653
1.01674
1.01697
1.01721
1.01748
1.01776
1.01807
1.01841
1.01877
1.01633
1.01652
1.01673
1.01696
1.01721
1.01748
1.01777
1.01809
1.01843
1.01879
1.01632
1.01651
1.01673
1.01696
1.01721
1.01748
1.01778
1.01809
1.01844
1.0188
1.0005
1.00154
1.00269
1.00395
1.00534
1.00689
1.00858
1.01052
1.01251
1.01521
1.0005
1.00154
1.00269
1.00395
1.00534
1.00689
1.00858
1.01052
1.01254
1.0151
1.0005
1.00154
1.00269
1.00395
1.00534
1.00689
1.00858
1.01052
1.01256
1.01503
1.0005
1.00154
1.00269
1.00395
1.00534
1.00689
1.00858
1.01052
1.01258
1.01499
1.0005
1.00154
1.00269
1.00395
1.00534
1.00689
1.00858
1.01051
1.01259
1.01498
1.0005
1.00154
1.00269
1.00395
1.00534
1.00689
1.00858
1.01051
1.0126
1.01498
1.0005
1.00154
1.00269
1.00395
1.00534
1.00689
1.00859
1.01051
1.01261
1.01498
1.0005
1.00154
1.00269
1.00395
1.00534
1.00689
1.00859
1.0105
1.01262
1.01498
1.0005
1.00154
1.00269
1.00395
1.00534
1.00689
1.00859
1.0105
1.01262
1.01498
1.0005
1.00154
1.00269
1.00395
1.00534
1.00689
1.00859
1.0105
1.01262
1.01499
1.0005
1.00154
1.00269
1.00395
1.00534
1.00689
1.00859
1.01049
1.01262
1.01499
1.0005
1.00154
1.00269
1.00395
1.00534
1.00689
1.00859
1.01049
1.01262
1.015
1.0005
1.00154
1.00269
1.00395
1.00534
1.00689
1.00859
1.01049
1.01261
1.01501
1.0005
1.00154
1.00269
1.00395
1.00534
1.00689
1.00859
1.01049
1.01261
1.01501
1.0005
1.00154
1.00269
1.00395
1.00534
1.00689
1.00859
1.01049
1.01261
1.01502
1.0005
1.00154
1.00269
1.00395
1.00534
1.00689
1.00859
1.01049
1.0126
1.01501
1.0005
1.00154
1.00269
1.00395
1.00534
1.00689
1.00859
1.0105
1.0126
1.01501
1.0005
1.00154
1.00269
1.00395
1.00534
1.00689
1.00859
1.0105
1.0126
1.015
1.0005
1.00154
1.00269
1.00395
1.00534
1.00689
1.00859
1.0105
1.01261
1.01499
1.0005
1.00154
1.00269
1.00395
1.00534
1.00689
1.00859
1.0105
1.01261
1.01498
1.0005
1.00154
1.00269
1.00395
1.00534
1.00689
1.00859
1.0105
1.01261
1.01498
1.0005
1.00154
1.00269
1.00395
1.00534
1.00689
1.00859
1.0105
1.01261
1.01499
1.0005
1.00154
1.00269
1.00395
1.00534
1.00689
1.00859
1.0105
1.0126
1.015
1.0005
1.00154
1.00269
1.00395
1.00534
1.00689
1.00859
1.0105
1.0126
1.01501
1.0005
1.00154
1.00269
1.00395
1.00534
1.00689
1.00859
1.01049
1.0126
1.01501
1.0005
1.00154
1.00269
1.00395
1.00534
1.00689
1.00859
1.01049
1.01261
1.01502
1.0005
1.00154
1.00269
1.00395
1.00534
1.00689
1.00859
1.01049
1.01261
1.01501
1.0005
1.00154
1.00269
1.00395
1.00534
1.00689
1.00859
1.01049
1.01261
1.01501
1.0005
1.00154
1.00269
1.00395
1.00534
1.00689
1.00859
1.01049
1.01262
1.015
1.0005
1.00154
1.00269
1.00395
1.00534
1.00689
1.00859
1.01049
1.01262
1.01499
1.0005
1.00154
1.00269
1.00395
1.00534
1.00689
1.00859
1.0105
1.01262
1.01499
1.0005
1.00154
1.00269
1.00395
1.00534
1.00689
1.00859
1.0105
1.01262
1.01498
1.0005
1.00154
1.00269
1.00395
1.00534
1.00689
1.00859
1.0105
1.01262
1.01498
1.0005
1.00154
1.00269
1.00395
1.00534
1.00689
1.00859
1.01051
1.01261
1.01498
1.0005
1.00154
1.00269
1.00395
1.00534
1.00689
1.00858
1.01051
1.0126
1.01498
1.0005
1.00154
1.00269
1.00395
1.00534
1.00689
1.00858
1.01051
1.01259
1.01498
1.0005
1.00154
1.00269
1.00395
1.00534
1.00689
1.00858
1.01052
1.01258
1.01499
1.0005
1.00154
1.00269
1.00395
1.00534
1.00689
1.00858
1.01052
1.01256
1.01503
1.0005
1.00154
1.00269
1.00395
1.00534
1.00689
1.00858
1.01052
1.01254
1.0151
1.0005
1.00154
1.00269
1.00395
1.00534
1.00689
1.00858
1.01052
1.01251
1.01521
1.01632
1.01651
1.01673
1.01696
1.01721
1.01748
1.01778
1.01809
1.01844
1.0188
1.01633
1.01652
1.01673
1.01696
1.01721
1.01748
1.01777
1.01809
1.01843
1.01879
1.01634
1.01653
1.01674
1.01697
1.01721
1.01747
1.01776
1.01807
1.01841
1.01877
1.01635
1.01654
1.01675
1.01697
1.01721
1.01747
1.01776
1.01806
1.0184
1.01876
1.01636
1.01655
1.01675
1.01697
1.01721
1.01747
1.01775
1.01805
1.01838
1.01875
1.01636
1.01654
1.01675
1.01696
1.0172
1.01746
1.01774
1.01804
1.01837
1.01875
1.01635
1.01654
1.01674
1.01696
1.01719
1.01745
1.01773
1.01804
1.01837
1.01875
1.01634
1.01653
1.01673
1.01695
1.01719
1.01745
1.01773
1.01804
1.01836
1.01875
1.01633
1.01652
1.01672
1.01694
1.01718
1.01744
1.01772
1.01803
1.01836
1.01875
1.01632
1.01651
1.01671
1.01693
1.01718
1.01744
1.01772
1.01803
1.01836
1.01876
1.01631
1.0165
1.01671
1.01693
1.01717
1.01743
1.01772
1.01803
1.01836
1.01876
1.01631
1.01649
1.0167
1.01692
1.01717
1.01743
1.01772
1.01803
1.01836
1.01877
1.0163
1.01649
1.0167
1.01692
1.01717
1.01743
1.01772
1.01803
1.01837
1.01878
1.01631
1.0165
1.0167
1.01693
1.01717
1.01744
1.01773
1.01805
1.01841
1.01876
1.01631
1.0165
1.01671
1.01694
1.01719
1.01746
1.01776
1.01809
1.01848
1.01879
1.01633
1.01652
1.01674
1.01698
1.01724
1.01752
1.01784
1.01818
1.01862
1.01893
1.01637
1.01657
1.01679
1.01704
1.01732
1.01762
1.01796
1.01832
1.01882
1.01915
1.01644
1.01665
1.01689
1.01715
1.01745
1.01778
1.01816
1.01857
1.01911
1.01946
1.01657
1.01679
1.01706
1.01735
1.01768
1.01805
1.01848
1.01897
1.0195
1.02023
1.01678
1.01703
1.01733
1.01765
1.01804
1.01846
1.01897
1.01956
1.02016
1.03968
)
;

boundaryField
{
    inlet
    {
        type            fixedValue;
        value           uniform 1;
    }
    outlet
    {
        type            inletOutlet;
        inletValue      uniform 1;
        value           nonuniform List<scalar> 
100
(
1.44617
1.44508
1.44294
1.44367
1.44529
1.44449
1.43992
1.43195
1.42182
1.40898
1.39519
1.38258
1.37198
1.36358
1.35705
1.35203
1.34824
1.3456
1.34392
1.34282
1.7233
1.68652
1.64186
1.59602
1.55546
1.52256
1.49728
1.47926
1.46358
1.45156
1.44263
1.43666
1.43255
1.43052
1.42974
1.43052
1.43265
1.43599
1.43957
1.44329
1.77293
1.81263
1.848
1.87829
1.90126
1.91757
1.92785
1.93386
1.93758
1.93574
1.93171
1.92026
1.9019
1.87726
1.85002
1.82493
1.80309
1.78455
1.76765
1.74926
1.45417
1.45324
1.4533
1.45399
1.4551
1.45617
1.45705
1.45896
1.46064
1.46548
1.47411
1.48638
1.5016
1.51957
1.5402
1.56472
1.59537
1.63325
1.67814
1.72723
1.34687
1.34927
1.34941
1.35136
1.35498
1.36016
1.36698
1.37537
1.38531
1.39653
1.4085
1.41943
1.42901
1.43944
1.4482
1.45397
1.45754
1.45923
1.45894
1.45678
)
;
    }
    triangle
    {
        type            zeroGradient;
    }
    top
    {
        type            symmetryPlane;
    }
    bottom
    {
        type            symmetryPlane;
    }
    defaultFaces
    {
        type            empty;
    }
}


// ************************************************************************* //
