/*--------------------------------*- C++ -*----------------------------------*\
  =========                 |
  \\      /  F ield         | OpenFOAM: The Open Source CFD Toolbox
   \\    /   O peration     | Website:  https://openfoam.org
    \\  /    A nd           | Version:  8
     \\/     M anipulation  |
\*---------------------------------------------------------------------------*/
FoamFile
{
    version     2.0;
    format      ascii;
    class       volVectorField;
    location    "5";
    object      U;
}
// * * * * * * * * * * * * * * * * * * * * * * * * * * * * * * * * * * * * * //

dimensions      [0 1 -1 0 0 0 0];

internalField   nonuniform List<vector> 
2600
(
(0.763836 0.0205301 0)
(1.70648 0.199924 0)
(1.97818 0.161451 0)
(1.36158 0.0343996 0)
(0.576126 -0.0280636 0)
(0.437642 -0.203011 0)
(1.0478 0.0205811 0)
(1.50875 0.3725 0)
(1.32912 0.251648 0)
(1.24173 0.113225 0)
(0.217933 -0.213186 0)
(1.1797 0.104187 0)
(1.70341 0.157143 0)
(1.04901 0.106914 0)
(0.285999 -0.0142998 0)
(0.219261 -0.222249 0)
(0.843126 -0.0567569 0)
(1.38752 0.358918 0)
(1.25488 0.257933 0)
(1.15968 0.114703 0)
(-0.00873272 -0.22581 0)
(0.642655 0.0294898 0)
(1.24791 0.163048 0)
(0.687355 0.211906 0)
(0.0331866 0.0182933 0)
(0.0386515 -0.228802 0)
(0.650104 -0.12879 0)
(1.24855 0.337244 0)
(1.17391 0.261138 0)
(1.07015 0.115351 0)
(-0.108604 -0.268318 0)
(0.25295 -0.0509717 0)
(0.723714 0.149749 0)
(0.327353 0.268782 0)
(-0.168291 0.0278865 0)
(-0.101479 -0.255589 0)
(0.484418 -0.208587 0)
(1.10382 0.309195 0)
(1.08556 0.267143 0)
(0.977108 0.119636 0)
(-0.175699 -0.264854 0)
(-0.0145406 -0.0849191 0)
(0.264359 0.178818 0)
(0.0248842 0.340564 0)
(-0.308096 0.0492375 0)
(-0.205378 -0.276082 0)
(0.334017 -0.271508 0)
(0.962909 0.274166 0)
(0.990972 0.270054 0)
(0.886044 0.119154 0)
(-0.215118 -0.257304 0)
(-0.198404 -0.11123 0)
(-0.0731073 0.187901 0)
(-0.215418 0.373494 0)
(-0.390367 0.0628341 0)
(-0.273704 -0.30667 0)
(0.200564 -0.332735 0)
(0.828711 0.238945 0)
(0.892457 0.273028 0)
(0.803298 0.12319 0)
(-0.233099 -0.233422 0)
(-0.322211 -0.0989134 0)
(-0.299234 0.208058 0)
(-0.38702 0.398382 0)
(-0.426218 0.0784717 0)
(-0.31572 -0.328401 0)
(0.0747103 -0.374719 0)
(0.702183 0.200091 0)
(0.793169 0.2761 0)
(0.735706 0.119791 0)
(-0.237098 -0.201987 0)
(-0.394979 -0.0895763 0)
(-0.431765 0.222489 0)
(-0.487976 0.415368 0)
(-0.4436 0.0885376 0)
(-0.332243 -0.35675 0)
(-0.0298467 -0.407219 0)
(0.578337 0.165722 0)
(0.697102 0.274689 0)
(0.688032 0.117108 0)
(-0.242057 -0.165449 0)
(-0.425166 -0.0701487 0)
(-0.488351 0.229794 0)
(-0.525794 0.422242 0)
(-0.446673 0.0899161 0)
(-0.315935 -0.383693 0)
(-0.10161 -0.427994 0)
(0.457176 0.127129 0)
(0.608706 0.277525 0)
(0.662394 0.112609 0)
(-0.252465 -0.126464 0)
(-0.429392 -0.0507997 0)
(-0.494825 0.234607 0)
(-0.528864 0.422552 0)
(-0.407186 0.0949208 0)
(-0.249443 -0.402854 0)
(-0.138649 -0.435867 0)
(0.338587 0.0898832 0)
(0.533626 0.271552 0)
(0.657144 0.0975068 0)
(-0.25316 -0.0839131 0)
(-0.418711 -0.0330602 0)
(-0.479349 0.231672 0)
(-0.517158 0.414883 0)
(-0.312284 0.0939918 0)
(-0.155283 -0.427025 0)
(-0.146296 -0.437922 0)
(0.23424 0.0524239 0)
(0.476379 0.265683 0)
(0.670821 0.0832031 0)
(-0.245329 -0.0419788 0)
(-0.394413 -0.0189866 0)
(-0.447813 0.219523 0)
(-0.477788 0.404422 0)
(-0.170119 0.103653 0)
(-0.043635 -0.440088 0)
(-0.133033 -0.434801 0)
(0.155605 0.0211123 0)
(0.442142 0.252479 0)
(0.70983 0.0719312 0)
(-0.244242 0.00146809 0)
(-0.351651 -0.0106779 0)
(-0.390228 0.205398 0)
(-0.402456 0.380515 0)
(0.0068251 0.102901 0)
(0.0966398 -0.441876 0)
(-0.0734341 -0.415939 0)
(0.114056 -0.00535005 0)
(0.432386 0.227933 0)
(0.770523 0.0562943 0)
(-0.232135 0.0423384 0)
(-0.292465 -0.00213342 0)
(-0.303032 0.195148 0)
(-0.276224 0.365735 0)
(0.221876 0.117155 0)
(0.275082 -0.438608 0)
(0.0360994 -0.399866 0)
(0.111163 -0.0337741 0)
(0.444036 0.198648 0)
(0.840055 0.0385328 0)
(-0.219017 0.0809785 0)
(-0.220606 -0.00112087 0)
(-0.191803 0.169362 0)
(-0.099656 0.320881 0)
(0.479599 0.10247 0)
(0.489215 -0.421529 0)
(0.17631 -0.374207 0)
(0.141973 -0.0491059 0)
(0.474247 0.167546 0)
(0.909846 0.0213464 0)
(-0.187368 0.109372 0)
(-0.131747 0.00155953 0)
(-0.0444474 0.156473 0)
(0.131046 0.297892 0)
(0.776806 0.111051 0)
(0.726647 -0.408037 0)
(0.333357 -0.345442 0)
(0.208841 -0.0544591 0)
(0.52622 0.136779 0)
(0.977674 0.00258576 0)
(-0.142321 0.139636 0)
(0.00656638 -0.0147978 0)
(0.150138 0.112432 0)
(0.394026 0.225242 0)
(1.09854 0.0744347 0)
(0.967159 -0.383769 0)
(0.502119 -0.318914 0)
(0.310173 -0.0547957 0)
(0.59631 0.0983166 0)
(1.0461 -0.0173343 0)
(-0.0385784 0.142529 0)
(0.27163 -0.0328834 0)
(0.43033 0.094495 0)
(0.705109 0.200005 0)
(1.40499 0.0503991 0)
(1.19018 -0.35758 0)
(0.676876 -0.281347 0)
(0.439723 -0.0545733 0)
(0.695603 0.0649915 0)
(1.11995 -0.0365431 0)
(0.252364 0.147424 0)
(0.72953 -0.0795694 0)
(0.806319 0.0511942 0)
(1.06049 0.137121 0)
(1.65409 -0.0065294 0)
(1.38155 -0.334099 0)
(0.847177 -0.25186 0)
(0.594663 -0.0461548 0)
(0.828109 0.0401456 0)
(1.20194 -0.0547302 0)
(0.967868 -0.0258707 0)
(1.2666 -0.0656278 0)
(1.23789 0.0626074 0)
(1.45727 0.128984 0)
(1.85847 -0.0203731 0)
(1.53206 -0.297167 0)
(1.0005 -0.222147 0)
(0.768394 -0.0472451 0)
(0.984378 0.00317729 0)
(1.29105 -0.0697263 0)
(1.77721 0.0264606 0)
(1.67779 -0.0938005 0)
(1.63394 0.0513059 0)
(1.85147 0.0877102 0)
(2.04042 -0.0646746 0)
(1.65614 -0.27282 0)
(1.1446 -0.197121 0)
(0.966675 -0.0317075 0)
(1.17669 -0.0102003 0)
(1.39121 -0.082909 0)
(1.90912 0.277691 0)
(1.89043 -0.0505517 0)
(1.9121 0.087896 0)
(2.13173 0.0814605 0)
(2.18194 -0.0670588 0)
(1.75378 -0.233714 0)
(1.27459 -0.173185 0)
(1.16451 -0.0376634 0)
(1.36537 -0.0493311 0)
(1.49232 -0.0911633 0)
(1.93577 0.293015 0)
(1.98418 -0.058279 0)
(2.0488 0.0858521 0)
(2.24969 0.042435 0)
(2.23854 -0.0998134 0)
(1.82449 -0.221811 0)
(1.3797 -0.162027 0)
(1.32052 -0.0303695 0)
(1.50465 -0.070621 0)
(1.57628 -0.0962408 0)
(1.87579 0.39474 0)
(2.0233 0.0100305 0)
(2.12467 0.107453 0)
(2.26802 0.04721 0)
(2.24053 -0.093837 0)
(1.8765 -0.200431 0)
(1.46484 -0.149507 0)
(1.43213 -0.0352422 0)
(1.60036 -0.0935397 0)
(1.64436 -0.0991951 0)
(1.85679 0.427194 0)
(2.06302 0.0356612 0)
(2.18778 0.0913648 0)
(2.25201 0.0279163 0)
(2.22482 -0.103661 0)
(1.91375 -0.200848 0)
(1.53417 -0.14436 0)
(1.51347 -0.0380894 0)
(1.67566 -0.111889 0)
(1.70199 -0.102311 0)
(1.83799 0.476723 0)
(2.06994 0.117041 0)
(2.23752 0.10808 0)
(2.2475 0.0305051 0)
(2.21838 -0.0925467 0)
(1.93356 -0.202443 0)
(1.59155 -0.138758 0)
(1.58353 -0.0473152 0)
(1.74474 -0.126743 0)
(1.75278 -0.104422 0)
(1.81195 0.525731 0)
(2.08691 0.163158 0)
(2.27132 0.0884722 0)
(2.25907 0.00918053 0)
(2.22392 -0.0977257 0)
(1.94082 -0.213862 0)
(1.63452 -0.139734 0)
(1.65496 -0.050539 0)
(1.80712 -0.136582 0)
(1.79764 -0.105304 0)
(1.79556 0.550974 0)
(2.07615 0.236842 0)
(2.27841 0.121137 0)
(2.28557 0.0193983 0)
(2.23706 -0.0892261 0)
(1.94945 -0.218933 0)
(1.66414 -0.135308 0)
(1.72487 -0.0614502 0)
(1.85722 -0.144334 0)
(1.83712 -0.100521 0)
(1.76366 0.584227 0)
(2.06946 0.280621 0)
(2.28001 0.127328 0)
(2.31469 0.00923504 0)
(2.25086 -0.0985241 0)
(1.96607 -0.231899 0)
(1.6849 -0.141662 0)
(1.78413 -0.0747447 0)
(1.89163 -0.148185 0)
(1.86655 -0.106977 0)
(1.74923 0.602203 0)
(2.05166 0.332362 0)
(2.26034 0.171473 0)
(2.33133 0.0266129 0)
(2.26073 -0.101626 0)
(1.99055 -0.248426 0)
(1.70205 -0.140738 0)
(1.8272 -0.0795916 0)
(1.9127 -0.146359 0)
(1.88576 -0.1072 0)
(1.72108 0.623595 0)
(2.02613 0.374478 0)
(2.24797 0.190903 0)
(2.34053 0.0250674 0)
(2.25885 -0.118672 0)
(2.00371 -0.278932 0)
(1.72073 -0.150706 0)
(1.85129 -0.0897325 0)
(1.92618 -0.146558 0)
(1.90034 -0.109969 0)
(1.70244 0.639427 0)
(2.00133 0.405919 0)
(2.22323 0.235144 0)
(2.33149 0.0478209 0)
(2.248 -0.125466 0)
(2.03086 -0.299623 0)
(1.74377 -0.166325 0)
(1.86492 -0.100194 0)
(1.93409 -0.149531 0)
(1.91338 -0.112191 0)
(1.68219 0.653259 0)
(1.97362 0.436819 0)
(2.20685 0.266582 0)
(2.31791 0.0555782 0)
(2.22754 -0.14657 0)
(2.04662 -0.323491 0)
(1.76491 -0.184601 0)
(1.87543 -0.111642 0)
(1.94077 -0.150653 0)
(1.92224 -0.112406 0)
(1.66793 0.66491 0)
(1.94858 0.46401 0)
(2.18396 0.306844 0)
(2.28982 0.0817055 0)
(2.20555 -0.147499 0)
(2.05365 -0.33974 0)
(1.78639 -0.202582 0)
(1.88563 -0.123714 0)
(1.94701 -0.15128 0)
(1.92619 -0.112326 0)
(1.65099 0.676007 0)
(1.9263 0.488164 0)
(2.16522 0.33767 0)
(2.26822 0.1001 0)
(2.18249 -0.154794 0)
(2.05323 -0.351019 0)
(1.80367 -0.218469 0)
(1.89148 -0.135527 0)
(1.94917 -0.153261 0)
(1.92719 -0.110401 0)
(1.63402 0.687554 0)
(1.89768 0.512648 0)
(2.1339 0.370081 0)
(2.25849 0.13007 0)
(2.15984 -0.154435 0)
(2.0546 -0.353839 0)
(1.81939 -0.229893 0)
(1.88976 -0.145481 0)
(1.94617 -0.151405 0)
(1.92531 -0.107206 0)
(1.63352 0.688444 0)
(1.879 0.532042 0)
(2.10196 0.390955 0)
(2.26993 0.15179 0)
(2.13676 -0.161386 0)
(2.05599 -0.35911 0)
(1.83534 -0.238937 0)
(1.88327 -0.157802 0)
(1.93794 -0.148887 0)
(1.92106 -0.102864 0)
(1.6349 0.693986 0)
(1.84936 0.554572 0)
(2.04957 0.414508 0)
(2.27601 0.179078 0)
(2.12337 -0.156569 0)
(2.05146 -0.360916 0)
(1.84717 -0.247127 0)
(1.87356 -0.16989 0)
(1.92618 -0.14756 0)
(1.91634 -0.0958392 0)
(1.65146 0.684573 0)
(1.83104 0.566669 0)
(2.00667 0.42819 0)
(2.25846 0.200853 0)
(2.12571 -0.153892 0)
(2.03115 -0.359749 0)
(1.85448 -0.254482 0)
(1.86365 -0.183225 0)
(1.91554 -0.14871 0)
(1.91107 -0.090765 0)
(1.69211 0.663835 0)
(1.81936 0.581042 0)
(1.96294 0.446955 0)
(2.2147 0.217251 0)
(2.1295 -0.144638 0)
(1.99442 -0.354193 0)
(1.86038 -0.266999 0)
(1.85589 -0.193209 0)
(1.90829 -0.149804 0)
(1.90892 -0.0827286 0)
(0.981851 0.258708 0)
(0.82589 0.351996 0)
(0.90043 0.431813 0)
(0.925537 0.498362 0)
(0.930406 0.523661 0)
(0.939574 0.531879 0)
(0.956779 0.535814 0)
(0.991014 0.546932 0)
(1.05429 0.565844 0)
(1.20994 0.60654 0)
(1.21682 0.462712 0)
(0.938054 0.546355 0)
(0.915693 0.563047 0)
(0.930224 0.569953 0)
(0.945695 0.569112 0)
(0.963554 0.564978 0)
(0.986267 0.569779 0)
(1.01817 0.584763 0)
(1.0781 0.594678 0)
(1.22499 0.630276 0)
(1.96385 0.432319 0)
(1.23104 0.625842 0)
(1.10486 0.606111 0)
(1.09901 0.574504 0)
(1.08981 0.566395 0)
(1.08787 0.574702 0)
(1.09741 0.584542 0)
(1.11902 0.58697 0)
(1.1678 0.583778 0)
(1.30124 0.617485 0)
(2.45664 0.154604 0)
(1.94515 0.48596 0)
(1.26684 0.671873 0)
(1.18902 0.705538 0)
(1.19123 0.685014 0)
(1.18826 0.678737 0)
(1.19863 0.67326 0)
(1.21728 0.665612 0)
(1.25416 0.653999 0)
(1.37473 0.677734 0)
(2.51782 0.084175 0)
(2.50133 0.115265 0)
(1.72851 0.591897 0)
(1.26372 0.719694 0)
(1.26138 0.718292 0)
(1.2789 0.71154 0)
(1.29668 0.703441 0)
(1.31193 0.704883 0)
(1.3436 0.69255 0)
(1.44296 0.699644 0)
(2.53733 0.0651374 0)
(2.53343 0.0713367 0)
(2.46177 0.165137 0)
(1.5047 0.670293 0)
(1.29465 0.727508 0)
(1.31193 0.724476 0)
(1.33005 0.726118 0)
(1.35375 0.726306 0)
(1.39137 0.71845 0)
(1.47187 0.713823 0)
(2.54211 0.0628718 0)
(2.54002 0.0631761 0)
(2.53796 0.0664749 0)
(2.26476 0.319734 0)
(1.41301 0.694303 0)
(1.30847 0.719583 0)
(1.33082 0.73094 0)
(1.35565 0.732964 0)
(1.40269 0.730665 0)
(1.47423 0.72357 0)
(2.55497 0.0425599 0)
(2.5538 0.0434145 0)
(2.55219 0.0458049 0)
(2.54692 0.0558178 0)
(1.81159 0.575538 0)
(1.31031 0.73325 0)
(1.32736 0.728355 0)
(1.35626 0.729968 0)
(1.40655 0.729848 0)
(1.47392 0.722906 0)
(2.56164 0.0347571 0)
(2.55906 0.0373375 0)
(2.55662 0.0394501 0)
(2.55394 0.0428483 0)
(2.49132 0.13864 0)
(1.51733 0.679424 0)
(1.33771 0.7218 0)
(1.36434 0.727447 0)
(1.41161 0.729307 0)
(1.47426 0.72362 0)
(2.56519 0.0284417 0)
(2.56347 0.0289338 0)
(2.56091 0.0315981 0)
(2.55974 0.0311101 0)
(2.55566 0.0380608 0)
(2.13792 0.463037 0)
(1.36717 0.720737 0)
(1.36605 0.732847 0)
(1.41236 0.730754 0)
(1.47173 0.724647 0)
(2.56992 0.0193381 0)
(2.56806 0.021169 0)
(2.56651 0.0221663 0)
(2.5641 0.0244621 0)
(2.56222 0.026757 0)
(2.5615 0.0707914 0)
(1.56477 0.660778 0)
(1.36911 0.729513 0)
(1.41107 0.729174 0)
(1.46678 0.72428 0)
(2.57231 0.0168792 0)
(2.57076 0.0177372 0)
(2.56921 0.0183629 0)
(2.56689 0.0201489 0)
(2.56512 0.0202389 0)
(2.56079 0.0258346 0)
(2.2202 0.399871 0)
(1.451 0.712837 0)
(1.41313 0.726928 0)
(1.46305 0.724831 0)
(2.57436 0.0126939 0)
(2.57286 0.0131815 0)
(2.57087 0.0145333 0)
(2.56906 0.0151326 0)
(2.56656 0.0167947 0)
(2.56476 0.018229 0)
(2.57014 0.0572785 0)
(1.61078 0.666068 0)
(1.4138 0.73347 0)
(1.45763 0.726499 0)
(2.57608 0.00880648 0)
(2.57449 0.00963735 0)
(2.57282 0.0103775 0)
(2.57097 0.0113941 0)
(2.56875 0.0128746 0)
(2.56699 0.0135762 0)
(2.56244 0.0203726 0)
(2.19355 0.433946 0)
(1.47953 0.72571 0)
(1.463 0.723303 0)
(2.57699 0.00720104 0)
(2.57554 0.00781255 0)
(2.57399 0.00845702 0)
(2.57214 0.00954355 0)
(2.57027 0.0103978 0)
(2.56791 0.0119233 0)
(2.56603 0.0134502 0)
(2.5618 0.083266 0)
(1.65298 0.666303 0)
(1.46662 0.725682 0)
(2.57807 0.00530265 0)
(2.5767 0.00574789 0)
(2.57518 0.00634081 0)
(2.57353 0.00697619 0)
(2.57167 0.00780872 0)
(2.56954 0.00881324 0)
(2.56766 0.00969636 0)
(2.56276 0.0190634 0)
(2.03673 0.522583 0)
(1.48775 0.732112 0)
(2.57881 0.00413756 0)
(2.57745 0.00454085 0)
(2.57601 0.00497658 0)
(2.57433 0.00566712 0)
(2.57263 0.00617814 0)
(2.57048 0.00731742 0)
(2.56854 0.00790453 0)
(2.56521 0.0107208 0)
(2.51105 0.176606 0)
(1.6261 0.683339 0)
(2.57936 0.00317555 0)
(2.57812 0.00333222 0)
(2.57663 0.00391858 0)
(2.57516 0.00414409 0)
(2.57337 0.00491488 0)
(2.57149 0.00547614 0)
(2.56936 0.0062666 0)
(2.56739 0.00766894 0)
(2.5731 0.0278446 0)
(1.78945 0.613476 0)
(2.57988 0.00220228 0)
(2.57864 0.00240209 0)
(2.57722 0.00282496 0)
(2.57576 0.00309212 0)
(2.57401 0.003801 0)
(2.57229 0.00411022 0)
(2.57001 0.00527633 0)
(2.56826 0.00557943 0)
(2.56328 0.0122986 0)
(2.10925 0.472244 0)
(2.58018 0.00164623 0)
(2.57897 0.00178479 0)
(2.57759 0.00214287 0)
(2.57615 0.0023567 0)
(2.57447 0.0029028 0)
(2.57276 0.00321819 0)
(2.57064 0.00411458 0)
(2.56871 0.00447931 0)
(2.56508 0.00682457 0)
(2.48475 0.194617 0)
(2.68002 -9.12e-08 0)
(2.67307 2.7615e-07 0)
(2.66551 -7.20553e-07 0)
(2.65728 1.20723e-06 0)
(2.64828 -2.55805e-06 0)
(2.63845 3.70323e-06 0)
(2.62787 -9.04331e-06 0)
(2.61523 1.13709e-05 0)
(2.60645 -2.63006e-05 0)
(2.18558 0.0470574 0)
(2.68002 -2.62553e-07 0)
(2.67307 7.96531e-07 0)
(2.66551 -2.05719e-06 0)
(2.65728 3.46627e-06 0)
(2.64828 -7.0953e-06 0)
(2.63845 1.04694e-05 0)
(2.62787 -2.43088e-05 0)
(2.61523 3.57768e-05 0)
(2.60642 -9.44078e-05 0)
(2.3342 0.110269 0)
(2.68002 -4.30286e-07 0)
(2.67307 1.3086e-06 0)
(2.66551 -3.35955e-06 0)
(2.65728 5.68312e-06 0)
(2.64828 -1.15744e-05 0)
(2.63845 1.70781e-05 0)
(2.62787 -3.80468e-05 0)
(2.61523 5.9386e-05 0)
(2.60622 -0.000233556 0)
(2.46445 0.0894028 0)
(2.68002 -5.90631e-07 0)
(2.67307 1.80038e-06 0)
(2.66551 -4.58051e-06 0)
(2.65728 7.78654e-06 0)
(2.64828 -1.571e-05 0)
(2.63844 2.34646e-05 0)
(2.62788 -5.10601e-05 0)
(2.61523 8.10625e-05 0)
(2.60596 -0.000218285 0)
(2.51507 0.0759689 0)
(2.68002 -7.4081e-07 0)
(2.67307 2.26474e-06 0)
(2.66551 -5.70033e-06 0)
(2.65728 9.74746e-06 0)
(2.64828 -1.94446e-05 0)
(2.63844 2.93674e-05 0)
(2.62788 -6.20347e-05 0)
(2.61524 0.000104995 0)
(2.60583 -0.000241391 0)
(2.53945 0.0582322 0)
(2.68002 -8.78924e-07 0)
(2.67307 2.69563e-06 0)
(2.66551 -6.70338e-06 0)
(2.65728 1.15404e-05 0)
(2.64829 -2.2733e-05 0)
(2.63844 3.47772e-05 0)
(2.62788 -7.11618e-05 0)
(2.61526 0.000125433 0)
(2.60578 -0.000254618 0)
(2.5536 0.0480841 0)
(2.68002 -1.00376e-06 0)
(2.67307 3.08892e-06 0)
(2.66551 -7.58374e-06 0)
(2.65728 1.31513e-05 0)
(2.64829 -2.55541e-05 0)
(2.63844 3.9597e-05 0)
(2.62789 -7.8915e-05 0)
(2.61528 0.000141322 0)
(2.60573 -0.000269681 0)
(2.56541 0.0363069 0)
(2.68002 -1.11473e-06 0)
(2.67307 3.44194e-06 0)
(2.66551 -8.34179e-06 0)
(2.65728 1.45774e-05 0)
(2.64829 -2.79411e-05 0)
(2.63844 4.38496e-05 0)
(2.62789 -8.56357e-05 0)
(2.61531 0.000157064 0)
(2.60566 -0.000274688 0)
(2.56963 0.0327231 0)
(2.68002 -1.21177e-06 0)
(2.67307 3.75357e-06 0)
(2.66551 -8.98218e-06 0)
(2.65728 1.58166e-05 0)
(2.64829 -2.98932e-05 0)
(2.63845 4.74677e-05 0)
(2.62789 -9.05156e-05 0)
(2.61534 0.000168759 0)
(2.60556 -0.00028478 0)
(2.57687 0.0219051 0)
(2.68002 -1.29527e-06 0)
(2.67307 4.02419e-06 0)
(2.66551 -9.51416e-06 0)
(2.65728 1.68802e-05 0)
(2.64829 -3.14753e-05 0)
(2.63845 5.05162e-05 0)
(2.62788 -9.41278e-05 0)
(2.61538 0.000179628 0)
(2.60545 -0.000293133 0)
(2.57932 0.01866 0)
(2.68002 -1.36591e-06 0)
(2.67307 4.25507e-06 0)
(2.66551 -9.947e-06 0)
(2.65728 1.77754e-05 0)
(2.64829 -3.2724e-05 0)
(2.63845 5.30764e-05 0)
(2.62788 -9.62922e-05 0)
(2.61543 0.00018816 0)
(2.60532 -0.000299897 0)
(2.58114 0.0146639 0)
(2.68002 -1.42459e-06 0)
(2.67307 4.44863e-06 0)
(2.66551 -1.02924e-05 0)
(2.65728 1.85169e-05 0)
(2.64829 -3.36805e-05 0)
(2.63845 5.51861e-05 0)
(2.62788 -9.79887e-05 0)
(2.61549 0.000194329 0)
(2.60517 -0.000305648 0)
(2.58419 0.00976019 0)
(2.68002 -1.47231e-06 0)
(2.67307 4.60762e-06 0)
(2.66551 -1.05608e-05 0)
(2.65728 1.91186e-05 0)
(2.64829 -3.43878e-05 0)
(2.63845 5.69452e-05 0)
(2.62787 -9.91995e-05 0)
(2.61554 0.000200767 0)
(2.605 -0.000311863 0)
(2.58528 0.0080755 0)
(2.68002 -1.51012e-06 0)
(2.67307 4.73517e-06 0)
(2.66551 -1.07621e-05 0)
(2.65728 1.95924e-05 0)
(2.64829 -3.48605e-05 0)
(2.63845 5.82442e-05 0)
(2.62786 -9.92408e-05 0)
(2.6156 0.000204163 0)
(2.60482 -0.000314545 0)
(2.58621 0.00571453 0)
(2.68002 -1.53904e-06 0)
(2.67307 4.83449e-06 0)
(2.66551 -1.0906e-05 0)
(2.65728 1.99558e-05 0)
(2.64829 -3.51641e-05 0)
(2.63846 5.93042e-05 0)
(2.62785 -9.91637e-05 0)
(2.61566 0.000206887 0)
(2.60464 -0.000315071 0)
(2.58687 0.00423851 0)
(2.68002 -1.56003e-06 0)
(2.67307 4.90845e-06 0)
(2.66551 -1.0999e-05 0)
(2.65728 2.02152e-05 0)
(2.64829 -3.52716e-05 0)
(2.63846 6.00423e-05 0)
(2.62784 -9.83476e-05 0)
(2.61572 0.000207942 0)
(2.60444 -0.000311319 0)
(2.58747 0.00308888 0)
(2.68002 -1.57399e-06 0)
(2.67307 4.95989e-06 0)
(2.66551 -1.10474e-05 0)
(2.65728 2.03863e-05 0)
(2.64829 -3.52208e-05 0)
(2.63846 6.04945e-05 0)
(2.62783 -9.7245e-05 0)
(2.61578 0.00020802 0)
(2.60425 -0.000304347 0)
(2.58798 0.00219514 0)
(2.68002 -1.58164e-06 0)
(2.67307 4.99125e-06 0)
(2.66551 -1.10538e-05 0)
(2.65728 2.04789e-05 0)
(2.64829 -3.50342e-05 0)
(2.63846 6.06392e-05 0)
(2.62782 -9.56251e-05 0)
(2.61584 0.000207127 0)
(2.60406 -0.000291625 0)
(2.5883 0.00156408 0)
(2.68002 -1.58311e-06 0)
(2.67307 5.0044e-06 0)
(2.66551 -1.10223e-05 0)
(2.65728 2.04933e-05 0)
(2.64829 -3.47139e-05 0)
(2.63846 6.04406e-05 0)
(2.62781 -9.35322e-05 0)
(2.61589 0.000204828 0)
(2.60388 -0.00027502 0)
(2.58851 0.00108634 0)
(2.68002 -1.57926e-06 0)
(2.67307 5.00225e-06 0)
(2.66551 -1.09612e-05 0)
(2.65728 2.04456e-05 0)
(2.64829 -3.42853e-05 0)
(2.63847 5.99848e-05 0)
(2.6278 -9.09093e-05 0)
(2.61593 0.000199949 0)
(2.60371 -0.000254895 0)
(2.58867 0.000690897 0)
(2.68002 1.5791e-06 0)
(2.67307 -5.00185e-06 0)
(2.66551 1.09599e-05 0)
(2.65728 -2.04446e-05 0)
(2.64829 3.42842e-05 0)
(2.63847 -5.99881e-05 0)
(2.6278 9.09208e-05 0)
(2.61593 -0.000199947 0)
(2.60371 0.000254892 0)
(2.58867 -0.00069068 0)
(2.68002 1.58301e-06 0)
(2.67307 -5.0042e-06 0)
(2.66551 1.10214e-05 0)
(2.65728 -2.04925e-05 0)
(2.64829 3.47124e-05 0)
(2.63846 -6.0444e-05 0)
(2.62781 9.3536e-05 0)
(2.61589 -0.000204831 0)
(2.60388 0.000275044 0)
(2.58851 -0.00108524 0)
(2.68002 1.5816e-06 0)
(2.67307 -4.99122e-06 0)
(2.66551 1.10532e-05 0)
(2.65728 -2.04785e-05 0)
(2.64829 3.50326e-05 0)
(2.63846 -6.06411e-05 0)
(2.62782 9.56264e-05 0)
(2.61584 -0.000207146 0)
(2.60406 0.000291656 0)
(2.5883 -0.0015653 0)
(2.68002 1.57401e-06 0)
(2.67307 -4.96003e-06 0)
(2.66551 1.10471e-05 0)
(2.65728 -2.03863e-05 0)
(2.64829 3.52193e-05 0)
(2.63846 -6.04962e-05 0)
(2.62783 9.72468e-05 0)
(2.61578 -0.000208045 0)
(2.60425 0.000304437 0)
(2.58798 -0.00219433 0)
(2.68002 1.5601e-06 0)
(2.67307 -4.90877e-06 0)
(2.66551 1.0999e-05 0)
(2.65728 -2.02156e-05 0)
(2.64829 3.52704e-05 0)
(2.63846 -6.00434e-05 0)
(2.62784 9.83507e-05 0)
(2.61572 -0.00020797 0)
(2.60444 0.000311407 0)
(2.58747 -0.00308905 0)
(2.68002 1.53917e-06 0)
(2.67307 -4.83498e-06 0)
(2.66551 1.09064e-05 0)
(2.65728 -1.99568e-05 0)
(2.64829 3.51635e-05 0)
(2.63846 -5.93051e-05 0)
(2.62785 9.91659e-05 0)
(2.61566 -0.000206908 0)
(2.60464 0.000315176 0)
(2.58687 -0.00424027 0)
(2.68002 1.5103e-06 0)
(2.67307 -4.73585e-06 0)
(2.66551 1.07628e-05 0)
(2.65728 -1.95939e-05 0)
(2.64829 3.48602e-05 0)
(2.63845 -5.82439e-05 0)
(2.62786 9.92418e-05 0)
(2.6156 -0.00020418 0)
(2.60482 0.000314677 0)
(2.58621 -0.00571383 0)
(2.68002 1.47255e-06 0)
(2.67307 -4.60849e-06 0)
(2.66551 1.05619e-05 0)
(2.65728 -1.91208e-05 0)
(2.64829 3.43882e-05 0)
(2.63845 -5.69442e-05 0)
(2.62787 9.92021e-05 0)
(2.61554 -0.000200781 0)
(2.605 0.000312017 0)
(2.58529 -0.00807039 0)
(2.68002 1.42488e-06 0)
(2.67307 -4.44968e-06 0)
(2.66551 1.02939e-05 0)
(2.65728 -1.85195e-05 0)
(2.64829 3.3681e-05 0)
(2.63845 -5.51833e-05 0)
(2.62788 9.79931e-05 0)
(2.61549 -0.000194365 0)
(2.60517 0.000305838 0)
(2.58419 -0.00976747 0)
(2.68002 1.36626e-06 0)
(2.67307 -4.25632e-06 0)
(2.66551 9.94895e-06 0)
(2.65728 -1.77786e-05 0)
(2.64829 3.27249e-05 0)
(2.63845 -5.30702e-05 0)
(2.62788 9.629e-05 0)
(2.61543 -0.000188189 0)
(2.60532 0.0003001 0)
(2.58114 -0.0146717 0)
(2.68002 1.29569e-06 0)
(2.67307 -4.02562e-06 0)
(2.66551 9.5165e-06 0)
(2.65728 -1.68837e-05 0)
(2.64829 3.14755e-05 0)
(2.63845 -5.0506e-05 0)
(2.62788 9.41224e-05 0)
(2.61538 -0.000179659 0)
(2.60545 0.000293364 0)
(2.57932 -0.0186572 0)
(2.68002 1.21226e-06 0)
(2.67307 -3.75521e-06 0)
(2.66551 8.98504e-06 0)
(2.65728 -1.58208e-05 0)
(2.64829 2.98944e-05 0)
(2.63845 -4.74534e-05 0)
(2.62789 9.04891e-05 0)
(2.61534 -0.000168734 0)
(2.60556 0.000285032 0)
(2.57687 -0.0219062 0)
(2.68002 1.11528e-06 0)
(2.67307 -3.44376e-06 0)
(2.66551 8.3451e-06 0)
(2.65728 -1.45819e-05 0)
(2.64829 2.79417e-05 0)
(2.63844 -4.38322e-05 0)
(2.62789 8.55867e-05 0)
(2.61531 -0.000156951 0)
(2.60566 0.000274906 0)
(2.56963 -0.032727 0)
(2.68002 1.00439e-06 0)
(2.67307 -3.09094e-06 0)
(2.66551 7.58764e-06 0)
(2.65728 -1.31568e-05 0)
(2.64829 2.55572e-05 0)
(2.63844 -3.95829e-05 0)
(2.62789 7.88437e-05 0)
(2.61528 -0.000141105 0)
(2.60573 0.000270009 0)
(2.56541 -0.0363217 0)
(2.68002 8.79619e-07 0)
(2.67307 -2.69784e-06 0)
(2.66551 6.70777e-06 0)
(2.65728 -1.15462e-05 0)
(2.64829 2.27356e-05 0)
(2.63844 -3.47684e-05 0)
(2.62788 7.1116e-05 0)
(2.61526 -0.000125233 0)
(2.60578 0.000254764 0)
(2.5536 -0.0480985 0)
(2.68002 7.41571e-07 0)
(2.67307 -2.26712e-06 0)
(2.66551 5.70535e-06 0)
(2.65728 -9.75456e-06 0)
(2.64828 1.94543e-05 0)
(2.63844 -2.93808e-05 0)
(2.62788 6.20312e-05 0)
(2.61524 -0.000104558 0)
(2.60583 0.000241515 0)
(2.53943 -0.0582593 0)
(2.68002 5.91451e-07 0)
(2.67307 -1.8029e-06 0)
(2.66551 4.58593e-06 0)
(2.65728 -7.79352e-06 0)
(2.64828 1.57159e-05 0)
(2.63844 -2.34692e-05 0)
(2.62788 5.09959e-05 0)
(2.61523 -8.10694e-05 0)
(2.60596 0.000218861 0)
(2.51504 -0.0760129 0)
(2.68002 4.31153e-07 0)
(2.67307 -1.31125e-06 0)
(2.66551 3.36545e-06 0)
(2.65728 -5.69121e-06 0)
(2.64828 1.15894e-05 0)
(2.63845 -1.71258e-05 0)
(2.62787 3.83028e-05 0)
(2.61523 -5.91061e-05 0)
(2.60622 0.000229203 0)
(2.46426 -0.0894475 0)
(2.68002 2.63451e-07 0)
(2.67307 -7.99246e-07 0)
(2.66551 2.06333e-06 0)
(2.65728 -3.47435e-06 0)
(2.64828 7.10631e-06 0)
(2.63845 -1.04808e-05 0)
(2.62787 2.40955e-05 0)
(2.61523 -3.60071e-05 0)
(2.60643 9.69095e-05 0)
(2.33384 -0.110317 0)
(2.68002 9.21212e-08 0)
(2.67307 -2.78931e-07 0)
(2.66551 7.26973e-07 0)
(2.65728 -1.21591e-06 0)
(2.64828 2.57379e-06 0)
(2.63845 -3.7391e-06 0)
(2.62787 9.3131e-06 0)
(2.61523 -1.22519e-05 0)
(2.60647 2.77382e-05 0)
(2.1854 -0.0468121 0)
(2.58018 -0.00164684 0)
(2.57897 -0.00178442 0)
(2.57759 -0.00214351 0)
(2.57616 -0.00235501 0)
(2.57447 -0.00290194 0)
(2.57276 -0.00321499 0)
(2.57064 -0.00411192 0)
(2.56871 -0.00447461 0)
(2.56508 -0.0068251 0)
(2.48131 -0.196719 0)
(2.57988 -0.00220126 0)
(2.57864 -0.0024018 0)
(2.57722 -0.00282307 0)
(2.57576 -0.00309182 0)
(2.57401 -0.0037976 0)
(2.57229 -0.00410921 0)
(2.57001 -0.00527021 0)
(2.56826 -0.00557592 0)
(2.56327 -0.0123677 0)
(2.10525 -0.473414 0)
(2.57936 -0.00317383 0)
(2.57812 -0.00332946 0)
(2.57663 -0.00391577 0)
(2.57516 -0.00413856 0)
(2.57337 -0.00491293 0)
(2.5715 -0.00546822 0)
(2.56936 -0.00626484 0)
(2.56739 -0.00766581 0)
(2.57322 -0.0280337 0)
(1.7896 -0.61323 0)
(2.57881 -0.00413859 0)
(2.57745 -0.00454143 0)
(2.57601 -0.00497457 0)
(2.57433 -0.00566663 0)
(2.57264 -0.00617055 0)
(2.57048 -0.0073165 0)
(2.56855 -0.00789102 0)
(2.56518 -0.0107293 0)
(2.50962 -0.17792 0)
(1.62699 -0.682976 0)
(2.57807 -0.00529481 0)
(2.5767 -0.0057434 0)
(2.57519 -0.00633366 0)
(2.57353 -0.00697105 0)
(2.57167 -0.00780628 0)
(2.56954 -0.00880335 0)
(2.56766 -0.0096966 0)
(2.56277 -0.0190919 0)
(2.03447 -0.523136 0)
(1.48876 -0.731578 0)
(2.57699 -0.00719292 0)
(2.57554 -0.00780087 0)
(2.57399 -0.0084521 0)
(2.57215 -0.00953101 0)
(2.57027 -0.0103973 0)
(2.56792 -0.0119121 0)
(2.56603 -0.0134497 0)
(2.56111 -0.0839798 0)
(1.65397 -0.665717 0)
(1.46783 -0.724705 0)
(2.57608 -0.00881048 0)
(2.57449 -0.009632 0)
(2.57283 -0.0103707 0)
(2.57098 -0.0113845 0)
(2.56876 -0.0128532 0)
(2.567 -0.0135657 0)
(2.56241 -0.0203968 0)
(2.19096 -0.435425 0)
(1.47915 -0.725198 0)
(1.46414 -0.723182 0)
(2.57436 -0.0127043 0)
(2.57286 -0.0131968 0)
(2.57087 -0.0145421 0)
(2.56906 -0.0151423 0)
(2.56656 -0.0167968 0)
(2.56476 -0.0182262 0)
(2.57014 -0.0577039 0)
(1.61085 -0.666193 0)
(1.41482 -0.732621 0)
(1.45879 -0.725987 0)
(2.57233 -0.0168498 0)
(2.57078 -0.0177104 0)
(2.56923 -0.0183377 0)
(2.5669 -0.0201306 0)
(2.56513 -0.0202292 0)
(2.5608 -0.025848 0)
(2.21894 -0.401111 0)
(1.45081 -0.713361 0)
(1.41393 -0.726536 0)
(1.46412 -0.724338 0)
(2.56992 -0.0193351 0)
(2.56807 -0.0211607 0)
(2.56651 -0.0221653 0)
(2.56411 -0.024452 0)
(2.56223 -0.0267629 0)
(2.56136 -0.071072 0)
(1.56336 -0.661067 0)
(1.36967 -0.729721 0)
(1.41152 -0.729026 0)
(1.4681 -0.723711 0)
(2.56519 -0.0284521 0)
(2.56347 -0.0289409 0)
(2.56091 -0.0316006 0)
(2.55974 -0.0311179 0)
(2.55567 -0.0380699 0)
(2.13475 -0.463725 0)
(1.3677 -0.720667 0)
(1.36653 -0.732448 0)
(1.41294 -0.730221 0)
(1.47296 -0.723843 0)
(2.56165 -0.0347602 0)
(2.55906 -0.0373529 0)
(2.55663 -0.0394583 0)
(2.55395 -0.0428599 0)
(2.49094 -0.139251 0)
(1.51633 -0.679449 0)
(1.33774 -0.721601 0)
(1.36491 -0.727103 0)
(1.41224 -0.728729 0)
(1.47521 -0.722646 0)
(2.55498 -0.0425713 0)
(2.55381 -0.0434199 0)
(2.5522 -0.0458181 0)
(2.54694 -0.0558261 0)
(1.80963 -0.576012 0)
(1.31022 -0.73324 0)
(1.32734 -0.728216 0)
(1.35671 -0.729636 0)
(1.40718 -0.729399 0)
(1.47472 -0.721886 0)
(2.54212 -0.0628888 0)
(2.54002 -0.0631944 0)
(2.53797 -0.0664901 0)
(2.26439 -0.320026 0)
(1.41292 -0.694012 0)
(1.3086 -0.719537 0)
(1.33096 -0.730793 0)
(1.35609 -0.73266 0)
(1.40324 -0.730323 0)
(1.47477 -0.722734 0)
(2.53734 -0.0651501 0)
(2.53343 -0.071352 0)
(2.4616 -0.165436 0)
(1.5044 -0.670579 0)
(1.29473 -0.727315 0)
(1.31227 -0.724241 0)
(1.33037 -0.725943 0)
(1.35421 -0.725989 0)
(1.39179 -0.718287 0)
(1.47245 -0.71309 0)
(2.51781 -0.0841964 0)
(2.50129 -0.115407 0)
(1.72797 -0.592145 0)
(1.26378 -0.719731 0)
(1.26153 -0.718116 0)
(1.27931 -0.711143 0)
(1.29709 -0.70325 0)
(1.31239 -0.704699 0)
(1.34432 -0.692266 0)
(1.44335 -0.699396 0)
(2.4564 -0.154892 0)
(1.94469 -0.486389 0)
(1.2665 -0.671991 0)
(1.18904 -0.705471 0)
(1.19126 -0.684907 0)
(1.18852 -0.678585 0)
(1.19913 -0.673145 0)
(1.21776 -0.66561 0)
(1.2546 -0.654346 0)
(1.37505 -0.67817 0)
(1.96267 -0.432609 0)
(1.23052 -0.625921 0)
(1.10476 -0.606027 0)
(1.0988 -0.574381 0)
(1.0898 -0.566247 0)
(1.08802 -0.574597 0)
(1.0978 -0.584472 0)
(1.11949 -0.586973 0)
(1.16828 -0.583961 0)
(1.30172 -0.617978 0)
(1.21633 -0.462711 0)
(0.937675 -0.54619 0)
(0.915498 -0.563027 0)
(0.930028 -0.569836 0)
(0.945629 -0.568979 0)
(0.96358 -0.564885 0)
(0.986453 -0.569938 0)
(1.01854 -0.584962 0)
(1.07824 -0.594831 0)
(1.22413 -0.630337 0)
(0.981531 -0.25852 0)
(0.825675 -0.351854 0)
(0.900267 -0.431732 0)
(0.925421 -0.498305 0)
(0.930289 -0.523578 0)
(0.939511 -0.531793 0)
(0.956925 -0.535759 0)
(0.991401 -0.547033 0)
(1.05437 -0.565971 0)
(1.208 -0.606985 0)
(1.69773 -0.661643 0)
(1.81541 -0.581239 0)
(2.0627 -0.419031 0)
(2.08194 -0.142804 0)
(2.03259 0.0480387 0)
(2.00884 0.187519 0)
(1.97005 0.292808 0)
(1.93566 0.293716 0)
(1.84666 0.229938 0)
(1.83592 0.0706145 0)
(1.65711 -0.682498 0)
(1.83125 -0.567523 0)
(2.09831 -0.395762 0)
(2.11102 -0.125839 0)
(2.04954 0.0387809 0)
(2.01965 0.177078 0)
(1.9868 0.29742 0)
(1.93926 0.302075 0)
(1.83934 0.235499 0)
(1.83423 0.0701506 0)
(1.64098 -0.692221 0)
(1.85466 -0.557727 0)
(2.13559 -0.37125 0)
(2.13375 -0.10902 0)
(2.06304 0.0310936 0)
(2.02178 0.163199 0)
(1.99984 0.296305 0)
(1.9465 0.306355 0)
(1.83496 0.233669 0)
(1.83266 0.0675904 0)
(1.63962 -0.686429 0)
(1.89159 -0.53664 0)
(2.16633 -0.3473 0)
(2.15273 -0.0865391 0)
(2.07633 0.0203025 0)
(2.02213 0.14514 0)
(2.00783 0.290063 0)
(1.95551 0.30278 0)
(1.8316 0.2245 0)
(1.83102 0.0653899 0)
(1.63921 -0.683582 0)
(1.91716 -0.519229 0)
(2.18766 -0.325457 0)
(2.16063 -0.0701745 0)
(2.09101 0.0109882 0)
(2.02085 0.125616 0)
(2.01343 0.280032 0)
(1.96176 0.289155 0)
(1.82903 0.21366 0)
(1.82794 0.0633398 0)
(1.65587 -0.670758 0)
(1.94901 -0.494405 0)
(2.20487 -0.2991 0)
(2.17182 -0.049544 0)
(2.11722 -0.00520272 0)
(2.03268 0.104471 0)
(2.02496 0.27294 0)
(1.96605 0.279468 0)
(1.82735 0.209395 0)
(1.82252 0.0639048 0)
(1.67178 -0.658993 0)
(1.97306 -0.465287 0)
(2.2149 -0.284024 0)
(2.18875 -0.036467 0)
(2.1368 -0.022215 0)
(2.04261 0.084071 0)
(2.03461 0.266828 0)
(1.97483 0.278848 0)
(1.82514 0.209821 0)
(1.81454 0.0648571 0)
(1.68569 -0.648554 0)
(2.00411 -0.42686 0)
(2.23197 -0.254645 0)
(2.21419 -0.028947 0)
(2.14784 -0.0407301 0)
(2.0552 0.0650376 0)
(2.04254 0.26146 0)
(1.98206 0.288315 0)
(1.82196 0.219308 0)
(1.80375 0.0678188 0)
(1.70635 -0.637165 0)
(2.02782 -0.389857 0)
(2.25605 -0.211826 0)
(2.2384 -0.0377271 0)
(2.14934 -0.0640939 0)
(2.06545 0.042761 0)
(2.04789 0.267553 0)
(1.9866 0.314397 0)
(1.81452 0.229857 0)