/*--------------------------------*- C++ -*----------------------------------*\
  =========                 |
  \\      /  F ield         | OpenFOAM: The Open Source CFD Toolbox
   \\    /   O peration     | Website:  https://openfoam.org
    \\  /    A nd           | Version:  8
     \\/     M anipulation  |
\*---------------------------------------------------------------------------*/
FoamFile
{
    version     2.0;
    format      ascii;
    class       volVectorField;
    location    "0.3";
    object      U;
}
// * * * * * * * * * * * * * * * * * * * * * * * * * * * * * * * * * * * * * //

dimensions      [0 1 -1 0 0 0 0];

internalField   nonuniform List<vector> 
325
(
(0.989741 0.0270777 0)
(1.0219 0.0109829 0)
(1.0504 0.00490941 0)
(1.08305 0.00125097 0)
(0.228354 0.106602 0)
(0.618972 0.0928524 0)
(0.884166 0.0429441 0)
(0.988823 0.0202446 0)
(1.02339 0.00774142 0)
(1.05121 0.00346057 0)
(1.08322 0.000860339 0)
(0.160644 0.0601891 0)
(0.583861 0.0516467 0)
(0.868416 0.0258473 0)
(0.985566 0.0121719 0)
(1.02269 0.00435705 0)
(1.05106 0.00203509 0)
(1.08322 0.00051998 0)
(0.132155 0.0205052 0)
(0.556779 0.0189756 0)
(0.866688 0.00887603 0)
(0.989233 0.00442619 0)
(1.02445 0.00162461 0)
(1.05137 0.00068608 0)
(1.08307 0.000185299 0)
(0.556779 -0.0189755 0)
(0.866688 -0.00887601 0)
(0.989233 -0.00442619 0)
(1.02445 -0.00162461 0)
(1.05137 -0.000686081 0)
(1.08307 -0.000185299 0)
(0.583861 -0.0516465 0)
(0.868416 -0.0258473 0)
(0.985566 -0.0121719 0)
(1.02269 -0.00435705 0)
(1.05106 -0.00203509 0)
(1.08322 -0.00051998 0)
(0.618972 -0.0928522 0)
(0.884166 -0.0429441 0)
(0.988823 -0.0202446 0)
(1.02339 -0.00774142 0)
(1.05121 -0.00346057 0)
(1.08322 -0.000860339 0)
(0.687005 -0.112927 0)
(0.905188 -0.0544676 0)
(0.989741 -0.0270777 0)
(1.0219 -0.0109829 0)
(1.0504 -0.00490941 0)
(1.08305 -0.00125097 0)
(0.758511 -0.150291 0)
(0.913242 -0.0718965 0)
(0.990065 -0.0337187 0)
(1.02219 -0.0144216 0)
(1.05072 -0.00631898 0)
(1.08316 -0.00159545 0)
(0.838639 -0.1475 0)
(0.929109 -0.0795884 0)
(0.990485 -0.039997 0)
(1.02173 -0.0179206 0)
(1.05047 -0.00776207 0)
(1.0832 -0.00198864 0)
(0.903843 -0.160687 0)
(0.943831 -0.0884183 0)
(0.990676 -0.0458956 0)
(1.02138 -0.0215452 0)
(1.05085 -0.00911791 0)
(1.08343 -0.00233482 0)
(0.950866 -0.157377 0)
(0.958808 -0.0940816 0)
(0.989158 -0.0517576 0)
(1.01994 -0.0249353 0)
(1.05125 -0.0105626 0)
(1.08377 -0.00260467 0)
(0.982735 -0.153928 0)
(0.974666 -0.0979178 0)
(0.993229 -0.0567472 0)
(1.02077 -0.0284625 0)
(1.05109 -0.0121578 0)
(1.084 -0.00289076 0)
(1.00406 -0.14783 0)
(0.990323 -0.0991025 0)
(0.998331 -0.061225 0)
(1.02011 -0.031711 0)
(1.05024 -0.0136171 0)
(1.08402 -0.00327249 0)
(1.02221 -0.148635 0)
(1.0047 -0.101337 0)
(1.00518 -0.0653772 0)
(1.02229 -0.0347921 0)
(1.05097 -0.0154079 0)
(1.08427 -0.00361247 0)
(1.0411 -0.149682 0)
(1.01761 -0.104331 0)
(1.01265 -0.0696334 0)
(1.02482 -0.0377105 0)
(1.05116 -0.0173948 0)
(1.0844 -0.00409003 0)
(1.05984 -0.148588 0)
(1.02884 -0.106608 0)
(1.01916 -0.0731567 0)
(1.02782 -0.0403824 0)
(1.05232 -0.0191244 0)
(1.08471 -0.00451805 0)
(1.07951 -0.146642 0)
(1.03886 -0.109031 0)
(1.02441 -0.0765996 0)
(1.03055 -0.0430799 0)
(1.05373 -0.02076 0)
(1.08513 -0.00491158 0)
(1.09805 -0.142559 0)
(1.04714 -0.113866 0)
(1.02855 -0.0806015 0)
(1.03277 -0.0459232 0)
(1.05513 -0.0222691 0)
(1.08564 -0.00524329 0)
(1.11355 -0.140327 0)
(1.05496 -0.117924 0)
(1.03244 -0.0844861 0)
(1.03511 -0.048488 0)
(1.05656 -0.0235633 0)
(1.08619 -0.00553331 0)
(1.12475 -0.134576 0)
(1.06149 -0.117761 0)
(1.03638 -0.0863998 0)
(1.03749 -0.0506206 0)
(1.05798 -0.0247982 0)
(1.08679 -0.0057869 0)
(1.1352 -0.129042 0)
(1.06788 -0.114405 0)
(1.03951 -0.0863295 0)
(1.03992 -0.0523278 0)
(1.05949 -0.0259587 0)
(1.08744 -0.00601505 0)
(1.1444 -0.121937 0)
(1.073 -0.108479 0)
(1.04174 -0.0854553 0)
(1.04225 -0.0540953 0)
(1.06113 -0.0271225 0)
(1.08814 -0.00620616 0)
(1.15356 -0.118152 0)
(1.07654 -0.102674 0)
(1.04341 -0.0852177 0)
(1.04457 -0.0561763 0)
(1.06284 -0.0285139 0)
(1.08891 -0.00637445 0)
(1.16808 -0.123899 0)
(1.08047 -0.0987814 0)
(1.0448 -0.0858953 0)
(1.04661 -0.058887 0)
(1.06468 -0.0300492 0)
(1.08976 -0.00644705 0)
(1.18419 -0.14377 0)
(1.08554 -0.1017 0)
(1.047 -0.0888197 0)
(1.04863 -0.062361 0)
(1.06688 -0.031466 0)
(1.09067 -0.00636876 0)
(1.19405 -0.18286 0)
(1.09198 -0.115312 0)
(1.04843 -0.0945046 0)
(1.05034 -0.0662754 0)
(1.06939 -0.0321973 0)
(1.09161 -0.00607117 0)
(1.19669 -0.225514 0)
(1.10053 -0.144895 0)
(1.05273 -0.105536 0)
(1.0526 -0.0693219 0)
(1.07199 -0.031792 0)
(1.09251 -0.00559635 0)
(1.19376 -0.236047 0)
(1.11078 -0.17549 0)
(1.05765 -0.118347 0)
(1.05546 -0.0709723 0)
(1.07453 -0.0302793 0)
(1.09332 -0.00501457 0)
(1.19049 -0.231296 0)
(1.11919 -0.187418 0)
(1.06474 -0.125971 0)
(1.05922 -0.0713873 0)
(1.07702 -0.0285088 0)
(1.09404 -0.00445809 0)
(1.187 -0.223253 0)
(1.12566 -0.186624 0)
(1.07197 -0.128014 0)
(1.06333 -0.0703886 0)
(1.07947 -0.0266928 0)
(1.09468 -0.00396921 0)
(1.18234 -0.207345 0)
(1.12981 -0.178351 0)
(1.07855 -0.12482 0)
(1.0677 -0.068651 0)
(1.08192 -0.0251552 0)
(1.09526 -0.00356021 0)
(1.18025 -0.189967 0)
(1.13502 -0.170431 0)
(1.08616 -0.124292 0)
(1.07231 -0.0670324 0)
(1.08432 -0.0236695 0)
(1.0958 -0.00318599 0)
(1.1763 -0.17003 0)
(1.13307 -0.155688 0)
(1.09059 -0.117255 0)
(1.07678 -0.0648363 0)
(1.08665 -0.0223252 0)
(1.09628 -0.00283714 0)
(1.17635 -0.145238 0)
(1.13672 -0.138568 0)
(1.09975 -0.109293 0)
(1.08367 -0.0600257 0)
(1.09003 -0.0198319 0)
(1.09692 -0.00230422 0)
(1.17274 -0.11024 0)
(1.13954 -0.113121 0)
(1.10975 -0.0925989 0)
(1.09291 -0.0519549 0)
(1.09444 -0.0161478 0)
(1.09769 -0.00164283 0)
(1.1692 -0.0798988 0)
(1.1388 -0.0864738 0)
(1.11464 -0.0715236 0)
(1.09949 -0.0398477 0)
(1.09798 -0.0115517 0)
(1.09824 -0.000998528 0)
(1.16391 -0.0527706 0)
(1.14094 -0.0654501 0)
(1.12165 -0.0555269 0)
(1.1065 -0.030055 0)
(1.1011 -0.00762644 0)
(1.09862 -0.000519006 0)
(1.15554 -0.0282878 0)
(1.13879 -0.042518 0)
(1.12345 -0.035612 0)
(1.11029 -0.0174881 0)
(1.10309 -0.00353801 0)
(1.09883 -0.000139697 0)
(1.14661 -0.00611562 0)
(1.13964 -0.0241864 0)
(1.12705 -0.0191832 0)
(1.11367 -0.00623452 0)
(1.10432 0.000171744 0)
(1.09895 0.000160262 0)
(1.13652 0.0172777 0)
(1.1381 -0.00161199 0)
(1.12802 0.00105097 0)
(1.11535 0.00551544 0)
(1.10437 0.00260627 0)
(1.09881 0.000254747 0)
(1.12681 0.0455869 0)
(1.13662 0.0253233 0)
(1.12892 0.0216051 0)
(1.11501 0.0132238 0)
(1.10317 0.00306915 0)
(1.09865 0.000198382 0)
(1.11772 0.0806371 0)
(1.13275 0.0563225 0)
(1.12786 0.0374291 0)
(1.11223 0.0148709 0)
(1.10175 0.00232526 0)
(1.09858 0.000125876 0)
(1.10885 0.104155 0)
(1.12669 0.0738611 0)
(1.12336 0.0407785 0)
(1.10807 0.013194 0)
(1.10081 0.00128153 0)
(1.09855 7.40441e-05 0)
(1.10223 0.104209 0)
(1.11948 0.07403 0)
(1.11606 0.0382995 0)
(1.10449 0.00884994 0)
(1.10027 0.000472523 0)
(1.09852 3.92092e-05 0)
(1.09501 0.0954176 0)
(1.11008 0.0658795 0)
(1.10919 0.0276251 0)
(1.10179 0.00387111 0)
(1.10006 9.67214e-05 0)
(1.0985 1.29039e-05 0)
(1.09229 0.0644115 0)
(1.10314 0.0412265 0)
(1.10352 0.0123083 0)
(1.1004 0.000873795 0)
(1.10001 9.76151e-06 0)
(1.09849 1.04722e-06 0)
(1.09009 0.0235321 0)
(1.09961 0.0117237 0)
(1.10063 0.00255225 0)
(1.10004 8.57175e-05 0)
(1.1 4.33948e-07 0)
(1.09849 2.66848e-08 0)
(1.08927 0.00271623 0)
(1.09872 0.000994691 0)
(1.1 0.000119828 0)
(1.1 5.71203e-06 0)
(1.1 1.80421e-08 0)
(1.09849 -1.88778e-10 0)
(1.0892 5.95245e-05 0)
(1.09863 1.46699e-05 0)
(1.09997 8.86399e-07 0)
(1.1 3.10066e-08 0)
(1.1 1.97474e-10 0)
(1.09849 -8.29863e-10 0)
(1.0892 9.71323e-08 0)
(1.09862 1.92572e-08 0)
(1.09997 5.57796e-10 0)
(1.1 4.16697e-12 0)
(1.1 -6.92456e-12 0)
(1.09849 -2.92979e-11 0)
(1.0892 -6.31225e-08 0)
(1.09862 -5.90129e-09 0)
(1.09997 -1.10403e-10 0)
(1.1 -7.56977e-12 0)
(1.1 -5.47929e-12 0)
(1.09849 -6.17167e-13 0)
(1.0892 -5.25614e-08 0)
(1.09862 -6.45422e-09 0)
(1.09997 -1.34499e-10 0)
(1.1 -4.95226e-12 0)
(1.1 -1.96495e-12 0)
(1.09849 -8.80448e-14 0)
(1.0892 -2.09896e-08 0)
(1.09862 -2.26775e-09 0)
(1.09997 -3.99666e-11 0)
(1.1 -7.69381e-13 0)
(1.1 -1.68272e-13 0)
(1.09849 -1.94711e-14 0)
)
;

boundaryField
{
    inlet
    {
        type            fixedValue;
        value           nonuniform List<vector> 0();
    }
    outlet
    {
        type            inletOutlet;
        inletValue      uniform (3 0 0);
        value           nonuniform List<vector> 
54
(
(1.09692 -0.00230422 0)
(1.09769 -0.00164283 0)
(1.09824 -0.000998528 0)
(1.09862 -0.000519006 0)
(1.09883 -0.000139697 0)
(1.09895 0.000160262 0)
(1.09881 0.000254747 0)
(1.09865 0.000198382 0)
(1.09858 0.000125876 0)
(1.09855 7.40441e-05 0)
(1.09852 3.92092e-05 0)
(1.0985 1.29039e-05 0)
(1.09849 1.04722e-06 0)
(1.09849 2.66848e-08 0)
(1.09849 -1.88778e-10 0)
(1.09849 -8.29863e-10 0)
(1.09849 -2.92979e-11 0)
(1.09849 -6.17167e-13 0)
(1.09849 -8.80448e-14 0)
(1.09849 -1.94711e-14 0)
(1.08427 -0.00361247 0)
(1.0844 -0.00409003 0)
(1.08471 -0.00451805 0)
(1.08513 -0.00491158 0)
(1.08564 -0.00524329 0)
(1.08619 -0.00553331 0)
(1.08679 -0.0057869 0)
(1.08744 -0.00601505 0)
(1.08814 -0.00620616 0)
(1.08891 -0.00637445 0)
(1.08976 -0.00644705 0)
(1.09067 -0.00636876 0)
(1.09161 -0.00607117 0)
(1.09251 -0.00559635 0)
(1.09332 -0.00501457 0)
(1.09404 -0.00445809 0)
(1.09468 -0.00396921 0)
(1.09526 -0.00356021 0)
(1.0958 -0.00318599 0)
(1.09628 -0.00283714 0)
(1.08305 0.00125097 0)
(1.08322 0.000860339 0)
(1.08322 0.00051998 0)
(1.08307 0.000185299 0)
(1.08307 -0.000185299 0)
(1.08322 -0.00051998 0)
(1.08322 -0.000860339 0)
(1.08305 -0.00125097 0)
(1.08316 -0.00159545 0)
(1.0832 -0.00198864 0)
(1.08343 -0.00233482 0)
(1.08377 -0.00260467 0)
(1.084 -0.00289076 0)
(1.08402 -0.00327249 0)
)
;
    }
    triangle
    {
        type            slip;
    }
    top
    {
        type            symmetryPlane;
    }
    bottom
    {
        type            symmetryPlane;
    }
    defaultFaces
    {
        type            empty;
    }
    procBoundary7to2
    {
        type            processor;
        value           nonuniform List<vector> 7((-0.244483 -0.00427873 0) (-0.299372 -0.0203665 0) (-0.314234 -0.00386026 0) (0.132155 -0.0205049 0) (0.132155 -0.0205049 0) (0.160644 -0.0601887 0) (0.228354 -0.106602 0));
    }
    procBoundary7to3
    {
        type            processor;
        value           nonuniform List<vector> 8((0.990065 0.0337187 0) (1.02219 0.0144216 0) (1.05072 0.00631898 0) (1.08316 0.00159545 0) (0.36012 0.13911 0) (0.687005 0.112927 0) (0.905188 0.0544676 0) (0.905188 0.0544676 0));
    }
    procBoundary7to6
    {
        type            processor;
        value           nonuniform List<vector> 
47
(
(0.36012 -0.139109 0)
(0.544164 -0.193144 0)
(0.76587 -0.200985 0)
(0.962156 -0.228488 0)
(1.09442 -0.241834 0)
(1.15713 -0.237582 0)
(1.18611 -0.237857 0)
(1.20797 -0.24643 0)
(1.22796 -0.258723 0)
(1.24332 -0.254626 0)
(1.25888 -0.252825 0)
(1.27779 -0.250015 0)
(1.29743 -0.24834 0)
(1.31097 -0.237708 0)
(1.32039 -0.228787 0)
(1.32517 -0.2249 0)
(1.32912 -0.22573 0)
(1.32466 -0.233973 0)
(1.30766 -0.25345 0)
(1.29952 -0.259168 0)
(1.30002 -0.252966 0)
(1.30092 -0.240686 0)
(1.2952 -0.214303 0)
(1.28532 -0.183454 0)
(1.27616 -0.156699 0)
(1.26381 -0.132663 0)
(1.24923 -0.111677 0)
(1.23464 -0.0874865 0)
(1.20587 -0.0531259 0)
(1.18507 -0.0256197 0)
(1.16186 0.00200709 0)
(1.14536 0.0249783 0)
(1.12761 0.0480238 0)
(1.11203 0.0698488 0)
(1.09676 0.0940679 0)
(1.08682 0.118146 0)
(1.08149 0.12943 0)
(1.07915 0.125522 0)
(1.07675 0.112971 0)
(1.0789 0.0746948 0)
(1.08081 0.0259623 0)
(1.08152 0.00287809 0)
(1.0816 6.11415e-05 0)
(1.0816 2.05452e-09 0)
(1.0816 -1.37689e-07 0)
(1.0816 -9.31971e-08 0)
(1.0816 -5.21445e-08 0)
)
;
    }
}


// ************************************************************************* //
