/*--------------------------------*- C++ -*----------------------------------*\
  =========                 |
  \\      /  F ield         | OpenFOAM: The Open Source CFD Toolbox
   \\    /   O peration     | Website:  https://openfoam.org
    \\  /    A nd           | Version:  7
     \\/     M anipulation  |
\*---------------------------------------------------------------------------*/
FoamFile
{
    version     2.0;
    format      ascii;
    class       volScalarField;
    location    "0.6";
    object      p;
}
// * * * * * * * * * * * * * * * * * * * * * * * * * * * * * * * * * * * * * //

dimensions      [1 -1 -2 0 0 0 0];

internalField   nonuniform List<scalar> 
2600
(
1.04071
1.0738
1.06956
1.42947
2.01979
2.332
2.59567
2.97688
3.32901
3.1884
1.17977
1.14069
1.14562
1.58102
2.1203
2.37763
2.60955
2.98061
3.3348
3.19418
1.14933
1.12437
1.22479
1.70578
2.20691
2.40951
2.58084
2.96459
3.3103
3.19311
1.11364
1.1543
1.31514
1.81238
2.25768
2.38912
2.5602
2.95032
3.28952
3.2038
1.13429
1.19845
1.39845
1.89661
2.27923
2.39873
2.57996
2.95614
3.2674
3.2146
1.1639
1.21548
1.46542
1.95329
2.3294
2.4012
2.57121
2.95379
3.25376
3.21866
1.1669
1.22361
1.49817
1.99305
2.34798
2.40809
2.58096
2.96227
3.24506
3.21826
1.1811
1.222
1.50642
1.99796
2.36107
2.42247
2.59716
2.97548
3.23398
3.21437
1.21351
1.23794
1.52541
2.02142
2.37665
2.42652
2.60635
2.99134
3.23362
3.21663
1.23737
1.23177
1.53281
2.02828
2.3712
2.42799
2.62543
2.99771
3.21989
3.20995
1.23737
1.23176
1.53282
2.02832
2.37045
2.43449
2.60969
2.98977
3.2204
3.21005
1.21352
1.23794
1.52541
2.02147
2.37611
2.42837
2.60212
2.98728
3.23375
3.21685
1.1811
1.22199
1.50642
1.99793
2.36105
2.42291
2.59198
2.97426
3.23339
3.21406
1.16689
1.22359
1.49816
1.993
2.34804
2.4081
2.57913
2.9621
3.24497
3.21817
1.16389
1.21547
1.4654
1.95326
2.32961
2.40087
2.5724
2.95467
3.25392
3.21867
1.13429
1.19844
1.39844
1.89667
2.2792
2.39863
2.58238
2.95713
3.26756
3.21462
1.11364
1.15429
1.31513
1.81241
2.25748
2.38939
2.56175
2.95068
3.28954
3.2038
1.14933
1.12436
1.22478
1.70577
2.20686
2.40973
2.58112
2.96441
3.31017
3.19309
1.1798
1.14068
1.14561
1.58099
2.12039
2.37751
2.60908
2.98036
3.33474
3.19417
1.04076
1.07379
1.06955
1.42944
2.01988
2.33186
2.59516
2.97669
3.32902
3.18841
1.82843
1.10762
0.988968
1.23989
1.88402
2.28556
2.57697
2.97634
3.3112
3.18022
2.58513
1.30361
1.01357
1.08278
1.69041
2.23269
2.57072
2.98118
3.29818
3.17848
3.15713
1.58383
1.07367
1.07497
1.45979
2.1689
2.56198
2.98667
3.29071
3.17858
3.57759
1.88721
1.19686
1.08185
1.22749
2.02402
2.52406
2.9923
3.28088
3.1702
3.92235
2.18896
1.38015
1.11177
1.1051
1.78598
2.46277
3.0012
3.26886
3.15464
4.204
2.46285
1.58275
1.19586
1.08378
1.53516
2.40046
3.01929
3.26241
3.14235
4.4519
2.72895
1.78428
1.30556
1.11978
1.31193
2.27527
3.00803
3.26036
3.13901
4.69264
2.96807
1.98322
1.44767
1.16388
1.18653
2.06683
2.96977
3.25895
3.13963
4.93494
3.20588
2.17309
1.58321
1.26222
1.15994
1.84276
2.9108
3.25113
3.13676
5.17752
3.42049
2.35995
1.72152
1.37469
1.17448
1.64119
2.83263
3.23597
3.13087
5.4075
3.64171
2.53988
1.84313
1.49409
1.20951
1.48484
2.72991
3.21518
3.1185
5.62605
3.84979
2.71182
1.98006
1.61064
1.25778
1.38332
2.58817
3.18718
3.10472
5.83858
4.05445
2.88494
2.10828
1.71741
1.32534
1.37395
2.4026
3.15181
3.08924
6.03939
4.25446
3.05344
2.23089
1.83457
1.38438
1.39448
2.20991
3.09293
3.06567
6.21498
4.44006
3.21867
2.36308
1.9376
1.44156
1.43332
2.0333
3.02075
3.04076
6.34645
4.62436
3.37624
2.49094
2.03805
1.51646
1.48001
1.90046
2.94497
3.0215
6.45994
4.77866
3.53132
2.62044
2.13724
1.60248
1.51045
1.80903
2.84885
2.98981
6.55928
4.92634
3.6781
2.74603
2.23838
1.70239
1.54381
1.749
2.74597
2.94691
6.64242
5.05938
3.81834
2.86934
2.33032
1.80497
1.59063
1.71534
2.63314
2.88463
6.7232
5.18549
3.95354
2.9901
2.42554
1.90825
1.63442
1.72202
2.51163
2.82233
9.49744
9.15843
8.85302
8.56052
8.2986
8.06008
7.84263
7.58354
7.15765
6.83032
8.90002
8.65761
8.43776
8.25338
8.09362
7.92337
7.72323
7.46048
7.00497
6.41727
8.65373
8.52953
8.343
8.19096
8.03085
7.86527
7.68305
7.43535
6.98092
6.47182
8.35556
8.3238
8.1677
8.06567
7.93845
7.8027
7.62152
7.38932
6.93538
6.41986
8.06771
8.14036
8.02808
7.98372
7.88132
7.75762
7.58796
7.37321
6.91812
6.43717
7.77036
7.95667
7.8872
7.89639
7.80996
7.71221
7.5761
7.37745
6.93004
6.49244
7.36569
7.79668
7.80281
7.87389
7.82499
7.75541
7.62308
7.42256
6.97318
6.5694
6.81605
7.63703
7.78714
7.87845
7.88049
7.80895
7.67564
7.49722
7.04767
6.66808
6.06403
7.64279
7.95745
7.96907
8.01317
7.94697
7.7877
7.62641
7.13605
6.77427
4.31664
6.80491
8.1765
8.36266
8.33108
8.24635
7.97939
7.83095
7.27173
6.92696
2.88673
4.63669
7.57081
9.04476
8.69251
8.43968
8.12485
7.93057
7.43478
7.08132
2.10933
2.57012
5.79802
9.52562
9.33208
8.91028
8.41275
8.04682
7.57538
7.1977
1.75181
1.837
2.96231
8.97379
9.7252
9.08823
8.64156
8.29061
7.75236
7.39364
1.5429
1.58889
1.72547
7.19207
9.6663
9.01573
8.61897
8.25036
7.81624
7.44912
1.40907
1.4486
1.48691
4.71544
9.16539
8.851
8.58801
8.27227
7.91091
7.5522
1.3232
1.35384
1.3807
2.16069
8.28289
8.99795
8.62324
8.31529
7.985
7.60857
1.26967
1.29518
1.31996
1.39742
6.17515
8.8182
8.50745
8.27695
7.99123
7.63488
1.23318
1.2577
1.29
1.3232
3.30214
8.26269
8.46761
8.2585
8.00152
7.6817
1.20889
1.23192
1.27055
1.30046
1.63553
6.96383
8.5261
8.26002
8.03155
7.70889
1.19014
1.2118
1.24703
1.28387
1.33557
4.53397
8.15582
8.20287
8.02718
7.75748
1
1
1
1
1
1
0.999997
0.999841
0.994059
3.83024
1
1
1
1
1
1
0.999998
0.999842
0.994324
3.76702
1
1
1
1
1
1
0.999998
0.999841
0.994693
3.65545
1
1
1
1
1
1
1
0.999843
0.995423
3.51107
1
1
1
1
1
1
1
0.999846
0.996117
3.33942
1
1
1
1
1
1
1
0.999852
0.996708
3.15987
1
1
1
1
1
1
1.00001
0.999857
0.997291
2.94557
1
1
1
1
1
1
1.00001
0.999857
0.997879
2.69545
1
1
1
1
1
1
1.00001
0.999853
0.998381
2.39082
1
1
1
1
1
1
1
0.999847
0.998844
2.06354
1
1
1
1
1
1
1
0.999844
0.999228
1.79889
1
1
1
1
1
1
0.999998
0.999849
0.999548
1.58555
1
1
1
1
1
1
0.999996
0.999863
0.999825
1.42578
1
1
1
1
1
1
0.999995
0.999884
1.00007
1.31985
1
1
1
1
1
1
0.999994
0.99991
1.00031
1.24858
1
1
1
1
1
1
0.999993
0.999939
1.00055
1.20095
1
1
1
1
1
1
0.999993
0.999973
1.0008
1.16556
1
1
1
1
1
1
0.999992
1.00002
1.00111
1.13614
1
1
1
1
1
1
0.999993
1.00013
1.00146
1.11782
1
1
1
1
1
1
0.999993
1.00027
1.00184
1.10741
1
1
1
1
1
1
0.999993
1.00027
1.00184
1.10741
1
1
1
1
1
1
0.999993
1.00013
1.00146
1.11782
1
1
1
1
1
1
0.999992
1.00002
1.00111
1.13614
1
1
1
1
1
1
0.999993
0.999973
1.0008
1.16556
1
1
1
1
1
1
0.999993
0.999939
1.00055
1.20094
1
1
1
1
1
1
0.999994
0.99991
1.00031
1.24857
1
1
1
1
1
1
0.999995
0.999884
1.00007
1.31986
1
1
1
1
1
1
0.999996
0.999863
0.999823
1.42585
1
1
1
1
1
1
0.999998
0.999849
0.999551
1.58574
1
1
1
1
1
1
1
0.999844
0.99924
1.79924
1
1
1
1
1
1
1
0.999847
0.998872
2.06403
1
1
1
1
1
1
1.00001
0.999852
0.998429
2.39138
1
1
1
1
1
1
1.00001
0.999855
0.997938
2.69581
1
1
1
1
1
1
1.00001
0.999855
0.997346
2.94572
1
1
1
1
1
1
1
0.999852
0.996773
3.16009
1
1
1
1
1
1
1
0.999847
0.996105
3.3398
1
1
1
1
1
1
1
0.999843
0.995421
3.51173
1
1
1
1
1
1
0.999998
0.999842
0.994685
3.65656
1
1
1
1
1
1
0.999998
0.999841
0.994149
3.76805
1
1
1
1
1
1
0.999997
0.999841
0.993227
3.83093
1.19014
1.2118
1.24703
1.28387
1.33557
4.53394
8.15582
8.20286
8.02718
7.75748
1.20889
1.23192
1.27055
1.30046
1.63551
6.96381
8.52612
8.26001
8.03156
7.70889
1.23318
1.2577
1.29
1.3232
3.30214
8.26276
8.46765
8.25859
8.00155
7.68173
1.26967
1.29518
1.31996
1.39743
6.17528
8.81836
8.5076
8.27707
7.99134
7.63495
1.32319
1.35384
1.38069
2.1609
8.28322
8.99822
8.62352
8.31552
7.98521
7.6087
1.40906
1.44858
1.4869
4.71629
9.16598
8.85144
8.58841
8.27262
7.91122
7.55242
1.5429
1.58887
1.72563
7.19356
9.66707
9.01637
8.61954
8.2509
7.81669
7.44946
1.75191
1.83716
2.96389
8.97545
9.72579
9.08887
8.64224
8.29124
7.75303
7.39413
2.1098
2.57132
5.80077
9.52675
9.33277
8.91094
8.41341
8.04746
7.57599
7.19822
2.88803
4.63936
7.57257
9.0455
8.69303
8.44012
8.12531
7.9311
7.43539
7.0819
4.31876
6.80671
8.17665
8.36263
8.33116
8.24635
7.9795
7.83122
7.27218
6.92747
6.06582
7.6426
7.95698
7.96841
8.0127
7.94662
7.78761
7.62646
7.13619
6.7746
6.81582
7.63641
7.78643
7.87749
7.87968
7.80811
7.67506
7.49694
7.04743
6.66825
7.36441
7.79492
7.80087
7.87177
7.82348
7.75412
7.62221
7.42203
6.97263
6.5694
7.76847
7.95449
7.88518
7.89367
7.80795
7.71035
7.57461
7.37642
6.92929
6.49232
8.06558
8.13772
8.0255
7.98104
7.87903
7.75565
7.58637
7.37184
6.91729
6.43695
8.35227
8.32018
8.16434
8.06253
7.93571
7.80039
7.61969
7.38756
6.93438
6.41955
8.64873
8.52456
8.33891
8.18738
8.02761
7.86247
7.6808
7.43317
6.97962
6.47132
8.89114
8.65038
8.43234
8.24905
8.08998
7.92027
7.72063
7.45808
7.00341
6.41663
9.48855
9.1495
8.84632
8.5556
8.29506
8.05712
7.8399
7.58114
7.15569
6.82944
6.7232
5.18549
3.95354
2.9901
2.42555
1.90825
1.63442
1.72202
2.51163
2.82233
6.64243
5.05938
3.81834
2.86934
2.33032
1.80497
1.59063
1.71534
2.63314
2.88463
6.55928
4.92634
3.6781
2.74603
2.23838
1.70239
1.54381
1.749
2.74597
2.94691
6.45996
4.77865
3.53131
2.62044
2.13724
1.60248
1.51045
1.80903
2.84885
2.98981
6.34649
4.62436
3.37624
2.49094
2.03805
1.51646
1.48001
1.90046
2.94497
3.0215
6.21506
4.44007
3.21867
2.36308
1.9376
1.44156
1.43332
2.0333
3.02075
3.04076
6.0396
4.25449
3.05344
2.23088
1.83457
1.38438
1.39448
2.20991
3.09293
3.06567
5.83884
4.0545
2.88493
2.10827
1.71741
1.32534
1.37395
2.4026
3.15181
3.08924
5.62639
3.84987
2.71182
1.98005
1.61064
1.25778
1.38332
2.58817
3.18718
3.10472
5.40789
3.64182
2.53988
1.84312
1.49409
1.20951
1.48484
2.72991
3.21518
3.1185
5.17791
3.42065
2.35997
1.72151
1.37469
1.17448
1.64119
2.83263
3.23597
3.13087
4.93529
3.20606
2.17312
1.5832
1.26222
1.15994
1.84276
2.9108
3.25113
3.13676
4.69292
2.96826
1.98327
1.44767
1.16388
1.18653
2.06684
2.96977
3.25895
3.13963
4.45209
2.72913
1.78434
1.30555
1.11977
1.31193
2.27528
3.00804
3.26036
3.13901
4.2041
2.463
1.5828
1.19586
1.08378
1.53516
2.40046
3.01929
3.26241
3.14235
3.92236
2.18907
1.3802
1.11177
1.1051
1.78597
2.46276
3.0012
3.26886
3.15464
3.57754
1.88727
1.19689
1.08186
1.22749
2.02401
2.52404
2.99229
3.28088
3.1702
3.15703
1.58387
1.07369
1.07498
1.45981
2.16889
2.56196
2.98665
3.29071
3.17858
2.58502
1.30363
1.01358
1.08279
1.69042
2.2327
2.57073
2.98119
3.29817
3.17848
1.82835
1.10762
0.988985
1.2399
1.88398
2.28563
2.57715
2.97643
3.3112
3.18022
3.34655
3.30166
3.32651
4.00102
5.69712
6.03727
5.65158
4.91851
4.1245
3.22154
3.33788
3.30393
3.40796
4.37049
5.52445
5.77149
5.35224
4.63979
3.97397
3.22138
3.32533
3.3148
3.64292
4.7961
5.38016
5.38771
4.97866
4.33354
3.79185
3.21624
3.30383
3.35003
4.06474
5.11467
5.30381
5.05136
4.57761
3.9722
3.5995
3.2216
3.27686
3.44405
4.5634
5.27145
5.22586
4.82177
4.27658
3.70722
3.45783
3.19039
3.25165
3.64241
5.01888
5.32357
5.09827
4.59734
4.06476
3.54097
3.35805
3.16117
3.23468
3.98917
5.35011
5.32371
4.91674
4.38165
3.88564
3.41944
3.28128
3.12135
3.24383
4.48789
5.52759
5.30381
4.70834
4.16055
3.70192
3.32044
3.21356
3.08412
3.32652
5.0471
5.58473
5.20906
4.50012
3.95023
3.50518
3.20834
3.14892
3.05058
3.59351
5.53297
5.57358
5.08083
4.31241
3.75028
3.30613
3.08328
3.07332
3.01521
4.15014
5.85459
5.57557
4.93506
4.14322
3.5675
3.10916
2.94037
2.98804
2.98057
4.95763
6.03089
5.56197
4.78263
3.98064
3.39314
2.91975
2.78845
2.89499
2.9339
5.87326
6.06958
5.46132
4.61539
3.82164
3.22919
2.74092
2.63153
2.79103
2.87562
6.68684
6.15414
5.30849
4.42963
3.6609
3.07283
2.5753
2.4797
2.67695
2.79919
7.18359
6.18226
5.10919
4.23194
3.49472
2.92012
2.42317
2.33699
2.55303
2.70354
7.28177
6.04295
4.92564
4.03347
3.31995
2.76481
2.28029
2.19935
2.42474
2.60296
7.2314
5.90922
4.76017
3.82346
3.12857
2.60104
2.15014
2.08065
2.30711
2.51962
7.06888
5.76246
4.5872
3.61183
2.93984
2.4321
2.01442
1.95933
2.2216
2.48765
6.93409
5.58371
4.38397
3.39562
2.75385
2.25171
1.87319
1.8554
2.19698
2.51631
6.81947
5.36555
4.14512
3.16701
2.57038
2.06099
1.72389
1.75911
2.29066
2.71847
6.81947
5.36555
4.14512
3.16701
2.57038
2.06099
1.72389
1.75911
2.29066
2.71847
6.93409
5.58371
4.38397
3.39561
2.75385
2.25171
1.87319
1.8554
2.19698
2.51631
7.06888
5.76246
4.58719
3.61182
2.93984
2.4321
2.01442
1.95933
2.2216
2.48765
7.23141
5.90922
4.76017
3.82345
3.12857
2.60104
2.15014
2.08065
2.30711
2.51962
7.28178
6.04295
4.92563
4.03347
3.31994
2.76481
2.28029
2.19935
2.42474
2.60296
7.18361
6.18226
5.10918
4.23193
3.49472
2.92012
2.42317
2.33699
2.55303
2.70354
6.68686
6.15414
5.30848
4.42962
3.6609
3.07283
2.5753
2.4797
2.67695
2.79919
5.87329
6.06957
5.46131
4.61538
3.82163
3.22919
2.74092
2.63153
2.79103
2.87562
4.95765
6.03089
5.56196
4.78262
3.98063
3.39314
2.91975
2.78845
2.89499
2.9339
4.15015
5.85459
5.57556
4.93505
4.14321
3.5675
3.10917
2.94037
2.98804
2.98057
3.59351
5.53298
5.57357
5.08082
4.3124
3.75028
3.30614
3.08328
3.07332
3.01521
3.32652
5.0471
5.58472
5.20905
4.50011
3.95023
3.50518
3.20834
3.14893
3.05058
3.24383
4.48788
5.52759
5.30381
4.70833
4.16054
3.70192
3.32044
3.21356
3.08412
3.23468
3.98916
5.35012
5.3237
4.91672
4.38164
3.88564
3.41944
3.28128
3.12135
3.25164
3.64239
5.0189
5.32357
5.09826
4.59733
4.06475
3.54097
3.35805
3.16117
3.27685
3.44404
4.56342
5.27145
5.22585
4.82176
4.27657
3.70722
3.45783
3.1904
3.30382
3.35002
4.06475
5.11468
5.30381
5.05135
4.5776
3.9722
3.5995
3.22161
3.32531
3.31478
3.64293
4.79612
5.38018
5.3877
4.97865
4.33354
3.79185
3.21624
3.33785
3.30392
3.40797
4.37051
5.52447
5.77149
5.35224
4.63979
3.97397
3.22138
3.34651
3.30165
3.32652
4.00104
5.69715
6.03728
5.65158
4.9185
4.1245
3.22154
1.17517
1.19554
1.22064
1.26321
1.29552
1.90382
6.4914
8.36501
8.10902
7.78769
1.17215
1.1907
1.21582
1.24948
1.29246
1.3468
2.91857
7.46771
8.05136
7.76976
1.17307
1.19116
1.21759
1.24926
1.29448
1.34112
1.51734
4.68019
7.78177
7.84254
1.17508
1.19326
1.21881
1.25067
1.29183
1.34936
1.40606
2.05509
5.86076
7.89484
1.17818
1.19628
1.2211
1.25251
1.29242
1.34853
1.42092
1.51283
3.04044
6.9386
1.18141
1.20007
1.22592
1.25615
1.29715
1.34876
1.42802
1.51941
1.78582
4.73429
1.18309
1.20275
1.22914
1.26155
1.30243
1.35654
1.4285
1.53442
1.68621
2.7595
1.18354
1.20376
1.23009
1.26422
1.30559
1.36311
1.43199
1.54176
1.70531
2.19456
1.18348
1.20399
1.2302
1.26524
1.3082
1.36553
1.43904
1.54267
1.73216
2.21717
1.18364
1.20407
1.23024
1.26507
1.30936
1.3656
1.44362
1.54641
1.74475
2.28984
1.18414
1.20428
1.23061
1.26503
1.30961
1.36563
1.44609
1.54857
1.75126
2.36815
1.18486
1.20471
1.23128
1.26544
1.30941
1.36586
1.44798
1.55092
1.75346
2.43776
1.1857
1.20555
1.23227
1.26637
1.30987
1.36714
1.44908
1.554
1.75185
2.4878
1.1863
1.20618
1.23315
1.26733
1.31055
1.36873
1.45061
1.55723
1.75309
2.51736
1.18656
1.20651
1.23373
1.26812
1.31173
1.37062
1.45227
1.5597
1.75734
2.53315
1.18675
1.20673
1.23412
1.26881
1.31319
1.37273
1.45406
1.56201
1.76185
2.54466
1.18699
1.20706
1.23455
1.26951
1.31476
1.37462
1.45599
1.56439
1.76608
2.55452
1.18731
1.20748
1.23497
1.27009
1.31584
1.37557
1.4574
1.56634
1.7689
2.56222
1.18755
1.20776
1.2352
1.27038
1.3162
1.37587
1.45798
1.56733
1.76994
2.56447
1.18772
1.20793
1.23534
1.27054
1.31627
1.37586
1.45809
1.56778
1.77046
2.56511
1
1
1
1
1
1
0.999994
1.00031
1.00232
1.10313
1
1
1
1
1
1
0.999994
1.00029
1.00289
1.10101
1
1
1
1
1
1
0.999995
1.00022
1.00339
1.10114
1
1
1
1
1
1
0.999996
1.00016
1.00375
1.10288
1
1
1
1
1
1
0.999996
1.00012
1.00404
1.10549
1
1
1
1
1
1
0.999997
1.0001
1.00424
1.10673
1
1
1
1
1
1
0.999998
1.00009
1.00434
1.10734
1
1
1
1
1
1
0.999998
1.00009
1.00437
1.10751
1
1
1
1
1
1
0.999999
1.00008
1.00437
1.10758
1
1
1
1
1
1
0.999999
1.00009
1.00434
1.10783
1
1
1
1
1
1
1
1.00009
1.00429
1.10819
1
1
1
1
1
1
1
1.00009
1.00422
1.10859
1
1
1
1
1
1
1
1.00009
1.00412
1.10901
1
1
1
1
1
1
1
1.00009
1.004
1.10926
1
1
1
1
1
1
1
1.00009
1.0039
1.10936
1
1
1
1
1
1
1
1.00009
1.00382
1.10944
1
1
1
1
1
1
1
1.00008
1.00379
1.10963
1
1
1
1
1
1
1
1.00008
1.00378
1.10987
1
1
1
1
1
1
1
1.00008
1.00377
1.10999
1
1
1
1
1
1
1
1.00007
1.00377
1.1101
1
1
1
1
1
1
1
1.00007
1.00377
1.1101
1
1
1
1
1
1
1
1.00008
1.00377
1.10999
1
1
1
1
1
1
1
1.00008
1.00378
1.10987
1
1
1
1
1
1
1
1.00008
1.00379
1.10963
1
1
1
1
1
1
1
1.00009
1.00382
1.10944
1
1
1
1
1
1
1
1.00009
1.0039
1.10935
1
1
1
1
1
1
1
1.00009
1.004
1.10926
1
1
1
1
1
1
1
1.00009
1.00412
1.10901
1
1
1
1
1
1
1
1.00009
1.00422
1.10859
1
1
1
1
1
1
1
1.00009
1.00429
1.10819
1
1
1
1
1
1
0.999999
1.00009
1.00434
1.10783
1
1
1
1
1
1
0.999999
1.00008
1.00437
1.10758
1
1
1
1
1
1
0.999998
1.00009
1.00437
1.10751
1
1
1
1
1
1
0.999998
1.00009
1.00434
1.10734
1
1
1
1
1
1
0.999997
1.0001
1.00424
1.10673
1
1
1
1
1
1
0.999996
1.00012
1.00404
1.10549
1
1
1
1
1
1
0.999996
1.00016
1.00375
1.10288
1
1
1
1
1
1
0.999995
1.00022
1.00339
1.10114
1
1
1
1
1
1
0.999994
1.00029
1.00289
1.10101
1
1
1
1
1
1
0.999994
1.00031
1.00232
1.10313
1.18772
1.20793
1.23533
1.27053
1.31627
1.37586
1.45809
1.56777
1.77045
2.56506
1.18755
1.20776
1.2352
1.27038
1.3162
1.37587
1.45798
1.56732
1.76993
2.56442
1.18731
1.20747
1.23497
1.27009
1.31583
1.37557
1.4574
1.56634
1.76888
2.56216
1.18699
1.20706
1.23455
1.26951
1.31475
1.37461
1.45599
1.56439
1.76606
2.55447
1.18675
1.20673
1.23412
1.26881
1.31318
1.37272
1.45406
1.56201
1.76183
2.54462
1.18656
1.20651
1.23373
1.26812
1.31173
1.37062
1.45226
1.55969
1.75732
2.5331
1.1863
1.20618
1.23315
1.26733
1.31055
1.36873
1.45061
1.55723
1.75308
2.51731
1.1857
1.20555
1.23227
1.26637
1.30987
1.36714
1.44907
1.554
1.75184
2.48776
1.18486
1.20471
1.23128
1.26544
1.30941
1.36586
1.44798
1.55092
1.75345
2.43772
1.18414
1.20428
1.23061
1.26503
1.30961
1.36563
1.44608
1.54857
1.75125
2.36812
1.18364
1.20407
1.23024
1.26507
1.30936
1.3656
1.44362
1.5464
1.74474
2.28982
1.18348
1.20399
1.2302
1.26524
1.3082
1.36553
1.43904
1.54267
1.73215
2.21715
1.18354
1.20376
1.23009
1.26422
1.30559
1.36311
1.43199
1.54175
1.70531
2.19455
1.18309
1.20275
1.22914
1.26155
1.30243
1.35654
1.4285
1.53442
1.68621
2.75949
1.18141
1.20007
1.22592
1.25615
1.29715
1.34876
1.42802
1.51941
1.78582
4.73428
1.17818
1.19628
1.2211
1.25251
1.29242
1.34853
1.42092
1.51283
3.04043
6.93859
1.17508
1.19326
1.21881
1.25067
1.29183
1.34936
1.40606
2.05508
5.86076
7.89483
1.17307
1.19116
1.21758
1.24926
1.29448
1.34112
1.51734
4.68019
7.78177
7.84254
1.17215
1.1907
1.21582
1.24948
1.29246
1.3468
2.91857
7.46771
8.05136
7.76976
1.17517
1.19554
1.22064
1.26321
1.29552
1.90381
6.49139
8.36501
8.10902
7.7877
)
;

boundaryField
{
    inlet
    {
        type            fixedValue;
        value           uniform 1;
    }
    outlet
    {
        type            zeroGradient;
    }
    triangle
    {
        type            zeroGradient;
    }
    top
    {
        type            symmetryPlane;
    }
    bottom
    {
        type            symmetryPlane;
    }
    defaultFaces
    {
        type            empty;
    }
}


// ************************************************************************* //
