/*--------------------------------*- C++ -*----------------------------------*\
  =========                 |
  \\      /  F ield         | OpenFOAM: The Open Source CFD Toolbox
   \\    /   O peration     | Website:  https://openfoam.org
    \\  /    A nd           | Version:  7
     \\/     M anipulation  |
\*---------------------------------------------------------------------------*/
FoamFile
{
    version     2.0;
    format      ascii;
    class       volScalarField;
    location    "0.6";
    object      rho;
}
// * * * * * * * * * * * * * * * * * * * * * * * * * * * * * * * * * * * * * //

dimensions      [1 -3 0 0 0 0 0];

internalField   nonuniform List<scalar> 
2600
(
0.95754
1.07977
1.19464
1.52604
1.99503
2.22811
2.41289
2.6738
2.95947
2.90357
1.05591
1.08418
1.207
1.59438
2.011
2.21019
2.38474
2.65409
2.94304
2.89439
1.05099
1.05079
1.20642
1.61653
2.00124
2.15802
2.29685
2.59301
2.88684
2.87191
1.04783
1.05368
1.21447
1.61471
1.95283
2.04521
2.17841
2.49715
2.80671
2.85349
1.08347
1.07566
1.22935
1.59671
1.86735
1.93551
2.07155
2.39646
2.71906
2.84278
1.12993
1.09943
1.24113
1.55399
1.78714
1.83684
1.98041
2.31806
2.66174
2.83976
1.15026
1.11961
1.23202
1.49824
1.71269
1.7851
1.95524
2.29659
2.64169
2.84369
1.16869
1.12254
1.21329
1.45351
1.6876
1.78092
1.9706
2.31383
2.64223
2.85382
1.19424
1.13064
1.2152
1.4596
1.69883
1.79245
1.99619
2.34778
2.65883
2.87013
1.21077
1.12407
1.21903
1.4679
1.70177
1.80309
2.0224
2.36848
2.66178
2.87309
1.21077
1.12407
1.21904
1.46792
1.70142
1.80654
2.01377
2.364
2.66208
2.87313
1.19424
1.13064
1.2152
1.45962
1.69856
1.79342
1.99383
2.34551
2.65892
2.87026
1.16869
1.12253
1.21329
1.4535
1.68756
1.78112
1.96781
2.31319
2.64188
2.85364
1.15026
1.11959
1.23201
1.49822
1.71271
1.78508
1.95434
2.29656
2.64164
2.84364
1.12992
1.09942
1.24112
1.55397
1.78724
1.83667
1.98107
2.31855
2.66185
2.83977
1.08347
1.07566
1.22934
1.59675
1.86732
1.93548
2.07283
2.397
2.71917
2.8428
1.04783
1.05368
1.21447
1.61473
1.9527
2.04538
2.1793
2.49736
2.80671
2.8535
1.051
1.05079
1.20641
1.61653
2.0012
2.15816
2.29704
2.59291
2.88676
2.87189
1.05593
1.08418
1.20699
1.59436
2.01106
2.21012
2.38446
2.65393
2.94301
2.89438
0.957576
1.07977
1.19463
1.52602
1.99509
2.22802
2.41257
2.67368
2.95947
2.90357
1.51048
1.16355
1.15564
1.40561
1.93913
2.23251
2.41996
2.68251
2.95952
2.90579
2.1101
1.37532
1.19387
1.30551
1.82417
2.22237
2.42491
2.69146
2.9605
2.9106
2.57124
1.63456
1.2675
1.32359
1.65833
2.1891
2.42073
2.70048
2.96406
2.91597
2.91744
1.89917
1.39837
1.3473
1.47194
2.08376
2.39051
2.70886
2.96528
2.91595
3.20655
2.15929
1.5795
1.38763
1.36947
1.90929
2.34196
2.71846
2.96323
2.91137
3.45166
2.39512
1.76859
1.46963
1.35114
1.72381
2.29623
2.73229
2.96315
2.90848
3.66938
2.6203
1.9494
1.5723
1.38686
1.5448
2.21431
2.7285
2.96803
2.91101
3.87281
2.8192
2.12138
1.69909
1.43173
1.43708
2.08652
2.71156
2.97813
2.9167
4.06715
3.00824
2.2799
1.81558
1.52371
1.41117
1.94941
2.6792
2.98691
2.92155
4.24851
3.17192
2.42903
1.92991
1.6218
1.42305
1.80531
2.62333
2.9897
2.92528
4.40831
3.33075
2.5666
2.027
1.72133
1.45207
1.6797
2.54442
2.98493
2.92441
4.5504
3.47335
2.69243
2.13263
1.81575
1.49103
1.59405
2.45047
2.97074
2.92196
4.67674
3.60747
2.81462
2.22833
1.89983
1.54359
1.58529
2.34709
2.95006
2.91808
4.78315
3.73268
2.92938
2.31732
1.99013
1.58653
1.60475
2.23909
2.91524
2.90783
4.86593
3.84307
3.03848
2.41128
2.0675
1.62751
1.64195
2.12542
2.87111
2.89373
4.91836
3.94852
3.13967
2.50027
2.14123
1.68608
1.68334
2.02895
2.82271
2.87979
4.95847
4.0332
3.23732
2.58902
2.21249
1.75735
1.70763
1.9577
2.75852
2.8559
4.99158
4.11314
3.32856
2.67396
2.28414
1.83987
1.73242
1.90916
2.68841
2.82517
5.01886
4.18466
3.41514
2.75641
2.34853
1.92178
1.7681
1.88176
2.61069
2.7833
5.05003
4.2535
3.49862
2.8364
2.41491
2.00143
1.80121
1.88662
2.52601
2.74292
4.56882
4.48476
4.44624
4.43455
4.4501
4.48896
4.54022
4.56639
4.50554
4.34782
4.41065
4.3549
4.33797
4.3547
4.40038
4.46018
4.51316
4.52784
4.44388
4.22482
4.41768
4.40024
4.3858
4.40505
4.44309
4.49901
4.55423
4.56505
4.47215
4.34144
4.4069
4.42377
4.41207
4.4426
4.48944
4.55534
4.60877
4.62106
4.52143
4.40899
4.39539
4.459
4.45627
4.50319
4.55615
4.62532
4.68408
4.70647
4.60587
4.51531
4.38652
4.50229
4.51011
4.57486
4.6277
4.70213
4.77389
4.80685
4.71181
4.64104
4.3737
4.5785
4.61466
4.70061
4.75857
4.83494
4.90163
4.93177
4.83478
4.77354
4.359
4.71362
4.80743
4.88515
4.94701
5.00399
5.05401
5.08271
4.97659
4.9116
4.30689
5.00864
5.13939
5.15945
5.21762
5.24956
5.26066
5.2753
5.12924
5.04452
3.63522
4.92659
5.52218
5.60248
5.59994
5.59439
5.52122
5.51202
5.29849
5.18608
2.87522
3.95797
5.47583
6.14864
5.97183
5.85956
5.72555
5.66249
5.44929
5.30728
2.3498
2.69064
4.63418
6.48467
6.38097
6.16785
5.92663
5.76438
5.55252
5.39011
2.0672
2.1381
2.94877
6.16284
6.55008
6.23989
6.03281
5.8839
5.6428
5.48998
1.8909
1.93081
2.04403
4.94607
6.34368
6.08154
5.94415
5.81296
5.64262
5.49103
1.77535
1.81038
1.84317
3.6388
5.90085
5.8424
5.8234
5.75689
5.64674
5.51254
1.69992
1.7274
1.75113
2.29642
5.37537
5.86309
5.75622
5.70229
5.62754
5.50288
1.65236
1.6754
1.69783
1.76342
4.22543
5.69244
5.61844
5.61263
5.57382
5.47689
1.61949
1.64188
1.67134
1.70058
2.8986
5.36393
5.5653
5.5553
5.53195
5.46522
1.59733
1.6185
1.65387
1.68103
1.94788
4.6677
5.60069
5.53336
5.51814
5.45324
1.57991
1.5999
1.63232
1.666
1.71153
3.47873
5.36046
5.49105
5.50183
5.46262
1.40001
1.40001
1.40001
1.40001
1.40001
1.4
1.4
1.39985
1.39337
2.65662
1.40001
1.40001
1.40001
1.40001
1.40001
1.4
1.4
1.39985
1.39368
2.64674
1.40001
1.40001
1.40001
1.40001
1.40001
1.4
1.4
1.39985
1.39413
2.63523
1.40001
1.40001
1.40001
1.40001
1.40001
1.4
1.4
1.39985
1.395
2.61426
1.40001
1.40001
1.40001
1.40001
1.40001
1.4
1.40001
1.39985
1.39586
2.57618
1.40001
1.40001
1.40001
1.40001
1.40001
1.4
1.40001
1.39986
1.3966
2.5313
1.40001
1.40001
1.40001
1.40001
1.40001
1.4
1.40001
1.39986
1.39726
2.47663
1.40001
1.40001
1.40001
1.40001
1.40001
1.4
1.40001
1.39986
1.39787
2.42662
1.40001
1.40001
1.40001
1.40001
1.40001
1.4
1.40001
1.39986
1.39837
2.36013
1.40001
1.40001
1.40001
1.40001
1.40001
1.4
1.40001
1.39985
1.39883
2.2361
1.40001
1.40001
1.40001
1.40001
1.40001
1.40001
1.4
1.39985
1.39921
2.08819
1.40001
1.40001
1.40001
1.40001
1.40001
1.40001
1.4
1.39985
1.39954
1.92955
1.40001
1.40001
1.40001
1.40001
1.40001
1.40001
1.4
1.39987
1.39982
1.7932
1.40001
1.40001
1.40001
1.40001
1.40001
1.40001
1.4
1.39989
1.40006
1.6981
1.40001
1.40001
1.40001
1.40001
1.40001
1.40001
1.4
1.39991
1.40031
1.63345
1.40001
1.40001
1.40001
1.40001
1.40001
1.40001
1.4
1.39994
1.40055
1.59012
1.40001
1.40001
1.40001
1.40001
1.40001
1.40001
1.4
1.39998
1.4008
1.55763
1.40001
1.40001
1.40001
1.40001
1.40001
1.40001
1.4
1.40003
1.40111
1.53017
1.40001
1.40001
1.40001
1.40001
1.40001
1.40001
1.4
1.40013
1.40146
1.51289
1.40001
1.40001
1.40001
1.40001
1.40001
1.40001
1.4
1.40027
1.40184
1.50296
1.40001
1.40001
1.40001
1.40001
1.40001
1.40001
1.4
1.40027
1.40184
1.50296
1.40001
1.40001
1.40001
1.40001
1.40001
1.40001
1.4
1.40013
1.40146
1.51289
1.40001
1.40001
1.40001
1.40001
1.40001
1.40001
1.4
1.40003
1.40111
1.53017
1.40001
1.40001
1.40001
1.40001
1.40001
1.40001
1.4
1.39998
1.4008
1.55762
1.40001
1.40001
1.40001
1.40001
1.40001
1.40001
1.4
1.39994
1.40055
1.59012
1.40001
1.40001
1.40001
1.40001
1.40001
1.40001
1.4
1.39991
1.40031
1.63345
1.40001
1.40001
1.40001
1.40001
1.40001
1.40001
1.4
1.39989
1.40006
1.6981
1.40001
1.40001
1.40001
1.40001
1.40001
1.40001
1.4
1.39987
1.39982
1.79326
1.40001
1.40001
1.40001
1.40001
1.40001
1.40001
1.4
1.39985
1.39954
1.92971
1.40001
1.40001
1.40001
1.40001
1.40001
1.40001
1.4
1.39985
1.39923
2.08847
1.40001
1.40001
1.40001
1.40001
1.40001
1.4
1.40001
1.39985
1.39885
2.23644
1.40001
1.40001
1.40001
1.40001
1.40001
1.4
1.40001
1.39986
1.39841
2.36049
1.40001
1.40001
1.40001
1.40001
1.40001
1.4
1.40001
1.39986
1.39792
2.42686
1.40001
1.40001
1.40001
1.40001
1.40001
1.4
1.40001
1.39986
1.39731
2.47674
1.40001
1.40001
1.40001
1.40001
1.40001
1.4
1.40001
1.39986
1.39667
2.53131
1.40001
1.40001
1.40001
1.40001
1.40001
1.4
1.40001
1.39985
1.39587
2.57604
1.40001
1.40001
1.40001
1.40001
1.40001
1.4
1.4
1.39985
1.39501
2.61404
1.40001
1.40001
1.40001
1.40001
1.40001
1.4
1.4
1.39985
1.39413
2.63517
1.40001
1.40001
1.40001
1.40001
1.40001
1.4
1.4
1.39985
1.39348
2.64682
1.40001
1.40001
1.40001
1.40001
1.40001
1.4
1.4
1.39985
1.39251
2.65683
1.57991
1.5999
1.63232
1.666
1.71153
3.47871
5.36046
5.49105
5.50182
5.46262
1.59733
1.6185
1.65387
1.68103
1.94788
4.66768
5.60069
5.53335
5.51815
5.45324
1.61949
1.64188
1.67134
1.70058
2.8986
5.36396
5.56532
5.55534
5.53196
5.46524
1.65236
1.6754
1.69783
1.76342
4.22548
5.69251
5.61851
5.61269
5.57387
5.47693
1.69992
1.72739
1.75112
2.29653
5.37551
5.86322
5.75636
5.70241
5.62766
5.50297
1.77534
1.81037
1.84315
3.63918
5.90113
5.84262
5.82362
5.75709
5.64691
5.51267
1.8909
1.9308
2.04416
4.94679
6.34407
6.08187
5.94444
5.81324
5.64285
5.49121
2.06728
2.13822
2.94979
6.16362
6.55034
6.24018
6.03314
5.88421
5.64313
5.49023
2.35015
2.69147
4.63562
6.4851
6.3812
6.16811
5.92691
5.76467
5.55282
5.39036
2.87606
3.95944
5.4765
6.14883
5.97194
5.85966
5.7257
5.66271
5.44958
5.30758
3.63636
4.92735
5.52209
5.60237
5.59988
5.59428
5.52117
5.51209
5.29869
5.18634
4.30773
5.0085
5.13923
5.1592
5.21741
5.24936
5.26056
5.27528
5.12927
5.04467
4.35897
4.71352
4.80732
4.88493
4.94685
5.00375
5.0538
5.08259
4.97644
4.91166
4.37328
4.57798
4.61409
4.70002
4.75828
4.83469
4.90142
4.93159
4.83449
4.7735
4.38566
4.50135
4.50936
4.57399
4.62723
4.70167
4.77344
4.80645
4.71142
4.64093
4.39398
4.45742
4.45491
4.50202
4.55529
4.62461
4.68345
4.70584
4.60539
4.51513
4.40461
4.42139
4.40994
4.4407
4.48785
4.55403
4.60775
4.62012
4.52081
4.40873
4.41475
4.39726
4.38309
4.40246
4.4407
4.49697
4.55271
4.56383
4.47138
4.34107
4.4068
4.35143
4.33484
4.35165
4.39749
4.45771
4.51133
4.52652
4.44305
4.22438
4.56537
4.48098
4.44281
4.4313
4.44714
4.48644
4.5383
4.5651
4.5046
4.34725
5.05003
4.2535
3.49862
2.8364
2.41491
2.00143
1.80121
1.88661
2.52601
2.74292
5.01886
4.18466
3.41514
2.75641
2.34853
1.92178
1.7681
1.88176
2.61069
2.7833
4.99159
4.11314
3.32856
2.67396
2.28414
1.83987
1.73242
1.90916
2.68841
2.82517
4.95848
4.0332
3.23732
2.58902
2.21249
1.75735
1.70763
1.9577
2.75852
2.8559
4.91839
3.94852
3.13966
2.50027
2.14123
1.68608
1.68334
2.02895
2.82271
2.87979
4.86598
3.84308
3.03848
2.41128
2.0675
1.62751
1.64195
2.12542
2.87111
2.89373
4.78327
3.7327
2.92938
2.31732
1.99013
1.58653
1.60475
2.23909
2.91524
2.90783
4.67689
3.6075
2.81461
2.22833
1.89983
1.54359
1.58529
2.34709
2.95006
2.91808
4.55059
3.4734
2.69243
2.13262
1.81575
1.49103
1.59405
2.45047
2.97074
2.92196
4.40853
3.33083
2.5666
2.02699
1.72133
1.45207
1.6797
2.54442
2.98493
2.92441
4.24873
3.17202
2.42904
1.9299
1.6218
1.42305
1.80531
2.62333
2.9897
2.92528
4.06734
3.00836
2.27993
1.81558
1.5237
1.41117
1.94941
2.6792
2.98691
2.92155
3.87295
2.81932
2.12141
1.69909
1.43173
1.43707
2.08652
2.71156
2.97813
2.9167
3.66946
2.62041
1.94945
1.5723
1.38685
1.5448
2.21431
2.7285
2.96803
2.91101
3.45168
2.39521
1.76864
1.46963
1.35114
1.72381
2.29623
2.73229
2.96315
2.90848
3.20652
2.15935
1.57954
1.38763
1.36946
1.90929
2.34195
2.71846
2.96323
2.91137
2.91737
1.8992
1.3984
1.3473
1.47194
2.08375
2.3905
2.70886
2.96528
2.91595
2.57115
1.63458
1.26751
1.32361
1.65834
2.18909
2.42072
2.70047
2.96406
2.91597
2.11001
1.37533
1.19388
1.30551
1.82418
2.22239
2.42492
2.69146
2.96049
2.9106
1.51042
1.16354
1.15565
1.40562
1.9391
2.23255
2.42008
2.68256
2.95952
2.90579
3.2389
3.17871
3.17396
3.57368
4.49914
4.6593
4.44829
4.04402
3.60599
3.03325
3.23389
3.18031
3.22848
3.80219
4.39976
4.51088
4.27742
3.87919
3.51193
3.03419
3.22701
3.18857
3.38213
4.05705
4.3101
4.29558
4.05956
3.69336
3.39628
3.03168
3.2146
3.21444
3.65053
4.23293
4.2616
4.10191
3.82195
3.46898
3.27206
3.03595
3.19647
3.28063
3.96062
4.2986
4.22743
3.96726
3.63889
3.29883
3.17857
3.01572
3.17932
3.4137
4.22965
4.31624
4.15771
3.83484
3.50776
3.18866
3.11126
2.99678
3.16931
3.63896
4.39642
4.31996
4.04623
3.703
3.39381
3.10746
3.059
2.97036
3.17874
3.95646
4.46816
4.3087
3.91743
3.5655
3.27357
3.04236
3.01382
2.94463
3.24146
4.30196
4.48621
4.24086
3.78396
3.43177
3.14175
2.97041
2.97199
2.92013
3.43219
4.56464
4.4767
4.15127
3.65801
3.30051
3.00572
2.89193
2.92309
2.8924
3.80457
4.68916
4.48078
4.05305
3.54236
3.17746
2.86943
2.80074
2.86638
2.86412
4.28286
4.74915
4.45228
3.95019
3.43317
3.05878
2.73726
2.69889
2.80189
2.82863
4.76084
4.76229
4.3803
3.83875
3.32664
2.94558
2.61091
2.5875
2.72941
2.78602
5.17023
4.83737
4.2954
3.72432
3.22182
2.8364
2.49191
2.47674
2.64832
2.73137
5.41826
4.85821
4.19078
3.61049
3.11739
2.72961
2.3811
2.37057
2.55867
2.66359
5.43769
4.78211
4.09039
3.49381
3.00757
2.6209
2.27665
2.2669
2.4646
2.59226
5.37122
4.70122
3.99421
3.36569
2.88507
2.50569
2.18134
2.17614
2.37743
2.5333
5.25834
4.60481
3.88936
3.23457
2.76224
2.38562
2.08184
2.08225
2.31407
2.51086
5.16795
4.48924
3.76464
3.09888
2.6391
2.25588
1.97814
1.99927
2.29662
2.53116
5.09718
4.35739
3.61747
2.95235
2.51505
2.11617
1.86791
1.91885
2.36602
2.6735
5.09718
4.35739
3.61747
2.95235
2.51505
2.11617
1.86791
1.91885
2.36602
2.6735
5.16796
4.48924
3.76464
3.09888
2.6391
2.25588
1.97814
1.99927
2.29662
2.53116
5.25834
4.60481
3.88936
3.23457
2.76224
2.38562
2.08184
2.08225
2.31408
2.51086
5.37123
4.70122
3.99421
3.36569
2.88507
2.50569
2.18134
2.17614
2.37743
2.5333
5.43769
4.78211
4.09038
3.49381
3.00757
2.6209
2.27665
2.2669
2.4646
2.59226
5.41826
4.85821
4.19077
3.61049
3.11739
2.72961
2.3811
2.37058
2.55867
2.66359
5.17025
4.83736
4.29539
3.72432
3.22182
2.8364
2.49191
2.47674
2.64832
2.73137
4.76086
4.76229
4.38029
3.83874
3.32663
2.94558
2.61091
2.5875
2.72941
2.78602
4.28287
4.74915
4.45227
3.95019
3.43317
3.05879
2.73727
2.6989
2.80189
2.82863
3.80458
4.68916
4.48077
4.05305
3.54236
3.17746
2.86944
2.80074
2.86638
2.86412
3.43219
4.56465
4.4767
4.15126
3.658
3.3005
3.00572
2.89193
2.92309
2.8924
3.24146
4.30196
4.48621
4.24086
3.78395
3.43177
3.14175
2.97041
2.97199
2.92013
3.17874
3.95645
4.46816
4.3087
3.91743
3.5655
3.27357
3.04236
3.01382
2.94463
3.16931
3.63895
4.39643
4.31996
4.04622
3.703
3.39381
3.10746
3.059
2.97036
3.17932
3.41369
4.22966
4.31623
4.15771
3.83483
3.50776
3.18866
3.11126
2.99678
3.19646
3.28062
3.96063
4.2986
4.22742
3.96725
3.63889
3.29883
3.17857
3.01572
3.21459
3.21444
3.65055
4.23294
4.26159
4.1019
3.82194
3.46898
3.27206
3.03595
3.227
3.18856
3.38214
4.05706
4.3101
4.29557
4.05955
3.69336
3.39628
3.03168
3.23387
3.18031
3.22849
3.80221
4.39977
4.51087
4.27742
3.87918
3.51193
3.03419
3.23888
3.17871
3.17396
3.5737
4.49914
4.6593
4.44828
4.04402
3.60599
3.03326
1.56582
1.58466
1.60777
1.64673
1.67621
2.10883
4.52138
5.59143
5.53591
5.47135
1.56299
1.58013
1.60327
1.63408
1.67327
1.72115
2.73751
5.10729
5.54376
5.47627
1.56392
1.58063
1.60498
1.63399
1.67501
1.71731
1.86228
3.70071
5.38146
5.51503
1.56589
1.58268
1.60621
1.63535
1.67273
1.72437
1.77514
2.25598
4.41194
5.59036
1.56883
1.58553
1.60836
1.63708
1.67329
1.72375
1.78798
1.86776
2.90411
5.12913
1.57188
1.58909
1.61287
1.64045
1.67763
1.724
1.79426
1.87426
2.09492
3.95789
1.57345
1.5916
1.61587
1.64546
1.68247
1.73104
1.79477
1.88707
2.0181
2.82371
1.57385
1.59252
1.61671
1.64789
1.68534
1.73694
1.79781
1.89354
2.03329
2.43729
1.57375
1.59268
1.61676
1.64876
1.68765
1.73904
1.80397
1.89427
2.05635
2.4506
1.57382
1.59266
1.61669
1.64849
1.68856
1.73894
1.80787
1.89727
2.06738
2.50009
1.57417
1.59274
1.6169
1.6483
1.68862
1.73877
1.80982
1.89883
2.07261
2.55506
1.57475
1.59303
1.61739
1.64852
1.68827
1.73878
1.81127
1.90057
2.07396
2.60577
1.57547
1.59373
1.61822
1.64928
1.68858
1.73981
1.81209
1.90304
2.0723
2.64306
1.57599
1.59429
1.619
1.65012
1.68914
1.74118
1.81338
1.90577
2.07322
2.66569
1.57624
1.59458
1.61953
1.65085
1.69022
1.74288
1.81484
1.90793
2.07678
2.67822
1.57642
1.5948
1.61991
1.6515
1.69157
1.74481
1.81646
1.90999
2.08065
2.68713
1.57666
1.59512
1.62032
1.65217
1.69303
1.74654
1.81822
1.9121
2.08429
2.69449
1.57697
1.59552
1.62073
1.65272
1.69403
1.74742
1.81948
1.91381
2.08669
2.70038
1.5772
1.59579
1.62095
1.65298
1.69437
1.74769
1.82
1.91467
2.08757
2.70232
1.57736
1.59595
1.62107
1.65313
1.69444
1.74769
1.8201
1.91506
2.088
2.70297
1.40001
1.40001
1.40001
1.40001
1.40001
1.40001
1.4
1.40032
1.40233
1.49885
1.40001
1.40001
1.40001
1.40001
1.40001
1.40001
1.4
1.4003
1.4029
1.49682
1.40001
1.40001
1.40001
1.40001
1.40001
1.40001
1.4
1.40023
1.40339
1.49698
1.40001
1.40001
1.40001
1.40001
1.40001
1.4
1.4
1.40017
1.40375
1.49871
1.40001
1.40001
1.40001
1.40001
1.40001
1.4
1.4
1.40013
1.40404
1.50124
1.40001
1.40001
1.40001
1.40001
1.40001
1.4
1.4
1.40011
1.40425
1.50244
1.40001
1.40001
1.40001
1.40001
1.40001
1.4
1.4
1.4001
1.40434
1.50302
1.40001
1.40001
1.40001
1.40001
1.40001
1.4
1.4
1.40009
1.40437
1.50317
1.40001
1.40001
1.40001
1.40001
1.40001
1.4
1.4
1.40009
1.40437
1.50321
1.40001
1.40001
1.40001
1.40001
1.40001
1.4
1.4
1.40009
1.40435
1.5034
1.40001
1.40001
1.40001
1.40001
1.40001
1.4
1.4
1.40009
1.4043
1.50368
1.40001
1.40001
1.40001
1.40001
1.40001
1.40001
1.40001
1.40009
1.40422
1.50401
1.40001
1.40001
1.40001
1.40001
1.40001
1.40001
1.40001
1.40009
1.40412
1.50437
1.40001
1.40001
1.40001
1.40001
1.40001
1.40001
1.40001
1.40009
1.404
1.50459
1.40001
1.40001
1.40001
1.40001
1.40001
1.40001
1.40001
1.40009
1.4039
1.50468
1.40001
1.40001
1.40001
1.40001
1.40001
1.40001
1.40001
1.40009
1.40382
1.50477
1.40001
1.40001
1.40001
1.40001
1.40001
1.40001
1.40001
1.40009
1.40379
1.50495
1.40001
1.40001
1.40001
1.40001
1.40001
1.40001
1.40001
1.40009
1.40378
1.50519
1.40001
1.40001
1.40001
1.40001
1.40001
1.40001
1.40001
1.40008
1.40378
1.50531
1.40001
1.40001
1.40001
1.40001
1.40001
1.40001
1.40001
1.40008
1.40377
1.50542
1.40001
1.40001
1.40001
1.40001
1.40001
1.40001
1.40001
1.40008
1.40377
1.50542
1.40001
1.40001
1.40001
1.40001
1.40001
1.40001
1.40001
1.40008
1.40378
1.50531
1.40001
1.40001
1.40001
1.40001
1.40001
1.40001
1.40001
1.40009
1.40378
1.50519
1.40001
1.40001
1.40001
1.40001
1.40001
1.40001
1.40001
1.40009
1.40379
1.50495
1.40001
1.40001
1.40001
1.40001
1.40001
1.40001
1.40001
1.40009
1.40382
1.50477
1.40001
1.40001
1.40001
1.40001
1.40001
1.40001
1.40001
1.40009
1.4039
1.50468
1.40001
1.40001
1.40001
1.40001
1.40001
1.40001
1.40001
1.40009
1.404
1.50459
1.40001
1.40001
1.40001
1.40001
1.40001
1.40001
1.40001
1.40009
1.40412
1.50437
1.40001
1.40001
1.40001
1.40001
1.40001
1.40001
1.40001
1.40009
1.40422
1.50401
1.40001
1.40001
1.40001
1.40001
1.40001
1.4
1.4
1.40009
1.4043
1.50368
1.40001
1.40001
1.40001
1.40001
1.40001
1.4
1.4
1.40009
1.40435
1.5034
1.40001
1.40001
1.40001
1.40001
1.40001
1.4
1.4
1.40009
1.40437
1.50321
1.40001
1.40001
1.40001
1.40001
1.40001
1.4
1.4
1.40009
1.40437
1.50317
1.40001
1.40001
1.40001
1.40001
1.40001
1.4
1.4
1.4001
1.40434
1.50302
1.40001
1.40001
1.40001
1.40001
1.40001
1.4
1.4
1.40011
1.40425
1.50244
1.40001
1.40001
1.40001
1.40001
1.40001
1.4
1.4
1.40013
1.40404
1.50124
1.40001
1.40001
1.40001
1.40001
1.40001
1.4
1.4
1.40017
1.40375
1.49871
1.40001
1.40001
1.40001
1.40001
1.40001
1.40001
1.4
1.40023
1.40339
1.49698
1.40001
1.40001
1.40001
1.40001
1.40001
1.40001
1.4
1.4003
1.4029
1.49682
1.40001
1.40001
1.40001
1.40001
1.40001
1.40001
1.4
1.40032
1.40233
1.49885
1.57735
1.59595
1.62107
1.65313
1.69444
1.74769
1.8201
1.91506
2.08799
2.70293
1.5772
1.59579
1.62095
1.65298
1.69437
1.7477
1.82
1.91467
2.08756
2.70228
1.57697
1.59552
1.62073
1.65271
1.69403
1.74742
1.81948
1.91381
2.08668
2.70034
1.57666
1.59512
1.62032
1.65216
1.69303
1.74654
1.81821
1.9121
2.08427
2.69445
1.57642
1.5948
1.61991
1.6515
1.69157
1.7448
1.81646
1.90998
2.08064
2.68709
1.57623
1.59458
1.61953
1.65085
1.69022
1.74288
1.81484
1.90792
2.07677
2.67819
1.57599
1.59428
1.619
1.65012
1.68914
1.74118
1.81337
1.90577
2.07321
2.66566
1.57547
1.59373
1.61822
1.64928
1.68858
1.73981
1.81208
1.90304
2.07229
2.64303
1.57475
1.59303
1.61739
1.64852
1.68827
1.73878
1.81127
1.90056
2.07395
2.60575
1.57417
1.59274
1.6169
1.6483
1.68862
1.73877
1.80982
1.89882
2.0726
2.55504
1.57382
1.59266
1.61669
1.64849
1.68856
1.73893
1.80786
1.89727
2.06738
2.50007
1.57375
1.59268
1.61676
1.64876
1.68765
1.73903
1.80397
1.89427
2.05634
2.45059
1.57385
1.59252
1.61671
1.64789
1.68534
1.73694
1.79781
1.89354
2.03329
2.43728
1.57345
1.5916
1.61587
1.64546
1.68247
1.73104
1.79477
1.88707
2.0181
2.8237
1.57188
1.58909
1.61287
1.64045
1.67763
1.724
1.79425
1.87425
2.09492
3.95788
1.56883
1.58553
1.60836
1.63708
1.67329
1.72375
1.78798
1.86776
2.90411
5.12912
1.56589
1.58268
1.60621
1.63535
1.67273
1.72437
1.77514
2.25598
4.41194
5.59036
1.56392
1.58063
1.60498
1.63399
1.67501
1.71731
1.86228
3.70071
5.38146
5.51503
1.56299
1.58013
1.60327
1.63408
1.67327
1.72115
2.73751
5.10729
5.54376
5.47627
1.56582
1.58466
1.60777
1.64673
1.67621
2.10883
4.52138
5.59143
5.53591
5.47135
)
;

boundaryField
{
    inlet
    {
        type            calculated;
        value           uniform 1.40001;
    }
    outlet
    {
        type            calculated;
        value           nonuniform List<scalar> 
100
(
2.67483
2.53211
2.51116
2.53341
2.59213
2.66334
2.731
2.7855
2.82798
2.86345
2.89177
2.91946
2.9439
2.96955
2.99592
3.01538
3.03624
3.03279
3.03625
3.03614
2.90661
2.91121
2.91654
2.91665
2.91216
2.90926
2.9118
2.9175
2.92231
2.92603
2.92522
2.92278
2.91879
2.9085
2.89449
2.88066
2.85672
2.82585
2.78389
2.74367
2.90448
2.89525
2.87284
2.85462
2.844
2.84096
2.84494
2.85507
2.87132
2.87421
2.87428
2.87146
2.85488
2.84489
2.84096
2.84402
2.85462
2.87282
2.89525
2.90449
2.74367
2.78389
2.82585
2.85672
2.88066
2.89449
2.9085
2.91879
2.92278
2.92522
2.92603
2.92231
2.9175
2.9118
2.90926
2.91216
2.91665
2.91654
2.91121
2.9066
3.03614
3.03625
3.03279
3.03624
3.01538
2.99592
2.96955
2.9439
2.91946
2.89177
2.86345
2.82798
2.7855
2.731
2.66334
2.59213
2.53341
2.51116
2.53211
2.67483
)
;
    }
    triangle
    {
        type            calculated;
        value           nonuniform List<scalar> 
40
(
4.56882
4.48476
4.44624
4.43455
4.4501
4.48896
4.54022
4.56639
4.50554
4.34782
0.95754
1.05591
1.05099
1.04783
1.08347
1.12993
1.15026
1.16869
1.19424
1.21077
1.21077
1.19424
1.16869
1.15026
1.12992
1.08347
1.04783
1.051
1.05593
0.957576
4.56537
4.48098
4.44281
4.4313
4.44714
4.48644
4.5383
4.5651
4.5046
4.34725
)
;
    }
    top
    {
        type            symmetryPlane;
    }
    bottom
    {
        type            symmetryPlane;
    }
    defaultFaces
    {
        type            empty;
    }
}


// ************************************************************************* //
