/*--------------------------------*- C++ -*----------------------------------*\
  =========                 |
  \\      /  F ield         | OpenFOAM: The Open Source CFD Toolbox
   \\    /   O peration     | Website:  https://openfoam.org
    \\  /    A nd           | Version:  8
     \\/     M anipulation  |
\*---------------------------------------------------------------------------*/
FoamFile
{
    version     2.0;
    format      ascii;
    class       volScalarField;
    location    "0.6";
    object      rho;
}
// * * * * * * * * * * * * * * * * * * * * * * * * * * * * * * * * * * * * * //

dimensions      [1 -3 0 0 0 0 0];

internalField   nonuniform List<scalar> 
2600
(
0.957533
1.07976
1.19464
1.52601
1.99517
2.2279
2.41234
2.67359
2.95947
2.90357
1.0559
1.08417
1.207
1.59435
2.01112
2.21005
2.38438
2.65386
2.94299
2.89438
1.05098
1.05078
1.20642
1.61653
2.00115
2.15835
2.29737
2.59299
2.88674
2.87188
1.04782
1.05367
1.21447
1.61475
1.95256
2.04552
2.17956
2.49753
2.80673
2.85349
1.08347
1.07566
1.22934
1.59679
1.86733
1.93541
2.07274
2.39709
2.71921
2.8428
1.12992
1.09942
1.24112
1.55396
1.78735
1.8366
1.9808
2.31851
2.6619
2.83977
1.15026
1.1196
1.23202
1.49821
1.71267
1.78517
1.9539
2.29629
2.64161
2.84366
1.16869
1.12254
1.2133
1.45351
1.68741
1.78143
1.96722
2.31267
2.64175
2.85367
1.19424
1.13064
1.2152
1.45965
1.69848
1.79324
1.99514
2.34603
2.65887
2.87024
1.21077
1.12407
1.21903
1.46796
1.70134
1.80706
2.01401
2.36444
2.66193
2.87309
1.21077
1.12407
1.21903
1.46787
1.70203
1.80271
2.02187
2.36817
2.66208
2.87311
1.19423
1.13063
1.2152
1.45957
1.69884
1.79267
1.99527
2.34736
2.65885
2.87015
1.16868
1.12253
1.21328
1.45352
1.68764
1.78049
1.97119
2.31426
2.64227
2.85381
1.15026
1.11959
1.23201
1.49825
1.7127
1.78494
1.95574
2.29687
2.64169
2.84368
1.12992
1.09942
1.24112
1.554
1.78707
1.83687
1.98066
2.31808
2.6617
2.83976
1.08347
1.07566
1.22935
1.59667
1.86736
1.93556
2.07155
2.3963
2.71901
2.84278
1.04784
1.05369
1.21447
1.61468
1.95294
2.04513
2.17809
2.49691
2.80669
2.8535
1.05101
1.05079
1.20641
1.61653
2.00126
2.15792
2.2966
2.59297
2.88686
2.87192
1.05594
1.08419
1.20699
1.5944
2.01093
2.21024
2.38485
2.65418
2.94306
2.89439
0.957582
1.07978
1.19463
1.52604
1.99496
2.22817
2.41312
2.6739
2.95947
2.90356
1.51051
1.16356
1.15564
1.40561
1.93908
2.23258
2.42016
2.6826
2.95952
2.90579
2.11014
1.37534
1.19387
1.3055
1.8242
2.22239
2.42491
2.69145
2.96049
2.9106
2.5713
1.63458
1.2675
1.32359
1.65835
2.18907
2.42069
2.70045
2.96406
2.91597
2.91751
1.8992
1.39837
1.3473
1.47194
2.08374
2.39048
2.70885
2.96528
2.91595
3.20663
2.15932
1.57949
1.38763
1.36946
1.90929
2.34195
2.71847
2.96323
2.91137
3.45175
2.39516
1.76859
1.46962
1.35114
1.72382
2.29624
2.7323
2.96315
2.90848
3.66947
2.62033
1.94939
1.57229
1.38685
1.5448
2.21431
2.7285
2.96803
2.91101
3.87291
2.81921
2.12136
1.69908
1.43173
1.43708
2.08652
2.71156
2.97813
2.9167
4.06723
3.00824
2.27988
1.81558
1.52371
1.41117
1.94941
2.6792
2.98691
2.92155
4.24858
3.1719
2.429
1.9299
1.6218
1.42305
1.80531
2.62333
2.9897
2.92528
4.40834
3.33071
2.56657
2.02699
1.72133
1.45207
1.6797
2.54442
2.98493
2.92441
4.55039
3.4733
2.69241
2.13263
1.81575
1.49103
1.59405
2.45047
2.97074
2.92196
4.6767
3.60742
2.8146
2.22833
1.89984
1.54359
1.58529
2.34709
2.95006
2.91808
4.78307
3.73263
2.92937
2.31732
1.99013
1.58653
1.60475
2.23909
2.91524
2.90783
4.86587
3.84304
3.03848
2.41128
2.0675
1.62751
1.64195
2.12542
2.87111
2.89373
4.9183
3.9485
3.13966
2.50027
2.14123
1.68608
1.68334
2.02895
2.82271
2.87979
4.95842
4.03319
3.23732
2.58902
2.21249
1.75735
1.70763
1.9577
2.75852
2.8559
4.99156
4.11314
3.32856
2.67396
2.28414
1.83987
1.73242
1.90916
2.68841
2.82517
5.01885
4.18466
3.41514
2.75641
2.34853
1.92178
1.7681
1.88175
2.61069
2.7833
5.05002
4.2535
3.49862
2.8364
2.41491
2.00143
1.80121
1.88661
2.52601
2.74292
4.56855
4.48459
4.44621
4.43463
4.45023
4.48917
4.5405
4.56664
4.50575
4.34796
4.41067
4.35488
4.33802
4.35484
4.40057
4.46047
4.51348
4.52815
4.4441
4.22496
4.41802
4.40061
4.38615
4.40541
4.44345
4.49937
4.55455
4.56533
4.47234
4.34157
4.40737
4.42434
4.41262
4.44311
4.48991
4.55575
4.60906
4.6213
4.52157
4.4091
4.39592
4.45964
4.45689
4.50373
4.55668
4.62574
4.68435
4.70664
4.60596
4.51542
4.38698
4.50287
4.51064
4.57532
4.62811
4.70242
4.77405
4.80693
4.71187
4.64114
4.37402
4.57889
4.615
4.70091
4.75882
4.8351
4.90171
4.93182
4.83484
4.77364
4.35924
4.7139
4.80769
4.88533
4.94714
5.00407
5.05407
5.08276
4.97667
4.91171
4.3069
5.00885
5.13954
5.15954
5.21766
5.24958
5.2607
5.27535
5.12934
5.04464
3.63503
4.92657
5.5223
5.60256
5.59997
5.59443
5.52128
5.5121
5.29863
5.18621
2.87502
3.95768
5.47572
6.14864
5.97185
5.85961
5.72562
5.66255
5.44941
5.30737
2.34969
2.69042
4.63382
6.48459
6.38098
6.16788
5.92669
5.76442
5.5526
5.39015
2.06718
2.13807
2.94847
6.16265
6.55012
6.23992
6.03281
5.88391
5.64281
5.48996
1.89092
1.93083
2.04401
4.94586
6.34363
6.08152
5.94414
5.81295
5.64262
5.49101
1.77536
1.8104
1.84318
3.63867
5.9008
5.84238
5.82339
5.75688
5.64672
5.51249
1.69992
1.7274
1.75113
2.29635
5.37532
5.86307
5.75619
5.70226
5.62751
5.50282
1.65236
1.6754
1.69783
1.76341
4.22537
5.69241
5.61841
5.6126
5.57377
5.47683
1.61949
1.64188
1.67133
1.70057
2.89856
5.36391
5.56529
5.55527
5.5319
5.46518
1.59733
1.6185
1.65387
1.68103
1.94787
4.66767
5.60067
5.53334
5.51811
5.4532
1.57991
1.5999
1.63232
1.666
1.71153
3.4787
5.36045
5.49104
5.50181
5.4626
1.40001
1.40001
1.40001
1.40001
1.40001
1.4
1.4
1.39985
1.39338
2.65648
1.40001
1.40001
1.40001
1.40001
1.40001
1.4
1.4
1.39985
1.39369
2.64664
1.40001
1.40001
1.40001
1.40001
1.40001
1.4
1.4
1.39985
1.39413
2.63522
1.40001
1.40001
1.40001
1.40001
1.40001
1.4
1.4
1.39985
1.39499
2.61432
1.40001
1.40001
1.40001
1.40001
1.40001
1.4
1.40001
1.39985
1.39586
2.57628
1.40001
1.40001
1.40001
1.40001
1.40001
1.4
1.40001
1.39986
1.39658
2.53139
1.40001
1.40001
1.40001
1.40001
1.40001
1.4
1.40001
1.39986
1.39724
2.47667
1.40001
1.40001
1.40001
1.40001
1.40001
1.4
1.40001
1.39986
1.39786
2.42664
1.40001
1.40001
1.40001
1.40001
1.40001
1.4
1.40001
1.39986
1.39836
2.36008
1.40001
1.40001
1.40001
1.40001
1.40001
1.4
1.40001
1.39985
1.39883
2.23603
1.40001
1.40001
1.40001
1.40001
1.40001
1.40001
1.4
1.39985
1.39922
2.08812
1.40001
1.40001
1.40001
1.40001
1.40001
1.40001
1.4
1.39985
1.39954
1.9295
1.40001
1.40001
1.40001
1.40001
1.40001
1.40001
1.4
1.39987
1.39982
1.79318
1.40001
1.40001
1.40001
1.40001
1.40001
1.40001
1.4
1.39989
1.40006
1.6981
1.40001
1.40001
1.40001
1.40001
1.40001
1.40001
1.4
1.39991
1.40031
1.63346
1.40001
1.40001
1.40001
1.40001
1.40001
1.40001
1.4
1.39994
1.40055
1.59013
1.40001
1.40001
1.40001
1.40001
1.40001
1.40001
1.4
1.39998
1.4008
1.55763
1.40001
1.40001
1.40001
1.40001
1.40001
1.40001
1.4
1.40003
1.40111
1.53017
1.40001
1.40001
1.40001
1.40001
1.40001
1.40001
1.4
1.40013
1.40146
1.51289
1.40001
1.40001
1.40001
1.40001
1.40001
1.40001
1.4
1.40027
1.40184
1.50296
1.40001
1.40001
1.40001
1.40001
1.40001
1.40001
1.4
1.40027
1.40184
1.50296
1.40001
1.40001
1.40001
1.40001
1.40001
1.40001
1.4
1.40013
1.40146
1.51289
1.40001
1.40001
1.40001
1.40001
1.40001
1.40001
1.4
1.40003
1.40111
1.53017
1.40001
1.40001
1.40001
1.40001
1.40001
1.40001
1.4
1.39998
1.4008
1.55762
1.40001
1.40001
1.40001
1.40001
1.40001
1.40001
1.4
1.39994
1.40055
1.59012
1.40001
1.40001
1.40001
1.40001
1.40001
1.40001
1.4
1.39991
1.40031
1.63346
1.40001
1.40001
1.40001
1.40001
1.40001
1.40001
1.4
1.39989
1.40006
1.69814
1.40001
1.40001
1.40001
1.40001
1.40001
1.40001
1.4
1.39987
1.39982
1.79334
1.40001
1.40001
1.40001
1.40001
1.40001
1.40001
1.4
1.39985
1.39954
1.92978
1.40001
1.40001
1.40001
1.40001
1.40001
1.40001
1.4
1.39985
1.39923
2.08851
1.40001
1.40001
1.40001
1.40001
1.40001
1.4
1.40001
1.39985
1.39885
2.23645
1.40001
1.40001
1.40001
1.40001
1.40001
1.4
1.40001
1.39986
1.39841
2.36049
1.40001
1.40001
1.40001
1.40001
1.40001
1.4
1.40001
1.39986
1.39792
2.42688
1.40001
1.40001
1.40001
1.40001
1.40001
1.4
1.40001
1.39986
1.39731
2.47679
1.40001
1.40001
1.40001
1.40001
1.40001
1.4
1.40001
1.39986
1.39667
2.53134
1.40001
1.40001
1.40001
1.40001
1.40001
1.4
1.40001
1.39985
1.39587
2.57603
1.40001
1.40001
1.40001
1.40001
1.40001
1.4
1.4
1.39985
1.39502
2.61399
1.40001
1.40001
1.40001
1.40001
1.40001
1.4
1.4
1.39985
1.39414
2.63507
1.40001
1.40001
1.40001
1.40001
1.40001
1.4
1.4
1.39985
1.39349
2.64669
1.40001
1.40001
1.40001
1.40001
1.40001
1.4
1.4
1.39985
1.39253
2.65668
1.57991
1.5999
1.63233
1.666
1.71153
3.4787
5.36047
5.49104
5.50183
5.46262
1.59733
1.6185
1.65387
1.68103
1.94788
4.6677
5.60072
5.53334
5.51817
5.45325
1.61949
1.64188
1.67133
1.70058
2.89866
5.36403
5.56537
5.55545
5.53202
5.46528
1.65235
1.67539
1.69782
1.76345
4.22564
5.69263
5.61864
5.61281
5.57398
5.47702
1.69991
1.72739
1.75112
2.29676
5.3757
5.86333
5.75654
5.70257
5.62782
5.50309
1.77535
1.81037
1.84316
3.63968
5.90138
5.84279
5.82377
5.75723
5.64706
5.51281
1.89097
1.93086
2.04431
4.94743
6.34428
6.08203
5.94457
5.81335
5.64297
5.49134
2.06741
2.13838
2.95041
6.16403
6.55024
6.24012
6.03322
5.8843
5.64326
5.49034
2.35032
2.69177
4.63605
6.48517
6.3811
6.16801
5.92673
5.76457
5.55274
5.39038
2.87617
3.9596
5.47639
6.14853
5.97169
5.8594
5.72547
5.66254
5.44943
5.30753
3.63632
4.92714
5.52169
5.60201
5.59961
5.59401
5.52091
5.51185
5.29849
5.1862
4.30754
5.00818
5.13896
5.15894
5.21718
5.24915
5.26036
5.27508
5.12907
5.0445
4.35885
4.71333
4.80716
4.88479
4.94674
5.00361
5.05364
5.08242
4.97624
4.91149
4.37322
4.57787
4.61404
4.69998
4.75832
4.8347
4.90137
4.93149
4.83432
4.77334
4.38558
4.50127
4.50936
4.57405
4.62733
4.70176
4.77345
4.80637
4.71128
4.64078
4.39383
4.45729
4.45485
4.50202
4.55532
4.62463
4.68343
4.70573
4.60524
4.51497
4.40433
4.42116
4.40974
4.44053
4.4877
4.55387
4.60759
4.61991
4.52064
4.40856
4.41436
4.39685
4.38269
4.40206
4.4403
4.49659
4.55238
4.56354
4.47119
4.3409
4.40626
4.35085
4.33427
4.35105
4.39689
4.45716
4.51088
4.52617
4.44283
4.22422
4.56473
4.48032
4.44213
4.43059
4.44647
4.48587
4.53785
4.56479
4.50438
4.34708
5.05004
4.2535
3.49862
2.8364
2.41491
2.00143
1.80121
1.88661
2.52601
2.74292
5.01887
4.18465
3.41514
2.75641
2.34853
1.92178
1.7681
1.88175
2.61069
2.7833
4.99161
4.11314
3.32856
2.67396
2.28414
1.83987
1.73242
1.90916
2.68841
2.82517
4.95852
4.0332
3.23732
2.58902
2.21249
1.75735
1.70763
1.95769
2.75852
2.8559
4.91846
3.94854
3.13966
2.50026
2.14123
1.68608
1.68334
2.02895
2.82271
2.87979
4.86607
3.84311
3.03848
2.41127
2.0675
1.62751
1.64195
2.12542
2.87111
2.89373
4.7834
3.73275
2.92938
2.31731
1.99013
1.58653
1.60475
2.23909
2.91524
2.90783
4.67698
3.60755
2.81463
2.22832
1.89983
1.54359
1.58529
2.34709
2.95006
2.91808
4.55065
3.47346
2.69245
2.13262
1.81575
1.49103
1.59405
2.45048
2.97074
2.92196
4.40855
3.33088
2.56663
2.02699
1.72133
1.45207
1.6797
2.54442
2.98493
2.92441
4.2487
3.17205
2.42907
1.92991
1.6218
1.42305
1.80531
2.62333
2.9897
2.92528
4.06727
3.00838
2.27995
1.81559
1.5237
1.41117
1.94941
2.6792
2.98691
2.92155
3.87286
2.81932
2.12144
1.6991
1.43173
1.43707
2.08652
2.71156
2.97813
2.9167
3.66936
2.6204
1.94946
1.57231
1.38685
1.5448
2.2143
2.7285
2.96803
2.91101
3.45158
2.39518
1.76864
1.46964
1.35114
1.72381
2.29623
2.73229
2.96315
2.90848
3.20642
2.15932
1.57954
1.38763
1.36947
1.90929
2.34196
2.71846
2.96323
2.91137
2.91728
1.89917
1.3984
1.34731
1.47194
2.08378
2.39051
2.70887
2.96528
2.91595
2.57108
1.63456
1.26751
1.32361
1.65832
2.1891
2.42074
2.70049
2.96406
2.91597
2.10996
1.37532
1.19388
1.30552
1.82417
2.22235
2.4249
2.69145
2.9605
2.9106
1.51039
1.16354
1.15565
1.40562
1.93917
2.23243
2.41985
2.68246
2.95953
2.90579
3.23892
3.1787
3.17396
3.57368
4.49914
4.6593
4.44829
4.04403
3.60599
3.03325
3.2339
3.18031
3.22848
3.80219
4.39976
4.51088
4.27743
3.87919
3.51193
3.03419
3.22703
3.18858
3.38213
4.05705
4.31009
4.29559
4.05957
3.69336
3.39628
3.03168
3.21461
3.21445
3.65052
4.23293
4.2616
4.10192
3.82195
3.46898
3.27206
3.03595
3.19649
3.28063
3.9606
4.2986
4.22743
3.96726
3.63889
3.29883
3.17857
3.01572
3.17934
3.41371
4.22963
4.31624
4.15772
3.83484
3.50776
3.18866
3.11126
2.99678
3.16932
3.63897
4.39641
4.31996
4.04623
3.70301
3.39381
3.10746
3.059
2.97036
3.17875
3.95647
4.46816
4.3087
3.91744
3.5655
3.27356
3.04236
3.01382
2.94463
3.24146
4.30197
4.48622
4.24087
3.78397
3.43177
3.14175
2.97041
2.97199
2.92013
3.43218
4.56464
4.47671
4.15128
3.65801
3.30051
3.00571
2.89193
2.92309
2.8924
3.80455
4.68916
4.48079
4.05306
3.54237
3.17746
2.86943
2.80074
2.86638
2.86412
4.28283
4.74916
4.45229
3.9502
3.43318
3.05878
2.73726
2.69889
2.80189
2.82863
4.7608
4.7623
4.38031
3.83875
3.32664
2.94557
2.61091
2.5875
2.72941
2.78602
5.17021
4.83737
4.29541
3.72433
3.22182
2.83639
2.49191
2.47673
2.64832
2.73137
5.41825
4.85821
4.19078
3.6105
3.11739
2.7296
2.3811
2.37057
2.55867
2.66359
5.43769
4.78211
4.09039
3.49381
3.00757
2.6209
2.27664
2.2669
2.4646
2.59227
5.37122
4.70122
3.99421
3.36569
2.88507
2.50569
2.18134
2.17614
2.37743
2.5333
5.25834
4.60481
3.88936
3.23457
2.76224
2.38561
2.08184
2.08225
2.31408
2.51086
5.16796
4.48923
3.76463
3.09888
2.6391
2.25588
1.97814
1.99927
2.29662
2.53116
5.09718
4.35739
3.61746
2.95235
2.51505
2.11617
1.86791
1.91885
2.36602
2.6735
5.09718
4.35739
3.61746
2.95235
2.51505
2.11617
1.86791
1.91885
2.36602
2.6735
5.16796
4.48924
3.76463
3.09888
2.63909
2.25588
1.97814
1.99927
2.29662
2.53116
5.25835
4.60481
3.88935
3.23456
2.76224
2.38562
2.08184
2.08225
2.31408
2.51086
5.37124
4.70122
3.9942
3.36568
2.88506
2.5057
2.18134
2.17614
2.37744
2.5333
5.43771
4.78211
4.09038
3.4938
3.00757
2.62091
2.27665
2.2669
2.46461
2.59227
5.41828
4.85822
4.19076
3.61048
3.11738
2.72961
2.38111
2.37058
2.55867
2.66359
5.17027
4.83736
4.29538
3.7243
3.22181
2.8364
2.49191
2.47674
2.64832
2.73137
4.7609
4.76227
4.38028
3.83873
3.32662
2.94558
2.61092
2.5875
2.72941
2.78602
4.28289
4.74915
4.45226
3.95017
3.43316
3.05879
2.73727
2.6989
2.80189
2.82863
3.80458
4.68916
4.48076
4.05303
3.54234
3.17746
2.86944
2.80074
2.86638
2.86412
3.43218
4.56467
4.47668
4.15125
3.65799
3.3005
3.00572
2.89193
2.9231
2.8924
3.24146
4.30195
4.4862
4.24085
3.78394
3.43176
3.14176
2.97041
2.97199
2.92013
3.17873
3.95644
4.46816
4.30871
3.91742
3.56549
3.27357
3.04236
3.01382
2.94463
3.16929
3.63893
4.39645
4.31995
4.04621
3.70298
3.39381
3.10747
3.059
2.97036
3.1793
3.41367
4.2297
4.31622
4.15768
3.83481
3.50776
3.18866
3.11127
2.99678
3.19644
3.28061
3.96067
4.2986
4.22741
3.96723
3.63888
3.29884
3.17857
3.01572
3.21456
3.21442
3.65058
4.23295
4.26159
4.10188
3.82193
3.46898
3.27206
3.03595
3.22696
3.18854
3.38215
4.05708
4.31011
4.29555
4.05953
3.69335
3.39628
3.03168
3.23383
3.18029
3.2285
3.80224
4.39978
4.51086
4.2774
3.87917
3.51193
3.0342
3.23884
3.1787
3.17397
3.57373
4.49916
4.6593
4.44827
4.04401
3.60599
3.03326
1.56582
1.58466
1.60777
1.64673
1.67621
2.10883
4.52137
5.59142
5.5359
5.47135
1.56299
1.58013
1.60327
1.63408
1.67327
1.72115
2.73751
5.10728
5.54376
5.47627
1.56392
1.58063
1.60498
1.63399
1.67501
1.71731
1.86228
3.7007
5.38146
5.51504
1.56589
1.58268
1.60621
1.63535
1.67273
1.72437
1.77514
2.25598
4.41194
5.59037
1.56883
1.58553
1.60836
1.63708
1.67329
1.72375
1.78798
1.86776
2.90411
5.12914
1.57188
1.58909
1.61287
1.64045
1.67763
1.724
1.79426
1.87426
2.09493
3.9579
1.57345
1.5916
1.61587
1.64546
1.68248
1.73105
1.79478
1.88708
2.0181
2.82373
1.57385
1.59252
1.61671
1.64789
1.68534
1.73695
1.79782
1.89355
2.0333
2.43732
1.57375
1.59267
1.61676
1.64876
1.68765
1.73904
1.80398
1.89428
2.05637
2.45065
1.57382
1.59266
1.61669
1.64849
1.68856
1.73894
1.80787
1.89728
2.06741
2.50015
1.57417
1.59274
1.6169
1.6483
1.68862
1.73877
1.80983
1.89884
2.07264
2.55513
1.57475
1.59303
1.61739
1.64852
1.68827
1.73879
1.81128
1.90058
2.07399
2.60585
1.57547
1.59374
1.61822
1.64928
1.68858
1.73981
1.81209
1.90305
2.07233
2.64313
1.57599
1.59429
1.619
1.65012
1.68915
1.74119
1.81338
1.90578
2.07325
2.66578
1.57624
1.59458
1.61953
1.65085
1.69022
1.74289
1.81485
1.90793
2.07681
2.67831
1.57643
1.59481
1.61991
1.6515
1.69158
1.74482
1.81647
1.90999
2.08068
2.68721
1.57666
1.59513
1.62033
1.65217
1.69305
1.74655
1.81822
1.9121
2.08432
2.69458
1.57697
1.59553
1.62074
1.65273
1.69404
1.74742
1.81949
1.91382
2.08672
2.70048
1.5772
1.5958
1.62095
1.65299
1.69437
1.74769
1.82
1.91467
2.0876
2.70242
1.57736
1.59596
1.62108
1.65314
1.69443
1.74769
1.8201
1.91506
2.08803
2.70307
1.40001
1.40001
1.40001
1.40001
1.40001
1.40001
1.4
1.40032
1.40233
1.49885
1.40001
1.40001
1.40001
1.40001
1.40001
1.40001
1.4
1.4003
1.4029
1.49682
1.40001
1.40001
1.40001
1.40001
1.40001
1.40001
1.4
1.40023
1.40339
1.49698
1.40001
1.40001
1.40001
1.40001
1.40001
1.4
1.4
1.40017
1.40375
1.49871
1.40001
1.40001
1.40001
1.40001
1.40001
1.4
1.4
1.40013
1.40404
1.50124
1.40001
1.40001
1.40001
1.40001
1.40001
1.4
1.4
1.40011
1.40425
1.50244
1.40001
1.40001
1.40001
1.40001
1.40001
1.4
1.4
1.4001
1.40434
1.50302
1.40001
1.40001
1.40001
1.40001
1.40001
1.4
1.4
1.40009
1.40437
1.50317
1.40001
1.40001
1.40001
1.40001
1.40001
1.4
1.4
1.40009
1.40437
1.5032
1.40001
1.40001
1.40001
1.40001
1.40001
1.4
1.4
1.40009
1.40435
1.5034
1.40001
1.40001
1.40001
1.40001
1.40001
1.4
1.4
1.40009
1.4043
1.50368
1.40001
1.40001
1.40001
1.40001
1.40001
1.40001
1.40001
1.40009
1.40422
1.50401
1.40001
1.40001
1.40001
1.40001
1.40001
1.40001
1.40001
1.40009
1.40412
1.50437
1.40001
1.40001
1.40001
1.40001
1.40001
1.40001
1.40001
1.40009
1.404
1.50459
1.40001
1.40001
1.40001
1.40001
1.40001
1.40001
1.40001
1.40009
1.4039
1.50468
1.40001
1.40001
1.40001
1.40001
1.40001
1.40001
1.40001
1.40009
1.40382
1.50477
1.40001
1.40001
1.40001
1.40001
1.40001
1.40001
1.40001
1.40009
1.40379
1.50495
1.40001
1.40001
1.40001
1.40001
1.40001
1.40001
1.40001
1.40009
1.40378
1.50519
1.40001
1.40001
1.40001
1.40001
1.40001
1.40001
1.40001
1.40008
1.40378
1.50531
1.40001
1.40001
1.40001
1.40001
1.40001
1.40001
1.40001
1.40008
1.40378
1.50542
1.40001
1.40001
1.40001
1.40001
1.40001
1.40001
1.40001
1.40008
1.40377
1.50542
1.40001
1.40001
1.40001
1.40001
1.40001
1.40001
1.40001
1.40008
1.40378
1.50531
1.40001
1.40001
1.40001
1.40001
1.40001
1.40001
1.40001
1.40009
1.40378
1.50519
1.40001
1.40001
1.40001
1.40001
1.40001
1.40001
1.40001
1.40009
1.40379
1.50495
1.40001
1.40001
1.40001
1.40001
1.40001
1.40001
1.40001
1.40009
1.40382
1.50476
1.40001
1.40001
1.40001
1.40001
1.40001
1.40001
1.40001
1.40009
1.4039
1.50467
1.40001
1.40001
1.40001
1.40001
1.40001
1.40001
1.40001
1.40009
1.404
1.50459
1.40001
1.40001
1.40001
1.40001
1.40001
1.40001
1.40001
1.40009
1.40412
1.50436
1.40001
1.40001
1.40001
1.40001
1.40001
1.40001
1.40001
1.40009
1.40422
1.50401
1.40001
1.40001
1.40001
1.40001
1.40001
1.4
1.4
1.40009
1.4043
1.50368
1.40001
1.40001
1.40001
1.40001
1.40001
1.4
1.4
1.40009
1.40435
1.5034
1.40001
1.40001
1.40001
1.40001
1.40001
1.4
1.4
1.40009
1.40437
1.50321
1.40001
1.40001
1.40001
1.40001
1.40001
1.4
1.4
1.40009
1.40437
1.50317
1.40001
1.40001
1.40001
1.40001
1.40001
1.4
1.4
1.4001
1.40434
1.50302
1.40001
1.40001
1.40001
1.40001
1.40001
1.4
1.4
1.40011
1.40425
1.50244
1.40001
1.40001
1.40001
1.40001
1.40001
1.4
1.4
1.40013
1.40404
1.50124
1.40001
1.40001
1.40001
1.40001
1.40001
1.4
1.4
1.40017
1.40375
1.49871
1.40001
1.40001
1.40001
1.40001
1.40001
1.40001
1.4
1.40023
1.40339
1.49698
1.40001
1.40001
1.40001
1.40001
1.40001
1.40001
1.4
1.4003
1.4029
1.49682
1.40001
1.40001
1.40001
1.40001
1.40001
1.40001
1.4
1.40032
1.40233
1.49885
1.57735
1.59595
1.62107
1.65312
1.69443
1.74769
1.8201
1.91506
2.08798
2.7029
1.5772
1.59579
1.62094
1.65298
1.69437
1.7477
1.82
1.91467
2.08755
2.70225
1.57697
1.59552
1.62073
1.65271
1.69403
1.74742
1.81949
1.91381
2.08667
2.70032
1.57666
1.59512
1.62032
1.65216
1.69303
1.74654
1.81822
1.9121
2.08426
2.69443
1.57642
1.5948
1.61991
1.6515
1.69157
1.7448
1.81646
1.90998
2.08063
2.68707
1.57623
1.59458
1.61953
1.65085
1.69022
1.74288
1.81484
1.90792
2.07676
2.67816
1.57599
1.59428
1.619
1.65012
1.68914
1.74118
1.81337
1.90577
2.0732
2.66563
1.57547
1.59373
1.61822
1.64927
1.68857
1.7398
1.81208
1.90303
2.07229
2.643
1.57475
1.59303
1.61739
1.64852
1.68827
1.73878
1.81126
1.90056
2.07394
2.60573
1.57417
1.59274
1.6169
1.6483
1.68862
1.73877
1.80981
1.89882
2.07259
2.55502
1.57382
1.59266
1.61669
1.64849
1.68856
1.73893
1.80786
1.89727
2.06737
2.50006
1.57375
1.59268
1.61676
1.64876
1.68764
1.73903
1.80397
1.89427
2.05634
2.45058
1.57385
1.59252
1.61671
1.64789
1.68534
1.73694
1.79781
1.89354
2.03329
2.43728
1.57346
1.5916
1.61587
1.64546
1.68247
1.73104
1.79477
1.88707
2.0181
2.8237
1.57188
1.58909
1.61287
1.64045
1.67763
1.724
1.79425
1.87426
2.09492
3.95788
1.56883
1.58553
1.60836
1.63708
1.67329
1.72375
1.78798
1.86776
2.90411
5.12912
1.56589
1.58268
1.60621
1.63535
1.67273
1.72437
1.77514
2.25598
4.41194
5.59036
1.56392
1.58063
1.60498
1.63399
1.67501
1.71731
1.86228
3.7007
5.38146
5.51503
1.56299
1.58013
1.60327
1.63408
1.67327
1.72115
2.73751
5.10728
5.54376
5.47627
1.56582
1.58466
1.60777
1.64673
1.67621
2.10882
4.52138
5.59143
5.53591
5.47135
)
;

boundaryField
{
    inlet
    {
        type            calculated;
        value           uniform 1.40001;
    }
    outlet
    {
        type            calculated;
        value           nonuniform List<scalar> 
100
(
2.67483
2.53211
2.51116
2.53341
2.59213
2.66334
2.731
2.7855
2.82798
2.86345
2.89177
2.91946
2.9439
2.96955
2.99592
3.01539
3.03624
3.03279
3.03625
3.03615
2.9066
2.91121
2.91655
2.91665
2.91216
2.90926
2.9118
2.9175
2.92231
2.92603
2.92522
2.92278
2.91879
2.9085
2.89449
2.88066
2.85672
2.82585
2.78389
2.74367
2.90449
2.89525
2.87281
2.85461
2.84402
2.84097
2.8449
2.85491
2.87144
2.87424
2.87423
2.87133
2.85506
2.84493
2.84095
2.84401
2.85462
2.87285
2.89525
2.90448
2.74367
2.78389
2.82585
2.85672
2.88066
2.89449
2.9085
2.91879
2.92278
2.92522
2.92603
2.92231
2.9175
2.9118
2.90926
2.91216
2.91665
2.91654
2.91121
2.90661
3.03614
3.03624
3.03279
3.03624
3.01538
2.99592
2.96955
2.9439
2.91946
2.89177
2.86345
2.82798
2.7855
2.731
2.66334
2.59213
2.53341
2.51116
2.53211
2.67483
)
;
    }
    triangle
    {
        type            calculated;
        value           nonuniform List<scalar> 
40
(
4.56855
4.48459
4.44621
4.43463
4.45023
4.48917
4.5405
4.56664
4.50575
4.34796
0.957533
1.0559
1.05098
1.04782
1.08347
1.12992
1.15026
1.16869
1.19424
1.21077
1.21077
1.19423
1.16868
1.15026
1.12992
1.08347
1.04784
1.05101
1.05594
0.957582
4.56473
4.48032
4.44213
4.43059
4.44647
4.48587
4.53785
4.56479
4.50438
4.34708
)
;
    }
    top
    {
        type            symmetryPlane;
    }
    bottom
    {
        type            symmetryPlane;
    }
    defaultFaces
    {
        type            empty;
    }
}


// ************************************************************************* //
