/*--------------------------------*- C++ -*----------------------------------*\
  =========                 |
  \\      /  F ield         | OpenFOAM: The Open Source CFD Toolbox
   \\    /   O peration     | Website:  https://openfoam.org
    \\  /    A nd           | Version:  7
     \\/     M anipulation  |
\*---------------------------------------------------------------------------*/
FoamFile
{
    version     2.0;
    format      ascii;
    class       volVectorField;
    location    "0.6";
    object      U;
}
// * * * * * * * * * * * * * * * * * * * * * * * * * * * * * * * * * * * * * //

dimensions      [0 1 -1 0 0 0 0];

internalField   nonuniform List<vector> 
2600
(
(1.57694 0.700543 0)
(2.21395 0.832769 0)
(2.30187 0.636895 0)
(2.33443 0.479962 0)
(2.19869 0.177058 0)
(2.20135 0.0519752 0)
(2.16561 0.0233466 0)
(2.02516 0.0620982 0)
(1.91664 0.0237597 0)
(1.90307 0.0472624 0)
(1.283 0.282423 0)
(2.16639 0.733331 0)
(2.31198 0.585079 0)
(2.29945 0.391622 0)
(2.17371 0.12871 0)
(2.18491 0.0464698 0)
(2.17603 0.011872 0)
(2.03727 0.0603864 0)
(1.90735 0.021997 0)
(1.89215 0.0438367 0)
(0.800061 0.0763967 0)
(2.01093 0.699046 0)
(2.30927 0.530295 0)
(2.30059 0.328154 0)
(2.15375 0.0916465 0)
(2.18511 0.027209 0)
(2.19357 0.0230614 0)
(2.06004 0.0692238 0)
(1.90434 0.03246 0)
(1.88183 0.0438502 0)
(0.384144 -0.0657481 0)
(1.70598 0.570939 0)
(2.23827 0.444507 0)
(2.28974 0.259243 0)
(2.1508 0.0660873 0)
(2.18151 0.0370895 0)
(2.18704 0.0355007 0)
(2.07123 0.0800012 0)
(1.90151 0.0455414 0)
(1.86469 0.0438895 0)
(0.130564 -0.128231 0)
(1.29732 0.373134 0)
(2.02001 0.360555 0)
(2.19777 0.214795 0)
(2.12842 0.0734463 0)
(2.11443 0.0244105 0)
(2.08934 0.0231938 0)
(2.01519 0.0822404 0)
(1.86918 0.0523349 0)
(1.83222 0.0350851 0)
(-0.0442468 -0.127695 0)
(0.789602 0.236611 0)
(1.61381 0.265043 0)
(1.96457 0.180951 0)
(1.98199 0.0546602 0)
(1.89235 0.00829805 0)
(1.82385 0.0136421 0)
(1.82443 0.0759623 0)
(1.77376 0.06783 0)
(1.78088 0.0377792 0)
(-0.1815 -0.136268 0)
(0.300925 0.133241 0)
(1.03931 0.179138 0)
(1.52331 0.132146 0)
(1.61153 0.0544663 0)
(1.48566 0.0140986 0)
(1.42004 0.0243461 0)
(1.51675 0.0738079 0)
(1.61577 0.0567694 0)
(1.71664 0.0268707 0)
(-0.273182 -0.105764 0)
(-0.0810846 0.0708572 0)
(0.416516 0.0948443 0)
(0.920999 0.0855366 0)
(1.09238 0.0552676 0)
(1.04381 0.0155885 0)
(1.03531 0.00554515 0)
(1.21044 0.0478417 0)
(1.45212 0.0574623 0)
(1.64774 0.0255166 0)
(-0.322743 -0.0626153 0)
(-0.305202 0.0558433 0)
(-0.0359969 0.0605582 0)
(0.426 0.0625311 0)
(0.682052 0.0487217 0)
(0.748019 0.0143462 0)
(0.797099 0.000465913 0)
(1.00719 0.032826 0)
(1.33762 0.0374828 0)
(1.5952 0.0149302 0)
(-0.341661 -0.0172725 0)
(-0.383301 0.0216458 0)
(-0.208027 0.0267092 0)
(0.230024 0.0292973 0)
(0.52392 0.0226143 0)
(0.644224 0.00599965 0)
(0.716821 0.00558632 0)
(0.929535 0.0152426 0)
(1.2863 0.0152369 0)
(1.57056 0.00648926 0)
(-0.341661 0.0172635 0)
(-0.3833 -0.0216469 0)
(-0.208029 -0.0267122 0)
(0.230039 -0.0292687 0)
(0.523885 -0.0225249 0)
(0.644083 -0.00693805 0)
(0.717617 0.000935084 0)
(0.929616 -0.0136526 0)
(1.28628 -0.0149621 0)
(1.57061 -0.00625043 0)
(-0.322742 0.0626093 0)
(-0.3052 -0.0558402 0)
(-0.0359982 -0.0605514 0)
(0.426009 -0.0625526 0)
(0.681983 -0.0488547 0)
(0.748298 -0.0131433 0)
(0.797452 -0.00682994 0)
(1.00677 -0.0345203 0)
(1.33762 -0.0377112 0)
(1.59523 -0.0151462 0)
(-0.27318 0.105764 0)
(-0.081084 -0.0708515 0)
(0.416515 -0.0948397 0)
(0.92098 -0.0855323 0)
(1.09237 -0.0553349 0)
(1.04398 -0.0153443 0)
(1.03514 -0.00768262 0)
(1.21023 -0.0483658 0)
(1.45218 -0.0574991 0)
(1.64774 -0.0255302 0)
(-0.181498 0.136275 0)
(0.300922 -0.133226 0)
(1.03931 -0.179128 0)
(1.52329 -0.132172 0)
(1.61154 -0.0543775 0)
(1.4857 -0.0143387 0)
(1.41967 -0.0243665 0)
(1.51666 -0.0736594 0)
(1.61579 -0.0567831 0)
(1.71663 -0.0268976 0)
(-0.0442447 0.127703 0)
(0.78959 -0.236597 0)
(1.6138 -0.265037 0)
(1.96455 -0.180974 0)
(1.98199 -0.0545557 0)
(1.89236 -0.00838223 0)
(1.82339 -0.0130242 0)
(1.8243 -0.0755266 0)
(1.77373 -0.0678263 0)
(1.78088 -0.0377694 0)
(0.130565 0.12823 0)
(1.29729 -0.373123 0)
(2.01999 -0.360553 0)
(2.19776 -0.214749 0)
(2.12841 -0.0734857 0)
(2.11438 -0.0244335 0)
(2.08892 -0.0225997 0)
(2.01513 -0.082099 0)
(1.86916 -0.0522634 0)
(1.83222 -0.0350778 0)
(0.384135 0.0657501 0)
(1.70594 -0.570923 0)
(2.23825 -0.444498 0)
(2.28974 -0.259226 0)
(2.1508 -0.066193 0)
(2.18149 -0.0369675 0)
(2.18694 -0.0347066 0)
(2.07122 -0.0797967 0)
(1.90152 -0.0455471 0)
(1.86469 -0.0438912 0)
(0.800022 -0.0763998 0)
(2.01088 -0.699034 0)
(2.30925 -0.530286 0)
(2.30059 -0.328161 0)
(2.15376 -0.0916472 0)
(2.18516 -0.0271058 0)
(2.19363 -0.0230429 0)
(2.06008 -0.0693057 0)
(1.90435 -0.0324997 0)
(1.88183 -0.0438576 0)
(1.28298 -0.282425 0)
(2.16635 -0.733319 0)
(2.31196 -0.585075 0)
(2.29945 -0.391633 0)
(2.1737 -0.128666 0)
(2.18492 -0.0465489 0)
(2.17607 -0.0120512 0)
(2.03729 -0.0604781 0)
(1.90734 -0.0220145 0)
(1.89215 -0.0438375 0)
(1.57699 -0.700587 0)
(2.21392 -0.832761 0)
(2.30185 -0.636895 0)
(2.33443 -0.479975 0)
(2.19868 -0.177021 0)
(2.20134 -0.0520289 0)
(2.16558 -0.0235559 0)
(2.02514 -0.0621708 0)
(1.91664 -0.023757 0)
(1.90307 -0.0472596 0)
(1.83675 -0.286388 0)
(2.18661 -0.788811 0)
(2.30171 -0.685758 0)
(2.34963 -0.578019 0)
(2.23053 -0.238438 0)
(2.21482 -0.0728326 0)
(2.1622 -0.0342037 0)
(2.02132 -0.065151 0)
(1.93079 -0.0295555 0)
(1.91787 -0.0509729 0)
(1.80598 -0.0598695 0)
(2.1404 -0.620963 0)
(2.35983 -0.676999 0)
(2.36171 -0.679036 0)
(2.27815 -0.324662 0)
(2.22262 -0.100418 0)
(2.16184 -0.0382695 0)
(2.02442 -0.0652312 0)
(1.95059 -0.0339316 0)
(1.93583 -0.0523964 0)
(1.74347 0.0614576 0)
(2.11806 -0.520948 0)
(2.34378 -0.634822 0)
(2.35643 -0.707042 0)
(2.34822 -0.442141 0)
(2.24565 -0.139033 0)
(2.16319 -0.0432481 0)
(2.0328 -0.0626168 0)
(1.9734 -0.0355204 0)
(1.95329 -0.051987 0)
(1.68495 0.127391 0)
(2.07382 -0.34221 0)
(2.30582 -0.554128 0)
(2.35607 -0.702266 0)
(2.39251 -0.558835 0)
(2.3188 -0.212827 0)
(2.17136 -0.0409134 0)
(2.04039 -0.0592317 0)
(1.99401 -0.0387433 0)
(1.96743 -0.0531046 0)
(1.64447 0.169315 0)
(2.04412 -0.266023 0)
(2.2818 -0.475403 0)
(2.34672 -0.661615 0)
(2.42187 -0.644169 0)
(2.36916 -0.28921 0)
(2.17465 -0.0412696 0)
(2.04574 -0.0583697 0)
(2.00922 -0.0422035 0)
(1.97746 -0.0558159 0)
(1.62718 0.193631 0)
(2.00642 -0.158804 0)
(2.25001 -0.375366 0)
(2.35196 -0.629383 0)
(2.43345 -0.667049 0)
(2.40139 -0.41688 0)
(2.17105 -0.0789172 0)
(2.05337 -0.0527188 0)
(2.01988 -0.0428416 0)
(1.98413 -0.0587438 0)
(1.62448 0.225063 0)
(1.99114 -0.106666 0)
(2.22805 -0.309032 0)
(2.34394 -0.521472 0)
(2.42434 -0.665201 0)
(2.41658 -0.532573 0)
(2.18579 -0.139994 0)
(2.06476 -0.0539213 0)
(2.02607 -0.0430438 0)
(1.98852 -0.0607699 0)
(1.64282 0.248648 0)
(1.97477 -0.0379975 0)
(2.20335 -0.227755 0)
(2.33796 -0.461233 0)
(2.41668 -0.640237 0)
(2.42661 -0.60221 0)
(2.22669 -0.215442 0)
(2.08136 -0.0503359 0)
(2.02859 -0.0444286 0)
(1.99041 -0.0635816 0)
(1.66747 0.285401 0)
(1.97232 0.00860217 0)
(2.19052 -0.182237 0)
(2.31964 -0.372177 0)
(2.40381 -0.577137 0)
(2.433 -0.618145 0)
(2.29118 -0.316531 0)
(2.11035 -0.0587658 0)
(2.02894 -0.0469803 0)
(1.98861 -0.0672541 0)
(1.70017 0.316028 0)
(1.96893 0.059808 0)
(2.17049 -0.11727 0)
(2.31115 -0.318172 0)
(2.39259 -0.539463 0)
(2.43325 -0.60971 0)
(2.34996 -0.414398 0)
(2.13916 -0.0779667 0)
(2.0277 -0.0517569 0)
(1.98337 -0.0709212 0)
(1.71869 0.358375 0)
(1.9652 0.107095 0)
(2.16185 -0.082983 0)
(2.29268 -0.251538 0)
(2.37285 -0.462624 0)
(2.43139 -0.587825 0)
(2.38415 -0.485617 0)
(2.15854 -0.103516 0)
(2.02312 -0.0564065 0)
(1.97406 -0.0743526 0)
(1.72643 0.392727 0)
(1.96081 0.145375 0)
(2.14275 -0.0274113 0)
(2.27699 -0.200864 0)
(2.36186 -0.430802 0)
(2.42436 -0.544676 0)
(2.40035 -0.539191 0)
(2.1857 -0.154049 0)
(2.01819 -0.0597424 0)
(1.96333 -0.0782493 0)
(1.7178 0.426014 0)
(1.94293 0.190634 0)
(2.13061 0.00528065 0)
(2.26415 -0.158622 0)
(2.34176 -0.366634 0)
(2.41992 -0.507463 0)
(2.40531 -0.545742 0)
(2.20996 -0.205295 0)
(2.01887 -0.0671903 0)
(1.95663 -0.0826349 0)
(1.6985 0.451454 0)
(1.93058 0.219409 0)
(2.10952 0.0487312 0)
(2.2411 -0.105275 0)
(2.32955 -0.337004 0)
(2.41771 -0.466559 0)
(2.40328 -0.539355 0)
(2.24304 -0.279623 0)
(2.0257 -0.0760029 0)
(1.95566 -0.0851946 0)
(1.66722 0.471385 0)
(1.89757 0.257267 0)
(2.09052 0.0803238 0)
(2.22576 -0.0699097 0)
(2.31301 -0.290778 0)
(2.40478 -0.414657 0)
(2.39119 -0.518593 0)
(2.26955 -0.344457 0)
(2.03506 -0.0884093 0)
(1.9575 -0.0881089 0)
(1.63089 0.480935 0)
(1.87605 0.277958 0)
(2.06749 0.113909 0)
(2.20502 -0.0295751 0)
(2.2985 -0.253891 0)
(2.39984 -0.376805 0)
(2.38097 -0.509274 0)
(2.29678 -0.401452 0)
(2.05323 -0.113353 0)
(1.96266 -0.0974561 0)
(1.59699 0.485666 0)
(1.83966 0.300813 0)
(2.04216 0.142158 0)
(2.18646 0.00312546 0)
(2.28105 -0.213586 0)
(2.38568 -0.334311 0)
(2.37679 -0.487713 0)
(2.3158 -0.437966 0)
(2.0751 -0.140354 0)
(1.96612 -0.107015 0)
(1.56694 0.486469 0)
(1.81471 0.314604 0)
(2.01915 0.164873 0)
(2.16536 0.0358256 0)
(2.26716 -0.180497 0)
(2.36968 -0.297361 0)
(2.37171 -0.465437 0)
(2.32499 -0.461959 0)
(2.10169 -0.169874 0)
(1.97099 -0.11608 0)
(1.54427 0.485178 0)
(1.78671 0.326723 0)
(1.99234 0.187667 0)
(2.14379 0.06481 0)
(2.25117 -0.144988 0)
(2.35335 -0.259593 0)
(2.36775 -0.446952 0)
(2.32886 -0.478724 0)
(2.14004 -0.21043 0)
(1.98023 -0.127745 0)
(1.53089 0.485329 0)
(1.76525 0.335962 0)
(1.96982 0.204811 0)
(2.12181 0.0921623 0)
(2.23339 -0.110407 0)
(2.33923 -0.2247 0)
(2.36119 -0.419813 0)
(2.33022 -0.478249 0)
(2.1666 -0.250428 0)
(1.98557 -0.131926 0)
(0.524819 0.182101 0)
(0.595818 0.234058 0)
(0.653721 0.306096 0)
(0.706209 0.362753 0)
(0.745304 0.406199 0)
(0.777867 0.436942 0)
(0.815949 0.45723 0)
(0.867832 0.480413 0)
(0.944062 0.51211 0)
(1.12575 0.537656 0)
(0.568551 0.238342 0)
(0.604669 0.274457 0)
(0.648095 0.328158 0)
(0.690836 0.378111 0)
(0.729287 0.417222 0)
(0.76563 0.445517 0)
(0.809226 0.463369 0)
(0.862755 0.487149 0)
(0.94647 0.510485 0)
(1.11702 0.516064 0)
(0.65547 0.257525 0)
(0.661826 0.288936 0)
(0.688127 0.324784 0)
(0.705499 0.368663 0)
(0.730529 0.407781 0)
(0.76125 0.436996 0)
(0.805431 0.451625 0)
(0.861262 0.475431 0)
(0.957723 0.491923 0)
(1.14014 0.467219 0)
(0.729076 0.308607 0)
(0.711892 0.344162 0)
(0.725556 0.373437 0)
(0.71759 0.399849 0)
(0.731668 0.418258 0)
(0.757577 0.435136 0)
(0.800644 0.440645 0)
(0.858434 0.462023 0)
(0.964282 0.467145 0)
(1.14889 0.427711 0)
(0.790076 0.356574 0)
(0.758862 0.387748 0)
(0.766898 0.414431 0)
(0.751109 0.430877 0)
(0.755535 0.435784 0)
(0.770935 0.44251 0)
(0.806796 0.437096 0)
(0.868437 0.451044 0)
(0.978885 0.436182 0)
(1.17021 0.404723 0)
(0.848115 0.423299 0)
(0.796705 0.44611 0)
(0.787994 0.470395 0)
(0.772042 0.480449 0)
(0.774944 0.475486 0)
(0.792192 0.467746 0)
(0.83054 0.442608 0)
(0.901011 0.444468 0)
(1.01453 0.413171 0)
(1.20238 0.389729 0)
(0.945569 0.512767 0)
(0.861267 0.529026 0)
(0.836743 0.534908 0)
(0.821764 0.525449 0)
(0.826117 0.506403 0)
(0.847024 0.484026 0)
(0.888561 0.449469 0)
(0.966011 0.445456 0)
(1.08008 0.402879 0)
(1.25481 0.389661 0)
(1.15308 0.672342 0)
(1.00382 0.649764 0)
(0.962589 0.61522 0)
(0.928772 0.590722 0)
(0.92306 0.555963 0)
(0.944705 0.5222 0)
(0.988453 0.475929 0)
(1.07044 0.457992 0)
(1.17928 0.411387 0)
(1.32938 0.406947 0)
(1.52342 0.821688 0)
(1.23057 0.849698 0)
(1.16398 0.762207 0)
(1.12025 0.696268 0)
(1.08382 0.62765 0)
(1.10715 0.571454 0)
(1.14595 0.511887 0)
(1.21853 0.485146 0)
(1.30495 0.436275 0)
(1.41947 0.432746 0)
(2.00426 0.78894 0)
(1.61339 0.947863 0)
(1.34896 0.914514 0)
(1.31759 0.822733 0)
(1.28437 0.72725 0)
(1.3061 0.653099 0)
(1.32636 0.583893 0)
(1.36975 0.544649 0)
(1.42389 0.488504 0)
(1.50032 0.472263 0)
(2.47847 0.598163 0)
(2.1575 0.800988 0)
(1.61564 1.004 0)
(1.43253 0.852271 0)
(1.4516 0.766754 0)
(1.47233 0.687207 0)
(1.47853 0.625385 0)
(1.48395 0.583109 0)
(1.51326 0.532189 0)
(1.55291 0.507481 0)
(2.68452 0.411197 0)
(2.62452 0.489583 0)
(1.99085 0.898702 0)
(1.43713 0.878545 0)
(1.45578 0.816484 0)
(1.49228 0.748306 0)
(1.51815 0.683227 0)
(1.52147 0.634479 0)
(1.54832 0.581435 0)
(1.56491 0.54866 0)
(2.76272 0.266659 0)
(2.73964 0.292859 0)
(2.59566 0.510027 0)
(1.48255 0.833265 0)
(1.39733 0.778794 0)
(1.45586 0.756544 0)
(1.47998 0.717105 0)
(1.50234 0.671767 0)
(1.53279 0.627846 0)
(1.55355 0.586628 0)
(2.80244 0.164577 0)
(2.7817 0.186521 0)
(2.80119 0.190577 0)
(1.52277 0.68456 0)
(1.30565 0.735997 0)
(1.38394 0.740609 0)
(1.42677 0.719239 0)
(1.46348 0.688118 0)
(1.49397 0.646997 0)
(1.52316 0.605247 0)
(2.82562 0.107945 0)
(2.80633 0.124227 0)
(2.79953 0.121438 0)
(1.87252 0.553026 0)
(1.19758 0.748616 0)
(1.26258 0.7412 0)
(1.32794 0.729805 0)
(1.38741 0.699103 0)
(1.43259 0.654418 0)
(1.47817 0.612254 0)
(2.84506 0.0703797 0)
(2.82967 0.0803941 0)
(2.81754 0.0810087 0)
(2.6877 0.251627 0)
(1.29868 0.681225 0)
(1.22759 0.675628 0)
(1.28182 0.674258 0)
(1.33253 0.664756 0)
(1.37507 0.635998 0)
(1.43113 0.605331 0)
(2.85596 0.0605704 0)
(2.84377 0.0602142 0)
(2.82808 0.0663107 0)
(2.84919 0.0634082 0)
(1.54842 0.616601 0)
(1.19656 0.699073 0)
(1.23902 0.68813 0)
(1.28175 0.67466 0)
(1.32217 0.642124 0)
(1.3851 0.609813 0)
(2.86411 0.0442625 0)
(2.85256 0.0414265 0)
(2.83354 0.053484 0)
(2.82504 0.0423519 0)
(2.25977 0.479435 0)
(1.24747 0.713656 0)
(1.22102 0.677665 0)
(1.25807 0.663965 0)
(1.29411 0.631768 0)
(1.35308 0.600521 0)
(2.87066 0.0259866 0)
(2.85868 0.0244658 0)
(2.83999 0.0343231 0)
(2.8244 0.0266884 0)
(2.84233 0.090014 0)
(1.5231 0.683355 0)
(1.23237 0.673984 0)
(1.26247 0.665543 0)
(1.28894 0.634839 0)
(1.33756 0.596016 0)
(2.87571 0.00728741 0)
(2.86307 0.0122561 0)
(2.84677 0.00940326 0)
(2.82308 0.0209301 0)
(2.82636 0.00972502 0)
(1.95783 0.614827 0)
(1.25877 0.729472 0)
(1.25903 0.678504 0)
(1.29009 0.633894 0)
(1.33686 0.591835 0)
(3 -1.49026e-15 0)
(3 -3.66409e-15 0)
(3 -8.26613e-14 0)
(3 -1.94295e-12 0)
(3 8.45736e-11 0)
(3 9.66558e-09 0)
(3.00001 5.67848e-08 0)
(2.99968 2.17381e-05 0)
(3.02358 -0.000468764 0)
(1.35377 0.049737 0)
(3 -8.62903e-16 0)
(3 -5.56275e-17 0)
(3 -2.12021e-13 0)
(3 -5.40304e-12 0)
(3 2.21393e-10 0)
(3 2.50896e-08 0)
(3.00001 -7.79954e-08 0)
(2.9997 5.64808e-05 0)
(3.02361 -0.00209058 0)
(1.40577 0.152096 0)
(3 3.96263e-16 0)
(3 4.6977e-16 0)
(3 -3.27806e-13 0)
(3 -8.33675e-12 0)
(3 2.42545e-10 0)
(3 2.9941e-08 0)
(3.00001 -1.71876e-07 0)
(2.99972 9.3025e-05 0)
(3.02207 -0.00383641 0)
(1.49617 0.229969 0)
(3 -6.4494e-16 0)
(3 -1.87095e-15 0)
(3 -4.33207e-13 0)
(3 -1.05779e-11 0)
(3 1.99835e-10 0)
(3 2.70195e-08 0)
(3.00001 -1.87092e-07 0)
(2.99975 0.000129055 0)
(3.01802 -0.00517895 0)
(1.59242 0.298181 0)
(3 -1.54756e-15 0)
(3 -3.20181e-15 0)
(3 -5.32629e-13 0)
(3 -1.33351e-11 0)
(3 1.03323e-10 0)
(3 2.04454e-08 0)
(3.00001 3.4108e-07 0)
(2.99979 0.000159964 0)
(3.01219 -0.00611878 0)
(1.69091 0.356511 0)
(3 5.88257e-16 0)
(3 -1.21459e-15 0)
(3 -6.32602e-13 0)
(3 -1.60505e-11 0)
(3 -6.7045e-11 0)
(3 1.86317e-08 0)
(3.00001 3.89744e-07 0)
(2.99984 0.000187629 0)
(3.00683 -0.00616003 0)
(1.80007 0.415471 0)
(3 5.73193e-16 0)
(3 7.67268e-16 0)
(3 -7.23173e-13 0)
(3 -1.77005e-11 0)
(3 -3.22945e-10 0)
(3 2.61551e-08 0)
(3.00001 1.6398e-07 0)
(2.9999 0.000208132 0)
(3.00368 -0.00611052 0)
(1.9604 0.456479 0)
(3 -1.38174e-15 0)
(3 1.28452e-15 0)
(3 -7.98932e-13 0)
(3 -1.77204e-11 0)
(3 -5.82193e-10 0)
(3 3.61784e-08 0)
(3 3.08222e-08 0)
(2.99996 0.00021968 0)
(3.00215 -0.00559369 0)
(2.20382 0.487625 0)
(3 -1.16202e-15 0)
(3 3.12785e-15 0)
(3 -8.5607e-13 0)
(3 -1.58512e-11 0)
(3 -7.36429e-10 0)
(3 6.9287e-08 0)
(3 -1.54733e-06 0)
(3.00002 0.000218897 0)
(3.00133 -0.00509194 0)
(2.47867 0.466153 0)
(3 8.85787e-16 0)
(3 5.43319e-15 0)
(3 -8.84303e-13 0)
(3 -1.14114e-11 0)
(3 -7.71362e-10 0)
(3 1.09693e-07 0)
(3 -3.1082e-06 0)
(3.00008 0.000210505 0)
(3.00094 -0.00468092 0)
(2.65026 0.38028 0)
(3 -5.31239e-16 0)
(3 6.06179e-15 0)
(3 -8.8683e-13 0)
(3 -6.81784e-12 0)
(3 -8.90861e-10 0)
(3 1.27796e-07 0)
(3 -5.25066e-06 0)
(3.00013 0.000199941 0)
(3.00069 -0.00429415 0)
(2.75277 0.30621 0)
(3 -1.1406e-15 0)
(3 7.50691e-15 0)
(3 -9.38203e-13 0)
(3 -1.80539e-12 0)
(3 -8.75154e-10 0)
(3 1.48259e-07 0)
(2.99999 -6.42759e-06 0)
(3.00017 0.000186144 0)
(3.00047 -0.00389344 0)
(2.81541 0.239058 0)
(3 4.06732e-16 0)
(3 7.37427e-15 0)
(3 -1.03864e-12 0)
(3 4.10975e-13 0)
(3 -1.09917e-09 0)
(3 1.60133e-07 0)
(2.99999 -6.75212e-06 0)
(3.0002 0.000173883 0)
(3.00031 -0.00355585 0)
(2.84489 0.189311 0)
(3 1.25377e-16 0)
(3 5.48261e-15 0)
(3 -1.09118e-12 0)
(3 5.0523e-12 0)
(3 -1.28073e-09 0)
(3 1.64845e-07 0)
(2.99999 -6.88938e-06 0)
(3.0002 0.00016562 0)
(3.00013 -0.00320494 0)
(2.86545 0.13677 0)
(3 -2.72392e-16 0)
(3 5.72098e-15 0)
(3 -1.14104e-12 0)
(3 7.48254e-12 0)
(3 -1.52035e-09 0)
(3 1.68391e-07 0)
(3 -7.02598e-06 0)
(3.00019 0.000157878 0)
(2.99988 -0.00287339 0)
(2.88272 0.0929222 0)
(3 -3.23023e-16 0)
(3 6.09758e-15 0)
(3 -1.14266e-12 0)
(3 9.74332e-12 0)
(3 -1.62143e-09 0)
(3 1.71022e-07 0)
(3 -7.34919e-06 0)
(3.00018 0.000152861 0)
(2.9995 -0.00252139 0)
(2.89751 0.0584453 0)
(3 2.62641e-16 0)
(3 5.49322e-15 0)
(3 -1.12363e-12 0)
(3 1.1082e-11 0)
(3 -1.6107e-09 0)
(3 1.69308e-07 0)
(3 -7.81177e-06 0)
(3.00016 0.000148439 0)
(2.99909 -0.002151 0)
(2.90958 0.032882 0)
(3 -6.44815e-16 0)
(3 4.21641e-15 0)
(3 -1.10599e-12 0)
(3 1.19929e-11 0)
(3 -1.57115e-09 0)
(3 1.67929e-07 0)
(3.00001 -7.90373e-06 0)
(3.00014 0.000157435 0)
(2.9987 -0.00174121 0)
(2.91735 0.0188588 0)
(3 -9.14554e-16 0)
(3 4.28209e-15 0)
(3 -1.07814e-12 0)
(3 1.24809e-11 0)
(3 -1.52566e-09 0)
(3 1.68726e-07 0)
(3 -7.75553e-06 0)
(3.00009 0.000211639 0)
(2.99836 -0.00130168 0)
(2.9216 0.0125141 0)
(3 -1.0886e-16 0)
(3 4.99863e-15 0)
(3 -1.05657e-12 0)
(3 1.32052e-11 0)
(3 -1.48138e-09 0)
(3 1.69874e-07 0)
(3 -7.51648e-06 0)
(2.99998 0.000269006 0)
(2.99809 -0.00082681 0)
(2.92426 0.00632508 0)
(3 -5.41686e-16 0)
(3 -5.86819e-15 0)
(3 1.05272e-12 0)
(3 -1.32069e-11 0)
(3 1.48139e-09 0)
(3 -1.69874e-07 0)
(3 7.51648e-06 0)
(2.99998 -0.000269006 0)
(2.99809 0.000826807 0)
(2.92426 -0.0063251 0)
(3 2.72407e-16 0)
(3 -4.96723e-15 0)
(3 1.08121e-12 0)
(3 -1.24781e-11 0)
(3 1.52567e-09 0)
(3 -1.68726e-07 0)
(3 7.75553e-06 0)
(3.00009 -0.000211639 0)
(2.99836 0.00130167 0)
(2.9216 -0.0125142 0)
(3 2.14302e-16 0)
(3 -4.55914e-15 0)
(3 1.10252e-12 0)
(3 -1.19881e-11 0)
(3 1.57117e-09 0)
(3 -1.67929e-07 0)
(3.00001 7.90374e-06 0)
(3.00014 -0.000157435 0)
(2.9987 0.00174118 0)
(2.91735 -0.018859 0)
(3 1.30896e-16 0)
(3 -3.0411e-15 0)
(3 1.12637e-12 0)
(3 -1.10807e-11 0)
(3 1.6107e-09 0)
(3 -1.69308e-07 0)
(3 7.81177e-06 0)
(3.00016 -0.000148439 0)
(2.99909 0.00215094 0)
(2.90958 -0.0328814 0)
(3 -9.30238e-16 0)
(3 -6.03939e-15 0)
(3 1.14052e-12 0)
(3 -9.74774e-12 0)
(3 1.62144e-09 0)
(3 -1.71022e-07 0)
(3 7.34919e-06 0)
(3.00018 -0.00015286 0)
(2.9995 0.00252139 0)
(2.89751 -0.0584423 0)
(3 2.59641e-17 0)
(3 -6.87607e-15 0)
(3 1.14499e-12 0)
(3 -7.47713e-12 0)
(3 1.52036e-09 0)
(3 -1.68391e-07 0)
(3 7.02598e-06 0)
(3.00019 -0.000157878 0)
(2.99988 0.00287385 0)
(2.88272 -0.0929173 0)
(3 4.67155e-16 0)
(3 -7.28867e-15 0)
(3 1.08948e-12 0)
(3 -5.05245e-12 0)
(3 1.28073e-09 0)
(3 -1.64845e-07 0)
(2.99999 6.88938e-06 0)
(3.0002 -0.000165628 0)
(3.00013 0.00320606 0)
(2.86545 -0.136774 0)
(3 -1.06051e-15 0)
(3 -9.47426e-15 0)
(3 1.03585e-12 0)
(3 -4.13968e-13 0)
(3 1.09917e-09 0)
(3 -1.60133e-07 0)
(2.99999 6.75212e-06 0)
(3.0002 -0.000173904 0)
(3.00031 0.00355638 0)
(2.84489 -0.189344 0)
(3 1.31965e-16 0)
(3 -7.29454e-15 0)
(3 9.36126e-13 0)
(3 1.80126e-12 0)
(3 8.75156e-10 0)
(3 -1.48259e-07 0)
(2.99999 6.42757e-06 0)
(3.00017 -0.000186112 0)
(3.00047 0.00389144 0)
(2.81542 -0.239152 0)
(3 1.18327e-15 0)
(3 -4.23926e-15 0)
(3 8.85598e-13 0)
(3 6.8155e-12 0)
(3 8.90867e-10 0)
(3 -1.27796e-07 0)
(3 5.25074e-06 0)
(3.00013 -0.000199852 0)
(3.00069 0.00428519 0)
(2.75278 -0.306356 0)
(3 6.87721e-16 0)
(3 -2.36503e-15 0)
(3 8.85304e-13 0)
(3 1.14146e-11 0)
(3 7.71374e-10 0)
(3 -1.09694e-07 0)
(3 3.10834e-06 0)
(3.00008 -0.000210374 0)
(3.00093 0.00465885 0)
(2.65019 -0.380467 0)
(3 1.32542e-15 0)
(3 -2.00307e-15 0)
(3 8.57848e-13 0)
(3 1.58541e-11 0)
(3 7.36439e-10 0)
(3 -6.92871e-08 0)
(3 1.54745e-06 0)
(3.00002 -0.000218662 0)
(3.00133 0.00506178 0)
(2.47851 -0.466314 0)
(3 9.9438e-16 0)
(3 -1.62482e-15 0)
(3 7.98475e-13 0)
(3 1.77197e-11 0)
(3 5.82197e-10 0)
(3 -3.6178e-08 0)
(3 -3.08497e-08 0)
(2.99997 -0.000219012 0)
(3.00216 0.0055556 0)
(2.20368 -0.487684 0)
(3 -1.8157e-16 0)
(3 -4.88997e-16 0)
(3 7.20803e-13 0)
(3 1.76983e-11 0)
(3 3.22948e-10 0)
(3 -2.61546e-08 0)
(3.00001 -1.63985e-07 0)
(2.99991 -0.000207616 0)
(3.00369 0.00606194 0)
(1.96038 -0.456555 0)
(3 1.41208e-15 0)
(3 1.49608e-15 0)
(3 6.32218e-13 0)
(3 1.60492e-11 0)
(3 6.70479e-11 0)
(3 -1.86312e-08 0)
(3.00001 -3.89702e-07 0)
(2.99985 -0.000187445 0)
(3.0069 0.00615672 0)
(1.80006 -0.415467 0)
(3 5.38144e-16 0)
(3 -5.27744e-17 0)
(3 5.3114e-13 0)
(3 1.33324e-11 0)
(3 -1.03326e-10 0)
(3 -2.04455e-08 0)
(3.00001 -3.41032e-07 0)
(2.99979 -0.000161404 0)
(3.0123 0.00599233 0)
(1.69063 -0.356595 0)
(3 -1.36093e-15 0)
(3 -1.70965e-16 0)
(3 4.32875e-13 0)
(3 1.05742e-11 0)
(3 -1.99835e-10 0)
(3 -2.7022e-08 0)
(3.00001 1.87256e-07 0)
(2.99975 -0.000130742 0)
(3.01798 0.00525263 0)
(1.59146 -0.29828 0)
(3 -4.06143e-16 0)
(3 2.89772e-15 0)
(3 3.34305e-13 0)
(3 8.38425e-12 0)
(3 -2.42509e-10 0)
(3 -2.99423e-08 0)
(3.00001 1.7129e-07 0)
(2.99972 -9.24871e-05 0)
(3.02164 0.00384104 0)
(1.49426 -0.229922 0)
(3 1.75212e-15 0)
(3 4.21961e-15 0)
(3 2.14675e-13 0)
(3 5.50974e-12 0)
(3 -2.21232e-10 0)
(3 -2.50864e-08 0)
(3.00001 7.82358e-08 0)
(2.99969 -5.81823e-05 0)
(3.02309 0.00209272 0)
(1.40331 -0.151899 0)
(3 8.02116e-16 0)
(3 -2.56825e-16 0)
(3 7.9991e-14 0)
(3 1.79908e-12 0)
(3 -8.47694e-11 0)
(3 -9.66375e-09 0)
(3.00001 -5.70571e-08 0)
(2.99967 -1.92775e-05 0)
(3.0232 0.000727505 0)
(1.35222 -0.0490419 0)
(2.87571 -0.00728744 0)
(2.86307 -0.0122561 0)
(2.84677 -0.00940325 0)
(2.82308 -0.0209302 0)
(2.82636 -0.00972488 0)
(1.95784 -0.614821 0)
(1.25877 -0.729472 0)
(1.25903 -0.678503 0)
(1.29009 -0.633893 0)
(1.33686 -0.591835 0)
(2.87066 -0.0259867 0)
(2.85868 -0.024466 0)
(2.83999 -0.0343232 0)
(2.8244 -0.0266886 0)
(2.84234 -0.09001 0)
(1.5231 -0.683352 0)
(1.23237 -0.673985 0)
(1.26248 -0.665542 0)
(1.28894 -0.63484 0)
(1.33756 -0.596016 0)
(2.86411 -0.0442628 0)
(2.85256 -0.0414268 0)
(2.83354 -0.0534842 0)
(2.82504 -0.0423522 0)
(2.25977 -0.479435 0)
(1.24747 -0.713663 0)
(1.22102 -0.677669 0)
(1.25807 -0.663975 0)
(1.29411 -0.631773 0)
(1.35308 -0.600524 0)
(2.85596 -0.0605701 0)
(2.84377 -0.0602142 0)
(2.82808 -0.0663103 0)
(2.84919 -0.0634114 0)
(1.5484 -0.616621 0)
(1.19655 -0.699094 0)
(1.23902 -0.688151 0)
(1.28175 -0.674675 0)
(1.32217 -0.642138 0)
(1.3851 -0.609821 0)
(2.84506 -0.0703769 0)
(2.82967 -0.0803917 0)
(2.81754 -0.081004 0)
(2.68764 -0.251677 0)
(1.29864 -0.681272 0)
(1.22759 -0.675663 0)
(1.28182 -0.674292 0)
(1.33254 -0.664784 0)
(1.37507 -0.636025 0)
(1.43113 -0.605349 0)
(2.82562 -0.107938 0)
(2.80633 -0.124217 0)
(2.79953 -0.121431 0)
(1.87235 -0.553123 0)
(1.19756 -0.748693 0)
(1.26257 -0.741266 0)
(1.32794 -0.729861 0)
(1.38741 -0.699153 0)
(1.4326 -0.654459 0)
(1.47818 -0.61228 0)
(2.80244 -0.164575 0)
(2.7817 -0.186511 0)
(2.80122 -0.190603 0)
(1.5226 -0.684729 0)
(1.30565 -0.73608 0)
(1.38394 -0.740682 0)
(1.42678 -0.719308 0)
(1.46348 -0.688185 0)
(1.49398 -0.647058 0)
(1.52317 -0.605293 0)
(2.76271 -0.266717 0)
(2.73963 -0.292913 0)
(2.59533 -0.510394 0)
(1.48242 -0.833408 0)
(1.39731 -0.778942 0)
(1.45583 -0.756633 0)
(1.47995 -0.717187 0)
(1.50232 -0.671849 0)
(1.53278 -0.627931 0)
(1.55355 -0.586696 0)
(2.6845 -0.411361 0)
(2.62438 -0.489863 0)
(1.99043 -0.898945 0)
(1.43707 -0.878649 0)
(1.45575 -0.816588 0)
(1.49225 -0.7484 0)
(1.51812 -0.683316 0)
(1.52145 -0.634567 0)
(1.5483 -0.581531 0)
(1.56491 -0.548744 0)
(2.47825 -0.598482 0)
(2.15696 -0.801324 0)
(1.6155 -1.00407 0)
(1.43251 -0.852372 0)
(1.45157 -0.766827 0)
(1.4723 -0.687268 0)
(1.4785 -0.62543 0)
(1.48393 -0.583169 0)
(1.51325 -0.532267 0)
(1.55292 -0.507564 0)
(2.00375 -0.789191 0)
(1.61302 -0.948021 0)
(1.34894 -0.914497 0)
(1.31758 -0.822699 0)
(1.28433 -0.727232 0)
(1.30605 -0.65311 0)
(1.32631 -0.583932 0)
(1.3697 -0.544725 0)
(1.42385 -0.488595 0)
(1.50031 -0.472351 0)
(1.52313 -0.821699 0)
(1.2305 -0.849641 0)
(1.1639 -0.762178 0)
(1.12022 -0.69626 0)
(1.08379 -0.627639 0)
(1.10711 -0.571407 0)
(1.14591 -0.511814 0)
(1.21848 -0.485121 0)
(1.30491 -0.436296 0)
(1.41945 -0.432808 0)
(1.15312 -0.67228 0)
(1.00391 -0.649603 0)
(0.962762 -0.615006 0)
(0.928902 -0.590533 0)
(0.923092 -0.555804 0)
(0.944662 -0.522104 0)
(0.988356 -0.475877 0)
(1.07032 -0.457981 0)
(1.17921 -0.411384 0)
(1.32933 -0.406985 0)
(0.945746 -0.512788 0)
(0.86144 -0.528997 0)
(0.836913 -0.534815 0)
(0.821863 -0.525234 0)
(0.826105 -0.506127 0)
(0.846962 -0.48374 0)
(0.888463 -0.449239 0)
(0.965888 -0.445354 0)
(1.08001 -0.402832 0)
(1.25475 -0.389678 0)
(0.848467 -0.423198 0)
(0.797108 -0.445877 0)
(0.788384 -0.470012 0)
(0.772201 -0.47996 0)
(0.774908 -0.475043 0)
(0.79207 -0.467446 0)
(0.830399 -0.442404 0)
(0.900883 -0.444368 0)
(1.01445 -0.413126 0)
(1.20231 -0.389737 0)
(0.790306 -0.356525 0)
(0.759091 -0.387541 0)
(0.767064 -0.413896 0)
(0.751245 -0.430132 0)
(0.755545 -0.435122 0)
(0.77085 -0.442026 0)
(0.806689 -0.436781 0)
(0.868349 -0.450885 0)
(0.978822 -0.436154 0)
(1.17015 -0.404735 0)
(0.728953 -0.308485 0)
(0.71193 -0.343723 0)
(0.725409 -0.372778 0)
(0.717435 -0.399084 0)
(0.731483 -0.41752 0)
(0.757347 -0.434613 0)
(0.800482 -0.440299 0)
(0.858365 -0.461833 0)
(0.96424 -0.467127 0)
(1.14886 -0.427725 0)
(0.654654 -0.257463 0)
(0.661381 -0.288258 0)
(0.687753 -0.323846 0)
(0.705175 -0.367742 0)
(0.730243 -0.407034 0)
(0.760972 -0.436498 0)
(0.805208 -0.451313 0)
(0.861163 -0.475208 0)
(0.957646 -0.491869 0)
(1.14008 -0.467196 0)
(0.567544 -0.238211 0)
(0.603871 -0.273985 0)
(0.647421 -0.327485 0)
(0.6903 -0.37739 0)
(0.728898 -0.416625 0)
(0.765325 -0.445133 0)
(0.808977 -0.463144 0)
(0.862642 -0.486963 0)
(0.94636 -0.510418 0)
(1.11696 -0.516038 0)
(0.524261 -0.182015 0)
(0.595043 -0.233952 0)
(0.652826 -0.305676 0)
(0.705492 -0.362143 0)
(0.744802 -0.405657 0)
(0.777543 -0.436578 0)
(0.815687 -0.457037 0)
(0.867704 -0.480246 0)
(0.943937 -0.512122 0)
(1.12569 -0.537679 0)
(1.53089 -0.485329 0)
(1.76525 -0.335962 0)
(1.96982 -0.204811 0)
(2.12181 -0.0921623 0)
(2.23339 0.110408 0)
(2.33923 0.2247 0)
(2.36119 0.419813 0)
(2.33022 0.478249 0)
(2.1666 0.250428 0)
(1.98557 0.131926 0)
(1.54427 -0.485178 0)
(1.78671 -0.326724 0)
(1.99234 -0.187668 0)
(2.14379 -0.06481 0)
(2.25117 0.144988 0)
(2.35335 0.259593 0)
(2.36775 0.446952 0)
(2.32886 0.478724 0)
(2.14004 0.21043 0)
(1.98023 0.127745 0)
(1.56694 -0.48647 0)
(1.81472 -0.314604 0)
(2.01915 -0.164873 0)
(2.16536 -0.0358257 0)
(2.26716 0.180497 0)
(2.36968 0.297361 0)
(2.37171 0.465437 0)
(2.32499 0.461959 0)
(2.10169 0.169873 0)
(1.97099 0.11608 0)
(1.59699 -0.485668 0)
(1.83966 -0.300813 0)
(2.04216 -0.142158 0)
(2.18646 -0.00312557 0)
(2.28105 0.213586 0)
(2.38568 0.334311 0)
(2.37679 0.487713 0)
(2.3158 0.437966 0)
(2.0751 0.140354 0)
(1.96612 0.107015 0)
(1.63089 -0.480941 0)
(1.87605 -0.277957 0)
(2.06749 -0.113908 0)
(2.20502 0.0295751 0)
(2.2985 0.253891 0)
(2.39984 0.376805 0)
(2.38097 0.509274 0)
(2.29678 0.401452 0)
(2.05323 0.113353 0)
(1.96266 0.0974561 0)
(1.66722 -0.471401 0)
(1.89757 -0.257269 0)
(2.09052 -0.080323 0)
(2.22575 0.0699099 0)
(2.31301 0.290778 0)
(2.40478 0.414657 0)
(2.39119 0.518593 0)
(2.26955 0.344457 0)
(2.03506 0.0884093 0)
(1.9575 0.088109 0)
(1.69851 -0.451483 0)
(1.93058 -0.219414 0)
(2.10952 -0.0487297 0)
(2.2411 0.105276 0)
(2.32955 0.337004 0)
(2.41771 0.466559 0)
(2.40328 0.539355 0)
(2.24304 0.279623 0)
(2.0257 0.0760029 0)
(1.95566 0.0851946 0)
(1.71781 -0.426058 0)
(1.94294 -0.190645 0)
(2.13061 -0.00527923 0)
(2.26415 0.158624 0)
(2.34176 0.366634 0)
(2.41992 0.507463 0)
(2.40531 0.545742 0)
(2.20996 0.205295 0)
(2.01887 0.0671903 0)
(1.95663 0.0826349 0)
(1.72644 -0.392782 0)
(1.96082 -0.145392 0)
(2.14275 0.0274118 0)
(2.27699 0.200867 0)
(2.36186 0.430802 0)
(2.42436 0.544676 0)
(2.40035 0.539191 0)
(2.1857 0.154049 0)
(2.01819 0.0597424 0)
(1.96333 0.0782493 0)
(1.7187 -0.358445 0)
(1.96521 -0.107124 0)
(2.16185 0.0829816 0)
(2.29267 0.251541 0)
(2.37285 0.462625 0)
(2.43139 0.587825 0)
(2.38415 0.485616 0)
(2.15854 0.103515 0)
(2.02312 0.0564065 0)
(1.97406 0.0743526 0)
(1.70019 -0.316099 0)
(1.96895 -0.0598464 0)
(2.17049 0.117264 0)
(2.31114 0.318176 0)
(2.39259 0.539465 0)
(2.43325 0.60971 0)
(2.34996 0.414398 0)
(2.13916 0.0779666 0)
(2.0277 0.0517569 0)
(1.98337 0.0709212 0)
(1.66748 -0.285471 0)
(1.97235 -0.00865155 0)
(2.19052 0.182225 0)
(2.31963 0.372181 0)
(2.40381 0.57714 0)
(2.433 0.618145 0)
(2.29118 0.316531 0)
(2.11035 0.0587657 0)
(2.02894 0.0469803 0)
(1.98861 0.0672541 0)
(1.64283 -0.248707 0)
(1.9748 0.0379409 0)
(2.20336 0.227736 0)
(2.33796 0.461236 0)
(2.41668 0.640239 0)
(2.42661 0.602211 0)
(2.22669 0.215442 0)
(2.08136 0.0503358 0)
(2.02859 0.0444286 0)
(1.99041 0.0635816 0)
(1.62449 -0.225115 0)
(1.99117 0.106603 0)
(2.22807 0.309007 0)
(2.34394 0.521472 0)
(2.42434 0.665204 0)
(2.41658 0.532573 0)
(2.18579 0.139991 0)
(2.06476 0.0539209 0)
(2.02607 0.0430438 0)
(1.98852 0.0607699 0)
(1.62718 -0.193667 0)
(2.00645 0.158752 0)
(2.25003 0.375337 0)
(2.35196 0.629386 0)
(2.43344 0.667051 0)
(2.40139 0.416878 0)
(2.17105 0.0789166 0)
(2.05337 0.0527183 0)
(2.01988 0.0428416 0)
(1.98413 0.0587438 0)
(1.64448 -0.169339 0)
(2.04416 0.265977 0)
(2.28182 0.475383 0)
(2.34672 0.661613 0)
(2.42186 0.644171 0)
(2.36916 0.289212 0)
(2.17465 0.0412696 0)
(2.04574 0.0583693 0)
(2.00922 0.0422035 0)
(1.97746 0.0558159 0)
(1.68497 -0.127397 0)
(2.07386 0.34218 0)
(2.30585 0.5541 0)
(2.35607 0.702269 0)
(2.39251 0.558834 0)
(2.3188 0.212833 0)
(2.17136 0.0409211 0)
(2.04039 0.0592345 0)
(1.99401 0.0387432 0)
(1.96743 0.0531045 0)
(1.74347 -0.0614516 0)