/*--------------------------------*- C++ -*----------------------------------*\
  =========                 |
  \\      /  F ield         | OpenFOAM: The Open Source CFD Toolbox
   \\    /   O peration     | Website:  https://openfoam.org
    \\  /    A nd           | Version:  8
     \\/     M anipulation  |
\*---------------------------------------------------------------------------*/
FoamFile
{
    version     2.0;
    format      ascii;
    class       volScalarField;
    location    "4.2";
    object      rho;
}
// * * * * * * * * * * * * * * * * * * * * * * * * * * * * * * * * * * * * * //

dimensions      [1 -3 0 0 0 0 0];

internalField   nonuniform List<scalar> 
2600
(
1.07199
1.02809
1.26282
1.73187
1.9813
2.09984
2.37344
2.54395
2.51004
2.29004
1.05851
0.974596
1.22579
1.68282
1.90478
2.01717
2.31221
2.52383
2.4829
2.24303
1.05077
0.932605
1.18811
1.60605
1.83777
1.94788
2.2461
2.50606
2.45288
2.19825
1.04969
0.902842
1.14078
1.51769
1.79382
1.91453
2.20082
2.48153
2.41814
2.16246
1.05115
0.887281
1.10245
1.44816
1.77151
1.9076
2.17688
2.44631
2.37741
2.13631
1.05776
0.88973
1.07825
1.39144
1.76226
1.90376
2.16539
2.40559
2.33722
2.11927
1.06739
0.906797
1.06718
1.33551
1.72805
1.89929
2.15649
2.36313
2.29753
2.10732
1.08098
0.934009
1.07087
1.30753
1.70721
1.88547
2.14056
2.31875
2.26581
2.10496
1.09235
0.967001
1.08212
1.2574
1.67951
1.88551
2.12568
2.27594
2.23559
2.10619
1.10626
1.00151
1.08612
1.22038
1.65679
1.89111
2.10934
2.23329
2.20792
2.11735
1.11706
1.03649
1.089
1.18449
1.64924
1.91976
2.09904
2.20067
2.19094
2.13765
1.12394
1.06009
1.09107
1.15707
1.6635
1.96548
2.12623
2.1819
2.17227
2.16674
1.13283
1.08401
1.09794
1.14624
1.67539
2.02978
2.13896
2.17252
2.17447
2.19553
1.13608
1.10356
1.11081
1.16115
1.68946
2.10748
2.15621
2.17466
2.17449
2.22243
1.14139
1.12223
1.12563
1.18842
1.69923
2.17251
2.17896
2.18496
2.17539
2.24747
1.14588
1.141
1.16042
1.22589
1.71323
2.23496
2.20071
2.19221
2.17964
2.27099
1.15214
1.15491
1.197
1.25849
1.72774
2.28515
2.23363
2.21476
2.18916
2.2942
1.15753
1.16317
1.21862
1.28136
1.7429
2.32767
2.27064
2.24292
2.21312
2.31974
1.15857
1.1674
1.23488
1.30437
1.76206
2.35237
2.3114
2.29177
2.25708
2.34883
1.1685
1.19135
1.27356
1.36275
1.79409
2.37009
2.35473
2.35572
2.31315
2.37867
1.39435
1.25649
1.33443
1.43094
1.83762
2.379
2.4113
2.42947
2.37966
2.41009
1.64931
1.3615
1.41288
1.46861
1.84461
2.37377
2.47092
2.48509
2.43438
2.4323
1.88598
1.46727
1.47227
1.48723
1.82856
2.36418
2.5135
2.52542
2.47449
2.44517
2.07343
1.58011
1.52647
1.50884
1.79134
2.34924
2.53803
2.54884
2.49944
2.45049
2.23265
1.70422
1.58423
1.53328
1.75487
2.32857
2.54827
2.55218
2.51331
2.45327
2.36256
1.82827
1.65068
1.56391
1.75134
2.30548
2.55036
2.54997
2.5176
2.45233
2.47341
1.9448
1.72335
1.59935
1.75514
2.28095
2.54503
2.54964
2.51702
2.44828
2.56748
2.04923
1.79628
1.6375
1.76958
2.25329
2.53364
2.55258
2.51354
2.4414
2.65044
2.14561
1.86996
1.67943
1.78601
2.22248
2.51729
2.55437
2.50442
2.42963
2.72476
2.23399
1.94224
1.7242
1.80453
2.18901
2.49729
2.55225
2.49273
2.41663
2.79247
2.31823
2.01508
1.771
1.82576
2.15246
2.47595
2.54581
2.47863
2.40189
2.85466
2.39825
2.08702
1.82365
1.84931
2.11262
2.45323
2.53897
2.46517
2.38757
2.913
2.47687
2.16085
1.88444
1.8702
2.07183
2.42712
2.53378
2.45283
2.3741
2.9702
2.55455
2.23467
1.95308
1.8899
2.03681
2.3936
2.52789
2.44717
2.36314
3.02806
2.6322
2.30923
2.02451
1.91167
2.00942
2.35105
2.51823
2.44495
2.35404
3.08706
2.70918
2.38324
2.09319
1.9381
1.99296
2.3007
2.5008
2.44493
2.34588
3.14839
2.78553
2.45546
2.16043
1.97008
1.98785
2.24499
2.47708
2.44309
2.33908
3.21206
2.86094
2.52583
2.22433
2.00398
1.99469
2.19238
2.44712
2.43642
2.33688
3.2783
2.93499
2.59314
2.28645
2.04474
2.00612
2.14812
2.41248
2.42976
2.32363
3.34751
3.00796
2.65865
2.34644
2.08897
2.01839
2.11389
2.37684
2.42365
2.31204
4.25134
4.10661
4.00783
3.91364
3.82541
3.73936
3.64408
3.529
3.35966
3.14003
4.06711
3.94092
3.88089
3.81463
3.74933
3.67495
3.58364
3.46261
3.28496
3.02482
4.04239
3.9536
3.90943
3.84619
3.78071
3.70328
3.60743
3.48128
3.30125
3.05377
4.00789
3.94016
3.90388
3.84632
3.78587
3.70751
3.60987
3.48031
3.30251
3.04549
3.98942
3.93643
3.90345
3.847
3.78797
3.70941
3.61237
3.48312
3.3076
3.05196
3.97096
3.9281
3.89482
3.83996
3.78269
3.70426
3.60891
3.48111
3.3108
3.0628
3.95237
3.91768
3.88162
3.82757
3.77087
3.69233
3.59955
3.47524
3.31119
3.07664
3.92623
3.9024
3.8623
3.80944
3.75276
3.67511
3.58625
3.46635
3.31016
3.09333
3.89343
3.88208
3.83877
3.78936
3.73265
3.65637
3.5725
3.45781
3.31031
3.114
3.85943
3.86067
3.81274
3.7674
3.71053
3.63839
3.56027
3.45142
3.31416
3.13972
3.82246
3.84075
3.78788
3.74577
3.68946
3.62438
3.55271
3.45037
3.32543
3.17095
3.77816
3.8179
3.76588
3.72555
3.67352
3.61751
3.5487
3.45666
3.34637
3.2061
3.72421
3.79526
3.74975
3.71242
3.66624
3.61682
3.55432
3.4747
3.3749
3.24336
3.66274
3.77668
3.74058
3.70863
3.66924
3.62799
3.57563
3.5047
3.40757
3.28156
3.58678
3.77218
3.7427
3.71818
3.69218
3.66085
3.61158
3.53939
3.44205
3.32193
3.47421
3.78273
3.76962
3.75983
3.7407
3.70861
3.65422
3.57699
3.48055
3.36614
3.20246
3.77784
3.84475
3.83061
3.80365
3.75925
3.70161
3.61958
3.52551
3.41559
2.82982
3.67118
3.94181
3.91379
3.87428
3.81431
3.75448
3.67236
3.58106
3.47152
2.47033
3.28078
3.96646
3.99519
3.95656
3.89603
3.82651
3.74155
3.65134
3.53451
2.19576
2.713
3.81067
4.06429
4.01683
3.98036
3.91449
3.82899
3.73606
3.60707
1.4022
1.40686
1.41201
1.41775
1.42412
1.43125
1.43919
1.44924
1.45558
2.88785
1.4022
1.40686
1.41201
1.41775
1.42412
1.43125
1.4392
1.44924
1.45555
2.8748
1.4022
1.40686
1.41201
1.41775
1.42412
1.43125
1.43921
1.44922
1.45546
2.85967
1.4022
1.40686
1.41201
1.41775
1.42412
1.43125
1.43921
1.44918
1.45542
2.83922
1.4022
1.40686
1.41201
1.41775
1.42412
1.43125
1.43919
1.44912
1.45545
2.81277
1.4022
1.40686
1.41201
1.41775
1.42412
1.43125
1.43918
1.44907
1.45545
2.77837
1.4022
1.40686
1.41201
1.41775
1.42412
1.43125
1.43917
1.44902
1.45547
2.7371
1.4022
1.40686
1.41201
1.41775
1.42412
1.43125
1.43916
1.44901
1.4555
2.6897
1.4022
1.40686
1.41201
1.41774
1.42413
1.43124
1.43918
1.44902
1.45552
2.6384
1.4022
1.40686
1.41201
1.41774
1.42413
1.43123
1.4392
1.44903
1.45551
2.58264
1.4022
1.40686
1.41202
1.41774
1.42414
1.43123
1.43923
1.44903
1.45557
2.52236
1.4022
1.40686
1.41202
1.41774
1.42414
1.43122
1.43926
1.44902
1.45567
2.45867
1.4022
1.40686
1.41202
1.41773
1.42414
1.43122
1.43927
1.44899
1.45579
2.39115
1.4022
1.40686
1.41202
1.41773
1.42415
1.43122
1.43928
1.44897
1.45592
2.31988
1.4022
1.40686
1.41202
1.41773
1.42415
1.43122
1.43927
1.44896
1.45604
2.24467
1.4022
1.40686
1.41202
1.41773
1.42415
1.43123
1.43926
1.44896
1.45611
2.16167
1.4022
1.40686
1.41202
1.41773
1.42415
1.43123
1.43925
1.44896
1.45616
2.07409
1.4022
1.40686
1.41202
1.41773
1.42415
1.43124
1.43923
1.44897
1.45621
1.98048
1.4022
1.40686
1.41202
1.41773
1.42415
1.43125
1.43921
1.44898
1.45627
1.89058
1.4022
1.40686
1.41202
1.41773
1.42415
1.43125
1.4392
1.44899
1.45632
1.813
1.4022
1.40686
1.41202
1.41773
1.42415
1.43125
1.4392
1.44899
1.45632
1.81308
1.4022
1.40686
1.41202
1.41773
1.42415
1.43125
1.43921
1.44898
1.45627
1.89078
1.4022
1.40686
1.41202
1.41773
1.42415
1.43124
1.43923
1.44897
1.45622
1.98082
1.4022
1.40686
1.41202
1.41773
1.42415
1.43123
1.43925
1.44896
1.45616
2.07453
1.4022
1.40686
1.41202
1.41773
1.42415
1.43123
1.43926
1.44896
1.45611
2.16215
1.4022
1.40686
1.41202
1.41773
1.42415
1.43122
1.43927
1.44896
1.45604
2.24519
1.4022
1.40686
1.41202
1.41773
1.42415
1.43122
1.43928
1.44897
1.45592
2.32039
1.4022
1.40686
1.41202
1.41773
1.42414
1.43122
1.43927
1.44899
1.45579
2.39167
1.4022
1.40686
1.41202
1.41774
1.42414
1.43122
1.43926
1.44902
1.45567
2.4592
1.4022
1.40686
1.41202
1.41774
1.42414
1.43123
1.43923
1.44903
1.45557
2.52288
1.4022
1.40686
1.41201
1.41774
1.42413
1.43123
1.4392
1.44903
1.45551
2.58315
1.4022
1.40686
1.41201
1.41774
1.42413
1.43124
1.43918
1.44902
1.45552
2.63889
1.4022
1.40686
1.41201
1.41775
1.42412
1.43125
1.43916
1.44901
1.4555
2.69016
1.4022
1.40686
1.41201
1.41775
1.42412
1.43125
1.43917
1.44902
1.45547
2.73752
1.4022
1.40686
1.41201
1.41775
1.42412
1.43125
1.43918
1.44907
1.45546
2.77873
1.4022
1.40686
1.41201
1.41775
1.42412
1.43125
1.43919
1.44912
1.45545
2.81306
1.4022
1.40686
1.41201
1.41775
1.42412
1.43125
1.43921
1.44918
1.45542
2.83943
1.4022
1.40686
1.41201
1.41775
1.42412
1.43125
1.43921
1.44922
1.45546
2.85978
1.4022
1.40686
1.41201
1.41775
1.42412
1.43125
1.4392
1.44924
1.45555
2.87485
1.4022
1.40686
1.41201
1.41775
1.42412
1.43125
1.43919
1.44924
1.45558
2.8879
2.19586
2.71316
3.81263
4.06718
4.0195
3.98309
3.91687
3.8315
3.73682
3.6077
2.4708
3.28191
3.96911
3.99792
3.95897
3.89829
3.82826
3.7436
3.65116
3.53405
2.83081
3.67279
3.94402
3.91611
3.87626
3.8161
3.75552
3.67387
3.58017
3.4698
3.20397
3.77914
3.84665
3.8326
3.80519
3.76077
3.70222
3.6205
3.52399
3.41263
3.47572
3.78388
3.77109
3.76137
3.74185
3.70985
3.65453
3.57716
3.47835
3.36208
3.58798
3.77324
3.74385
3.71925
3.69295
3.66174
3.61171
3.5389
3.43921
3.31688
3.66393
3.77763
3.74152
3.70941
3.66973
3.62843
3.57551
3.50368
3.40426
3.2756
3.72531
3.79617
3.75057
3.71306
3.66657
3.61681
3.55362
3.47314
3.37136
3.23655
3.77916
3.8187
3.76654
3.72606
3.67359
3.61728
3.54758
3.45451
3.34264
3.19856
3.8233
3.84143
3.78841
3.74608
3.68931
3.62382
3.5514
3.44777
3.32135
3.16268
3.86014
3.86123
3.81312
3.76748
3.71014
3.63745
3.55887
3.44848
3.30983
3.13084
3.89404
3.88251
3.83898
3.78922
3.73209
3.65518
3.57081
3.45462
3.30563
3.10434
3.92679
3.90274
3.86239
3.80915
3.75205
3.67369
3.5844
3.46296
3.30523
3.08261
3.95283
3.91795
3.88165
3.82721
3.77007
3.69081
3.59744
3.47172
3.30613
3.06434
3.97136
3.92836
3.89483
3.83958
3.78185
3.7027
3.60664
3.47759
3.30549
3.04854
3.98982
3.93669
3.90347
3.84665
3.78717
3.70792
3.61004
3.47954
3.30199
3.03566
4.00826
3.94044
3.90398
3.84609
3.78518
3.7062
3.6076
3.47677
3.29664
3.02871
4.04274
3.95392
3.90962
3.84615
3.78022
3.70221
3.60529
3.4777
3.29431
3.03868
4.06742
3.94126
3.88116
3.81474
3.74904
3.67406
3.58177
3.45878
3.27791
3.00553
4.25174
4.10699
4.00812
3.91382
3.8253
3.73875
3.64271
3.52592
3.35371
3.12255
3.33899
2.99884
2.64292
2.37021
2.13701
2.01029
2.04137
2.33718
2.46582
2.30797
3.26837
2.92213
2.57579
2.3177
2.09464
2.01121
2.08696
2.38367
2.4726
2.3224
3.20073
2.84392
2.50569
2.26373
2.05886
2.00964
2.13636
2.42257
2.478
2.3374
3.13521
2.76417
2.43057
2.2102
2.03181
2.00685
2.18775
2.45328
2.48114
2.3529
3.07173
2.68385
2.35066
2.15662
2.01389
2.00947
2.24039
2.47949
2.48354
2.36882
3.00914
2.60309
2.2666
2.10528
2.00586
2.0225
2.29325
2.50211
2.48574
2.38407
2.9475
2.52237
2.17985
2.05599
2.00357
2.04656
2.34496
2.52161
2.48928
2.39611
2.88637
2.44271
2.09108
2.01212
2.00589
2.07922
2.39131
2.54183
2.49454
2.40785
2.82316
2.36241
2.00157
1.97238
2.00839
2.1191
2.42786
2.55999
2.5027
2.41827
2.75671
2.27967
1.91834
1.93434
2.01121
2.16191
2.45304
2.57881
2.51212
2.42719
2.68464
2.19118
1.8395
1.8943
2.01705
2.20314
2.46837
2.58609
2.52238
2.4347
2.60636
2.09179
1.77119
1.85653
2.0324
2.23994
2.47609
2.59006
2.53218
2.44103
2.51878
1.97516
1.7129
1.82454
2.06425
2.2641
2.47094
2.59055
2.54206
2.44693
2.41907
1.84271
1.66124
1.80513
2.10108
2.27484
2.45825
2.59058
2.55055
2.45092
2.30379
1.69324
1.6078
1.79532
2.13002
2.27258
2.44653
2.59265
2.55653
2.45248
2.16922
1.54189
1.55298
1.79148
2.14536
2.26477
2.4397
2.59493
2.55863
2.44949
2.01146
1.38732
1.49181
1.78751
2.14574
2.25392
2.43755
2.59602
2.55673
2.43942
1.82639
1.24993
1.41693
1.77657
2.13316
2.23127
2.43512
2.5925
2.55374
2.41956
1.58274
1.14913
1.35166
1.76434
2.10611
2.20238
2.42779
2.58082
2.54771
2.38643
1.30594
1.0812
1.30068
1.75143
2.05605
2.16613
2.4111
2.56449
2.53362
2.34037
3.93719
3.79361
3.61661
3.38741
3.13013
2.82813
2.51116
2.20025
1.80561
1.55925
3.94249
3.79735
3.61366
3.38797
3.12708
2.82439
2.50643
2.19014
1.80427
1.57111
3.9499
3.80061
3.61042
3.39169
3.12377
2.81729
2.49769
2.17381
1.80513
1.58201
3.95804
3.80303
3.60656
3.394
3.11787
2.80686
2.48343
2.15063
1.80799
1.60282
3.96569
3.80395
3.6035
3.39354
3.11103
2.79316
2.46372
2.12048
1.8131
1.62897
3.9714
3.80264
3.60166
3.39121
3.101
2.77411
2.43736
2.0869
1.8182
1.66592
3.9757
3.79753
3.60132
3.38654
3.08698
2.75005
2.40592
2.05188
1.82026
1.71479
3.98037
3.78937
3.60049
3.37484
3.06383
2.71958
2.36872
2.01997
1.81821
1.77484
3.98462
3.77995
3.59464
3.35734
3.03038
2.68354
2.32671
1.9939
1.81953
1.83599
3.9853
3.77246
3.58348
3.32625
2.98633
2.64018
2.28015
1.97864
1.83347
1.89371
3.97108
3.77599
3.56758
3.27537
2.93125
2.58958
2.23015
1.97212
1.86065
1.947
3.9486
3.77949
3.54483
3.21103
2.86621
2.53259
2.18102
1.96681
1.90435
1.99984
3.94461
3.77052
3.48688
3.1342
2.79629
2.46917
2.13765
1.95881
1.96117
2.05028
3.97878
3.74616
3.40795
3.04642
2.72175
2.40232
2.09937
1.95107
2.02348
2.09334
4.00705
3.68091
3.30987
2.95342
2.64276
2.32971
2.06953
1.94826
2.09344
2.13037
3.98046
3.58085
3.20642
2.85599
2.56201
2.25189
2.03857
1.95708
2.16492
2.16435
3.88846
3.47404
3.09816
2.76104
2.475
2.17403
2.00228
1.98386
2.23916
2.19781
3.75993
3.36433
2.98639
2.66132
2.38814
2.1027
1.97685
2.03694
2.31989
2.22833
3.61017
3.24603
2.86951
2.55933
2.29749
2.05153
1.9666
2.12278
2.39321
2.25797
3.45227
3.1097
2.74231
2.45284
2.20534
2.02245
1.98643
2.24219
2.44419
2.28702
3.45871
3.11504
2.75449
2.43625
2.16273
2.04372
2.07724
2.32303
2.41268
2.29217
3.61369
3.24904
2.87521
2.55069
2.26027
2.0839
2.04301
2.24627
2.39359
2.26812
3.76002
3.36602
2.98776
2.65563
2.3605
2.12613
2.02655
2.16323
2.36454
2.24903
3.88614
3.47318
3.09775
2.7549
2.45519
2.17718
2.03168
2.07968
2.31681
2.22953
3.97671
3.57859
3.20209
2.85066
2.54465
2.23993
2.0487
2.00883
2.24821
2.20419
4.00354
3.67697
3.30374
2.94415
2.62729
2.3104
2.06644
1.96598
2.16215
2.17151
3.97605
3.74074
3.39933
3.03514
2.70521
2.3835
2.08942
1.95202
2.06461
2.13127
3.9422
3.76508
3.47725
3.12009
2.78056
2.45333
2.12418
1.95412
1.97675
2.08102
3.94625
3.77423
3.5352
3.19637
2.85061
2.52079
2.17305
1.95897
1.90497
2.02283
3.96902
3.77193
3.55804
3.26091
2.91701
2.58143
2.22674
1.96019
1.85746
1.96051
3.98377
3.7692
3.57519
3.31328
2.97368
2.6341
2.2831
1.97095
1.82823
1.89143
3.98343
3.77679
3.58803
3.34844
3.02016
2.67916
2.33286
1.99191
1.81429
1.81215
3.97936
3.78687
3.59563
3.36698
3.05537
2.7165
2.37648
2.02643
1.81538
1.73421
3.97508
3.79581
3.5982
3.38131
3.0815
2.74795
2.41393
2.06347
1.81248
1.67215
3.97131
3.80192
3.59993
3.38922
3.09875
2.77361
2.44511
2.10155
1.80862
1.63159
3.96627
3.80417
3.60301
3.39389
3.11118
2.79409
2.47073
2.13491
1.80803
1.60579
3.95931
3.80413
3.60752
3.39618
3.12002
2.80948
2.4899
2.16263
1.81041
1.5891
3.95168
3.80272
3.61291
3.3953
3.12772
2.82147
2.50374
2.18352
1.813
1.57974
3.94465
3.80025
3.61726
3.39255
3.13262
2.82999
2.51216
2.19692
1.81667
1.57623
3.93949
3.79706
3.62102
3.39247
3.13649
2.83484
2.51678
2.20505
1.8204
1.5663
1.98324
2.15447
3.17088
4.1018
4.14467
4.11962
4.05212
3.96259
3.85923
3.72869
1.81438
1.86528
2.2072
3.66461
4.28807
4.23285
4.18541
4.12166
4.00852
3.8874
1.70524
1.73403
1.78928
2.78786
4.27414
4.31365
4.2844
4.21314
4.12089
4.02874
1.64123
1.66112
1.67785
1.9314
3.96763
4.4046
4.35066
4.28757
4.21129
4.11687
1.59656
1.61112
1.62596
1.65621
3.32138
4.38008
4.34465
4.31023
4.24485
4.16923
1.56036
1.57118
1.58775
1.59742
2.761
4.27192
4.25438
4.22961
4.19734
4.14594
1.5341
1.54214
1.55542
1.56431
2.29624
4.08914
4.22911
4.17162
4.12916
4.08009
1.51641
1.52193
1.53116
1.53842
1.88119
3.87843
4.23221
4.15364
4.09616
4.04631
1.50491
1.50911
1.51536
1.52093
1.57091
3.53239
4.25637
4.17362
4.09629
4.03296
1.49678
1.5002
1.50466
1.50988
1.51439
3.13904
4.20536
4.14015
4.09221
4.05337
1.49123
1.49402
1.49718
1.50216
1.50487
2.77642
4.13343
4.10569
4.07888
4.05508
1.48746
1.48978
1.49236
1.49618
1.49896
2.48074
4.05679
4.10096
4.0771
4.05246
1.48483
1.48676
1.48902
1.49208
1.49447
2.2305
3.9758
4.11064
4.08132
4.05466
1.48295
1.48461
1.4866
1.48923
1.49126
2.01597
3.89605
4.12516
4.09172
4.059
1.48159
1.48308
1.48485
1.48717
1.48896
1.84384
3.81959
4.14003
4.09998
4.06217
1.48059
1.48198
1.4836
1.4857
1.48732
1.69074
3.75116
4.16362
4.10937
4.06266
1.47986
1.48119
1.4827
1.48465
1.48616
1.58657
3.6667
4.18808
4.11381
4.06174
1.47937
1.48066
1.48211
1.48394
1.48536
1.54459
3.58401
4.19463
4.1161
4.05708
1.47909
1.48034
1.48175
1.48349
1.48483
1.52895
3.52782
4.19027
4.11534
4.05143
1.47896
1.4802
1.48157
1.48321
1.4845
1.52494
3.50397
4.18615
4.11391
4.04826
1.4022
1.40686
1.41202
1.41773
1.42415
1.43126
1.43918
1.44899
1.45638
1.72949
1.4022
1.40686
1.41202
1.41773
1.42414
1.43127
1.43917
1.44898
1.45646
1.6503
1.4022
1.40686
1.41202
1.41773
1.42414
1.43128
1.43916
1.44897
1.45652
1.60085
1.4022
1.40686
1.41202
1.41774
1.42413
1.43128
1.43915
1.44895
1.45656
1.56796
1.4022
1.40686
1.41202
1.41774
1.42413
1.43129
1.43915
1.44893
1.45664
1.5387
1.4022
1.40686
1.41202
1.41774
1.42413
1.43129
1.43915
1.4489
1.45674
1.51631
1.4022
1.40686
1.41202
1.41774
1.42412
1.43129
1.43916
1.44888
1.45685
1.5018
1.4022
1.40686
1.41202
1.41774
1.42412
1.43129
1.43916
1.44885
1.45698
1.49225
1.4022
1.40686
1.41202
1.41774
1.42412
1.43129
1.43916
1.44883
1.45711
1.48573
1.4022
1.40686
1.41202
1.41774
1.42412
1.43129
1.43917
1.4488
1.45725
1.48124
1.4022
1.40686
1.41202
1.41775
1.42412
1.4313
1.43917
1.44877
1.45739
1.47823
1.4022
1.40686
1.41202
1.41775
1.42411
1.4313
1.43917
1.44875
1.45753
1.47615
1.4022
1.40686
1.41201
1.41775
1.42411
1.4313
1.43917
1.44873
1.45765
1.47467
1.4022
1.40686
1.41201
1.41775
1.42411
1.4313
1.43917
1.44871
1.45777
1.47359
1.4022
1.40686
1.41201
1.41775
1.42411
1.43131
1.43916
1.4487
1.45787
1.47281
1.4022
1.40686
1.41201
1.41775
1.42411
1.43132
1.43916
1.44871
1.45797
1.47223
1.4022
1.40686
1.41201
1.41775
1.4241
1.43132
1.43915
1.44873
1.45803
1.47181
1.4022
1.40686
1.41201
1.41776
1.4241
1.43133
1.43914
1.44877
1.45808
1.47153
1.4022
1.40686
1.41201
1.41775
1.4241
1.43132
1.43914
1.4488
1.4581
1.47136
1.4022
1.40686
1.41201
1.41776
1.4241
1.43134
1.43913
1.44886
1.4581
1.47127
1.4022
1.40686
1.41201
1.41776
1.4241
1.43134
1.43913
1.44886
1.4581
1.47127
1.4022
1.40686
1.41201
1.41775
1.4241
1.43132
1.43914
1.4488
1.4581
1.47136
1.4022
1.40686
1.41201
1.41776
1.4241
1.43133
1.43914
1.44877
1.45808
1.47153
1.4022
1.40686
1.41201
1.41775
1.4241
1.43132
1.43915
1.44873
1.45803
1.47181
1.4022
1.40686
1.41201
1.41775
1.42411
1.43132
1.43916
1.44871
1.45797
1.47223
1.4022
1.40686
1.41201
1.41775
1.42411
1.43131
1.43916
1.4487
1.45787
1.47281
1.4022
1.40686
1.41201
1.41775
1.42411
1.4313
1.43917
1.44871
1.45777
1.4736
1.4022
1.40686
1.41201
1.41775
1.42411
1.4313
1.43917
1.44873
1.45765
1.47467
1.4022
1.40686
1.41202
1.41775
1.42411
1.4313
1.43917
1.44875
1.45753
1.47616
1.4022
1.40686
1.41202
1.41775
1.42412
1.4313
1.43917
1.44877
1.45739
1.47823
1.4022
1.40686
1.41202
1.41774
1.42412
1.43129
1.43917
1.4488
1.45725
1.48124
1.4022
1.40686
1.41202
1.41774
1.42412
1.43129
1.43916
1.44883
1.45711
1.48571
1.4022
1.40686
1.41202
1.41774
1.42412
1.43129
1.43916
1.44885
1.45698
1.49221
1.4022
1.40686
1.41202
1.41774
1.42412
1.43129
1.43916
1.44888
1.45685
1.50174
1.4022
1.40686
1.41202
1.41774
1.42413
1.43129
1.43915
1.4489
1.45674
1.51622
1.4022
1.40686
1.41202
1.41774
1.42413
1.43129
1.43915
1.44893
1.45664
1.53858
1.4022
1.40686
1.41202
1.41774
1.42413
1.43128
1.43915
1.44895
1.45657
1.56786
1.4022
1.40686
1.41202
1.41773
1.42414
1.43128
1.43916
1.44897
1.45652
1.60076
1.4022
1.40686
1.41202
1.41773
1.42414
1.43127
1.43917
1.44898
1.45646
1.6502
1.4022
1.40686
1.41202
1.41773
1.42415
1.43126
1.43918
1.44899
1.45638
1.72944
1.47896
1.48019
1.48157
1.48321
1.4845
1.52742
3.51487
4.18695
4.11223
4.0466
1.47909
1.48034
1.48175
1.48349
1.48483
1.53147
3.53761
4.19055
4.11353
4.04967
1.47938
1.48066
1.48211
1.48395
1.48537
1.54732
3.59151
4.19393
4.11428
4.05539
1.47987
1.48119
1.48271
1.48466
1.48617
1.58958
3.67068
4.1866
4.11229
4.06021
1.4806
1.48199
1.4836
1.48571
1.48733
1.69212
3.75185
4.1625
4.10827
4.06168
1.4816
1.48309
1.48486
1.48718
1.48897
1.8427
3.8189
4.13933
4.09931
4.06164
1.48296
1.48462
1.48661
1.48924
1.49127
2.01293
3.89458
4.12452
4.0914
4.0589
1.48484
1.48677
1.48904
1.49209
1.49448
2.2258
3.97404
4.11042
4.08139
4.05492
1.48747
1.4898
1.49237
1.49619
1.49898
2.47531
4.05514
4.10097
4.07729
4.05298
1.49123
1.49402
1.49718
1.50216
1.50488
2.77097
4.1323
4.10542
4.07897
4.0557
1.49677
1.50018
1.50463
1.50986
1.5143
3.13406
4.20483
4.14009
4.09255
4.05425
1.50487
1.50906
1.51531
1.52088
1.56995
3.52809
4.2565
4.17421
4.09742
4.03428
1.51634
1.52185
1.53107
1.53832
1.87902
3.87767
4.23315
4.15437
4.09675
4.04749
1.53398
1.54201
1.55528
1.56416
2.29545
4.08892
4.23008
4.17257
4.12978
4.08112
1.56019
1.57101
1.58757
1.59725
2.76126
4.27277
4.25558
4.23096
4.19862
4.14766
1.59638
1.61094
1.62577
1.65599
3.32196
4.38149
4.34635
4.31252
4.24752
4.17257
1.64106
1.66094
1.67763
1.93133
3.96856
4.40644
4.35321
4.29072
4.21458
4.12096
1.70506
1.73381
1.78893
2.78875
4.27541
4.31573
4.28721
4.21684
4.12445
4.03297
1.81418
1.86499
2.20684
3.66662
4.29015
4.23534
4.18823
4.12534
4.01178
3.8908
1.98311
2.15417
3.17171
4.10434
4.14715
4.12238
4.05489
3.96564
3.86118
3.7306
)
;

boundaryField
{
    inlet
    {
        type            calculated;
        value           uniform 1.40001;
    }
    outlet
    {
        type            calculated;
        value           nonuniform List<scalar> 
100
(
2.29242
2.26818
2.24893
2.22942
2.20413
2.17152
2.13124
2.08091
2.02267
1.96041
1.89147
1.81226
1.7343
1.67217
1.63153
1.60569
1.58899
1.57965
1.57616
1.56622
2.41074
2.43287
2.44571
2.451
2.45378
2.45289
2.4489
2.44204
2.4303
2.41735
2.40259
2.38821
2.37465
2.3636
2.35439
2.34616
2.3393
2.337
2.32384
2.31232
2.28988
2.24278
2.19792
2.1621
2.13598
2.1191
2.1072
2.10489
2.10621
2.11744
2.13792
2.16717
2.19606
2.22305
2.24818
2.27181
2.29513
2.32072
2.34976
2.37943
2.30828
2.32276
2.33782
2.35339
2.36937
2.3847
2.39674
2.40851
2.41895
2.42789
2.43541
2.44175
2.44764
2.45161
2.45312
2.45006
2.43987
2.41987
2.38656
2.34033
1.5593
1.57112
1.58197
1.60275
1.62889
1.66583
1.71471
1.77476
1.83588
1.89356
1.94681
1.99961
2.05008
2.09316
2.13025
2.16434
2.19791
2.22846
2.25815
2.28727
)
;
    }
    triangle
    {
        type            calculated;
        value           nonuniform List<scalar> 
40
(
4.25134
4.10661
4.00783
3.91364
3.82541
3.73936
3.64408
3.529
3.35966
3.14003
1.07199
1.05851
1.05077
1.04969
1.05115
1.05776
1.06739
1.08098
1.09235
1.10626
1.11706
1.12394
1.13283
1.13608
1.14139
1.14588
1.15214
1.15753
1.15857
1.1685
4.25174
4.10699
4.00812
3.91382
3.8253
3.73875
3.64271
3.52592
3.35371
3.12255
)
;
    }
    top
    {
        type            symmetryPlane;
    }
    bottom
    {
        type            symmetryPlane;
    }
    defaultFaces
    {
        type            empty;
    }
}


// ************************************************************************* //
