/*--------------------------------*- C++ -*----------------------------------*\
  =========                 |
  \\      /  F ield         | OpenFOAM: The Open Source CFD Toolbox
   \\    /   O peration     | Website:  https://openfoam.org
    \\  /    A nd           | Version:  8
     \\/     M anipulation  |
\*---------------------------------------------------------------------------*/
FoamFile
{
    version     2.0;
    format      ascii;
    class       volScalarField;
    location    "4.2";
    object      T;
}
// * * * * * * * * * * * * * * * * * * * * * * * * * * * * * * * * * * * * * //

dimensions      [0 0 0 1 0 0 0];

internalField   nonuniform List<scalar> 
2600
(
1.59115
1.37888
1.4153
1.56101
1.7153
1.68386
1.62092
1.55257
1.5322
1.52855
1.61321
1.41671
1.45369
1.60605
1.79599
1.76725
1.65223
1.55577
1.54998
1.56221
1.62693
1.46053
1.51003
1.66913
1.87477
1.84563
1.68513
1.56435
1.57179
1.59482
1.637
1.50085
1.57318
1.73883
1.92621
1.88865
1.71506
1.5785
1.59566
1.62258
1.64392
1.52649
1.62816
1.78823
1.94323
1.8991
1.73777
1.59626
1.62013
1.64311
1.65063
1.54734
1.6589
1.80109
1.94466
1.89337
1.75524
1.61767
1.64519
1.65681
1.65765
1.56922
1.66832
1.79073
1.9291
1.88212
1.77273
1.64307
1.66882
1.66411
1.66678
1.58967
1.67334
1.78026
1.91746
1.86739
1.7931
1.67248
1.69128
1.66783
1.6746
1.61149
1.68032
1.75722
1.90358
1.85734
1.81717
1.70705
1.70883
1.66757
1.68407
1.63393
1.68509
1.75114
1.88141
1.84028
1.83567
1.74442
1.71961
1.66077
1.69152
1.65903
1.69329
1.7516
1.84548
1.81645
1.84836
1.77933
1.72575
1.6434
1.69608
1.67889
1.7062
1.74595
1.79665
1.78392
1.86237
1.80609
1.72255
1.62042
1.70042
1.69545
1.71948
1.72175
1.73341
1.74855
1.86241
1.82219
1.71964
1.59577
1.70006
1.70028
1.7236
1.67913
1.67388
1.71539
1.85779
1.83218
1.7147
1.57312
1.70173
1.69649
1.70633
1.61555
1.62135
1.68232
1.84704
1.83663
1.70974
1.55344
1.70472
1.68789
1.66884
1.5526
1.5797
1.65381
1.82646
1.83172
1.70426
1.53571
1.71064
1.6821
1.63026
1.50415
1.54585
1.62607
1.79875
1.82388
1.69347
1.51816
1.71569
1.68442
1.61362
1.4666
1.51481
1.60259
1.76429
1.80299
1.67247
1.49947
1.71469
1.68585
1.60721
1.4324
1.4837
1.58224
1.72712
1.76742
1.63887
1.47956
1.68911
1.66381
1.58124
1.40504
1.45625
1.56803
1.69
1.71881
1.59735
1.45995
1.63514
1.58621
1.51004
1.37124
1.43509
1.5559
1.65223
1.66262
1.5555
1.44174
1.58155
1.49958
1.43399
1.33079
1.40384
1.54035
1.6147
1.60902
1.51868
1.42521
1.56527
1.44149
1.38738
1.304
1.37507
1.522
1.58438
1.57286
1.49663
1.41392
1.56085
1.41653
1.36877
1.29116
1.34832
1.50037
1.56263
1.55126
1.48606
1.4069
1.56376
1.41222
1.36101
1.28471
1.32529
1.47729
1.54691
1.53643
1.48219
1.40355
1.56834
1.41666
1.35858
1.28217
1.31556
1.45558
1.53424
1.52604
1.48095
1.40207
1.57474
1.42783
1.36055
1.28221
1.31006
1.43604
1.52265
1.51923
1.48073
1.40183
1.58214
1.44281
1.36659
1.28439
1.30741
1.41806
1.51226
1.51471
1.48169
1.40299
1.59033
1.45934
1.37594
1.28883
1.30551
1.40148
1.50197
1.51163
1.4828
1.4049
1.59834
1.47506
1.38631
1.29573
1.30415
1.38583
1.49021
1.50893
1.48347
1.40763
1.60534
1.48948
1.3969
1.30578
1.30164
1.37072
1.47622
1.50586
1.48286
1.41021
1.61065
1.50186
1.40679
1.31935
1.2972
1.35681
1.46059
1.50215
1.48128
1.41269
1.61406
1.51252
1.41686
1.33136
1.29512
1.34384
1.44439
1.49757
1.47838
1.41517
1.61575
1.52145
1.42681
1.34098
1.29698
1.3325
1.42822
1.49166
1.47562
1.41843
1.61621
1.5291
1.43679
1.35077
1.30061
1.32363
1.41268
1.48447
1.47283
1.42252
1.61589
1.53566
1.44637
1.361
1.30547
1.31794
1.39767
1.47589
1.47082
1.4269
1.61496
1.54131
1.45535
1.37189
1.31173
1.31577
1.38245
1.46568
1.47043
1.43054
1.6131
1.54597
1.46379
1.38242
1.31877
1.31586
1.36761
1.45321
1.47105
1.43285
1.60999
1.54951
1.47137
1.39258
1.32773
1.31611
1.35423
1.43994
1.47069
1.43113
1.60539
1.55171
1.47811
1.4021
1.33693
1.31619
1.3433
1.42666
1.46747
1.42914
2.15972
2.12901
2.10345
2.07682
2.05059
2.0247
1.99706
1.965
1.91969
1.87649
2.10284
2.07384
2.05612
2.03645
2.01688
1.99494
1.96905
1.93613
1.88929
1.82301
2.06222
2.03981
2.02573
2.00792
1.98992
1.96914
1.94391
1.91137
1.8655
1.79404
2.01977
2.0024
1.99026
1.97372
1.95668
1.93604
1.91129
1.87953
1.83598
1.76166
1.98071
1.96727
1.95629
1.9403
1.924
1.90362
1.8795
1.84869
1.80712
1.73626
1.94426
1.93365
1.92359
1.90884
1.89376
1.87423
1.85127
1.82152
1.78226
1.71726
1.91151
1.90323
1.89387
1.88062
1.86685
1.84854
1.82727
1.79932
1.76255
1.70415
1.88074
1.87519
1.86629
1.8548
1.84251
1.82589
1.80692
1.78128
1.74724
1.69552
1.85035
1.8486
1.84068
1.83133
1.8205
1.80575
1.78935
1.76628
1.73528
1.69003
1.81878
1.82477
1.8164
1.80904
1.79965
1.78733
1.77355
1.75289
1.72545
1.68643
1.78849
1.80095
1.79258
1.78735
1.77965
1.77018
1.75892
1.74074
1.71719
1.68372
1.75798
1.77602
1.76872
1.76548
1.76017
1.7536
1.74416
1.7296
1.71027
1.68101
1.72477
1.75013
1.74485
1.74354
1.74056
1.73667
1.73017
1.71969
1.70376
1.67766
1.6871
1.72213
1.7198
1.72097
1.72089
1.72065
1.71797
1.71062
1.69665
1.67323
1.64162
1.69004
1.69335
1.6986
1.70383
1.70785
1.70638
1.70037
1.68813
1.66777
1.58458
1.6522
1.66794
1.68018
1.68923
1.69557
1.69424
1.68895
1.67871
1.6616
1.49772
1.61238
1.64524
1.66129
1.67295
1.68058
1.68091
1.67709
1.66919
1.65513
1.3913
1.5629
1.6241
1.6407
1.6537
1.66151
1.6667
1.66477
1.65974
1.64842
1.29061
1.47014
1.59438
1.62642
1.63633
1.64354
1.65107
1.65158
1.64966
1.64076
1.21505
1.33589
1.54455
1.61645
1.62032
1.62832
1.63516
1.63873
1.63853
1.63201
1.00063
1.00196
1.00342
1.00505
1.00686
1.00886
1.01111
1.01392
1.01564
1.68049
1.00063
1.00196
1.00342
1.00505
1.00685
1.00886
1.01111
1.01392
1.01564
1.66955
1.00063
1.00196
1.00342
1.00505
1.00685
1.00886
1.01111
1.01392
1.01563
1.64864
1.00063
1.00196
1.00342
1.00505
1.00685
1.00886
1.0111
1.01391
1.01563
1.62138
1.00063
1.00196
1.00342
1.00505
1.00685
1.00887
1.0111
1.0139
1.01564
1.5919
1.00063
1.00196
1.00342
1.00505
1.00685
1.00887
1.01109
1.01388
1.01565
1.5622
1.00063
1.00196
1.00342
1.00505
1.00685
1.00887
1.01109
1.01387
1.01565
1.53325
1.00063
1.00196
1.00342
1.00505
1.00685
1.00887
1.01109
1.01386
1.01566
1.505
1.00063
1.00196
1.00342
1.00505
1.00685
1.00886
1.01109
1.01387
1.01566
1.47737
1.00063
1.00196
1.00342
1.00505
1.00686
1.00886
1.0111
1.01387
1.01566
1.44983
1.00063
1.00196
1.00342
1.00505
1.00686
1.00886
1.01111
1.01387
1.01568
1.42195
1.00063
1.00196
1.00342
1.00505
1.00686
1.00886
1.01111
1.01387
1.0157
1.39329
1.00063
1.00196
1.00342
1.00504
1.00686
1.00886
1.01112
1.01386
1.01574
1.36287
1.00063
1.00195
1.00342
1.00504
1.00686
1.00886
1.01112
1.01385
1.01577
1.32962
1.00063
1.00195
1.00342
1.00504
1.00686
1.00886
1.01112
1.01385
1.0158
1.29208
1.00063
1.00195
1.00342
1.00504
1.00686
1.00886
1.01112
1.01385
1.01583
1.24971
1.00063
1.00195
1.00342
1.00504
1.00686
1.00886
1.01111
1.01385
1.01584
1.20841
1.00063
1.00195
1.00342
1.00504
1.00686
1.00886
1.01111
1.01385
1.01586
1.17059
1.00063
1.00195
1.00342
1.00504
1.00686
1.00886
1.0111
1.01385
1.01587
1.13915
1.00063
1.00195
1.00342
1.00504
1.00686
1.00887
1.0111
1.01386
1.01589
1.11495
1.00063
1.00195
1.00342
1.00504
1.00686
1.00887
1.0111
1.01386
1.01589
1.11494
1.00063
1.00195
1.00342
1.00504
1.00686
1.00886
1.0111
1.01385
1.01587
1.13916
1.00063
1.00195
1.00342
1.00504
1.00686
1.00886
1.01111
1.01385
1.01586
1.17065
1.00063
1.00195
1.00342
1.00504
1.00686
1.00886
1.01111
1.01385
1.01584
1.20854
1.00063
1.00195
1.00342
1.00504
1.00686
1.00886
1.01112
1.01385
1.01583
1.24991
1.00063
1.00195
1.00342
1.00504
1.00686
1.00886
1.01112
1.01385
1.0158
1.29236
1.00063
1.00195
1.00342
1.00504
1.00686
1.00886
1.01112
1.01385
1.01577
1.32993
1.00063
1.00196
1.00342
1.00504
1.00686
1.00886
1.01112
1.01386
1.01574
1.36319
1.00063
1.00196
1.00342
1.00505
1.00686
1.00886
1.01111
1.01387
1.0157
1.39362
1.00063
1.00196
1.00342
1.00505
1.00686
1.00886
1.01111
1.01387
1.01568
1.42228
1.00063
1.00196
1.00342
1.00505
1.00686
1.00886
1.0111
1.01387
1.01566
1.45015
1.00063
1.00196
1.00342
1.00505
1.00685
1.00886
1.01109
1.01387
1.01566
1.47768
1.00063
1.00196
1.00342
1.00505
1.00685
1.00887
1.01109
1.01386
1.01566
1.50529
1.00063
1.00196
1.00342
1.00505
1.00685
1.00887
1.01109
1.01387
1.01565
1.53352
1.00063
1.00196
1.00342
1.00505
1.00685
1.00887
1.01109
1.01388
1.01565
1.56244
1.00063
1.00196
1.00342
1.00505
1.00685
1.00887
1.0111
1.0139
1.01564
1.59212
1.00063
1.00196
1.00342
1.00505
1.00685
1.00886
1.0111
1.01391
1.01563
1.62158
1.00063
1.00196
1.00342
1.00505
1.00685
1.00886
1.01111
1.01392
1.01563
1.64882
1.00063
1.00196
1.00342
1.00505
1.00685
1.00886
1.01111
1.01392
1.01564
1.66969
1.00063
1.00196
1.00342
1.00505
1.00686
1.00886
1.01111
1.01392
1.01564
1.68056
1.21503
1.33587
1.54484
1.61687
1.62068
1.62868
1.6354
1.63892
1.63852
1.63184
1.29066
1.47033
1.59478
1.62681
1.63664
1.64386
1.65125
1.65177
1.64953
1.64044
1.39148
1.56325
1.62445
1.64107
1.654
1.66183
1.66685
1.66496
1.65951
1.64792
1.49808
1.61273
1.64561
1.66171
1.67328
1.68092
1.68107
1.67724
1.66886
1.65442
1.58504
1.65253
1.66835
1.68063
1.6896
1.69591
1.6944
1.68901
1.67827
1.66067
1.64213
1.69044
1.69378
1.69903
1.7042
1.70817
1.70653
1.70033
1.68757
1.66665
1.68765
1.7226
1.72025
1.72137
1.72123
1.72093
1.71808
1.71048
1.696
1.67194
1.72533
1.75064
1.74534
1.74393
1.74086
1.73684
1.73017
1.71946
1.70308
1.67623
1.75854
1.77651
1.76917
1.76586
1.76041
1.75373
1.74406
1.72926
1.70955
1.67946
1.78903
1.80141
1.793
1.78769
1.77986
1.77026
1.75879
1.74029
1.71638
1.68204
1.81928
1.82518
1.81677
1.80933
1.79982
1.78735
1.77343
1.75238
1.72459
1.68467
1.8508
1.84899
1.84102
1.83158
1.82064
1.80573
1.78919
1.76575
1.73438
1.68817
1.88114
1.87554
1.86659
1.85501
1.84261
1.82583
1.80673
1.78072
1.7463
1.69345
1.91187
1.90355
1.89414
1.8808
1.86692
1.84844
1.82703
1.79871
1.76158
1.70165
1.94458
1.93394
1.92384
1.909
1.89381
1.8741
1.85096
1.82089
1.78116
1.71407
1.98102
1.96755
1.95652
1.94045
1.92403
1.90348
1.87914
1.848
1.80582
1.73207
2.02007
2.00267
1.99048
1.97386
1.95671
1.9359
1.91088
1.87879
1.83451
1.7567
2.0625
2.04008
2.02595
2.00805
1.98992
1.96897
1.94346
1.91056
1.86392
1.78937
2.10309
2.07409
2.05632
2.03658
2.01688
1.99478
1.96863
1.93524
1.88784
1.8189
2.15996
2.12924
2.10364
2.07695
2.05063
2.0246
1.99678
1.9643
1.91855
1.87368
1.60347
1.54933
1.47502
1.40788
1.34934
1.31138
1.32512
1.41872
1.47288
1.42237
1.6077
1.54608
1.46784
1.39987
1.34167
1.31428
1.33708
1.43638
1.47615
1.42334
1.61036
1.5414
1.45957
1.39146
1.33503
1.31655
1.35057
1.45061
1.47782
1.42355
1.61165
1.53557
1.45005
1.38343
1.32965
1.31827
1.36545
1.46097
1.47857
1.42329
1.61209
1.52889
1.43944
1.37576
1.32648
1.32147
1.38155
1.46964
1.47924
1.42264
1.61183
1.52133
1.42798
1.36893
1.32633
1.32799
1.39853
1.47843
1.47969
1.42175
1.61038
1.51247
1.41626
1.36296
1.32798
1.33678
1.4168
1.48718
1.48167
1.41938
1.60736
1.50213
1.40479
1.35874
1.33191
1.34764
1.43572
1.49652
1.48423
1.41663
1.6023
1.48981
1.39349
1.35522
1.33869
1.36006
1.45338
1.50473
1.48615
1.41386
1.59513
1.47571
1.38168
1.35347
1.34814
1.37353
1.46742
1.51087
1.48671
1.4116
1.58565
1.46025
1.36621
1.35405
1.36001
1.38831
1.47725
1.5123
1.48653
1.41034
1.57468
1.44363
1.35085
1.35636
1.37585
1.40502
1.48481
1.51305
1.48638
1.40996
1.56307
1.42588
1.33991
1.35898
1.3983
1.4225
1.49003
1.51387
1.48698
1.41072
1.55218
1.40854
1.33239
1.36458
1.4243
1.44105
1.49506
1.51582
1.48833
1.41283
1.54343
1.38997
1.32691
1.37466
1.4515
1.45964
1.5025
1.51994
1.49073
1.41646
1.53796
1.36918
1.32797
1.39051
1.48086
1.4794
1.51232
1.52531
1.49382
1.42191
1.53604
1.34092
1.34013
1.4125
1.51116
1.5021
1.52602
1.53134
1.49727
1.43066
1.54205
1.32528
1.35034
1.44239
1.54446
1.5266
1.54299
1.5379
1.50201
1.44477
1.55429
1.32685
1.36448
1.47855
1.58698
1.55964
1.56355
1.54435
1.50896
1.46588
1.57911
1.34173
1.3852
1.5194
1.64526
1.61352
1.59068
1.54963
1.51917
1.49527
1.74942
1.70967
1.65525
1.58029
1.50001
1.42583
1.36616
1.31258
1.22745
1.18349
1.75026
1.71022
1.65428
1.57972
1.49881
1.42486
1.36522
1.31043
1.227
1.18726
1.75116
1.71042
1.65228
1.57825
1.49624
1.42274
1.36364
1.30735
1.22717
1.19107
1.75165
1.70997
1.64867
1.57462
1.49161
1.41959
1.36126
1.30341
1.22779
1.19854
1.75164
1.70806
1.64315
1.56813
1.48546
1.41579
1.35831
1.29879
1.22833
1.20884
1.751
1.70412
1.63544
1.55906
1.47808
1.41151
1.35469
1.29434
1.22813
1.2234
1.7495
1.69734
1.62537
1.54819
1.47043
1.40743
1.3509
1.28999
1.23004
1.23986
1.74703
1.68684
1.61247
1.53576
1.46266
1.40362
1.3468
1.28589
1.23561
1.25783
1.74289
1.67212
1.59667
1.52327
1.45546
1.40033
1.34264
1.28132
1.24499
1.2772
1.7351
1.65412
1.57964
1.51089
1.44939
1.39695
1.33832
1.27667
1.25645
1.29804
1.71967
1.63578
1.56338
1.49907
1.44427
1.39308
1.33352
1.27375
1.26808
1.31666
1.69584
1.61648
1.54915
1.48943
1.43953
1.38837
1.32814
1.27553
1.27894
1.33262
1.67037
1.59644
1.53435
1.48191
1.4351
1.38232
1.32236
1.28104
1.29079
1.34664
1.64877
1.57836
1.52281
1.47543
1.42991
1.37527
1.31561
1.28544
1.30865
1.36055
1.62804
1.56254
1.51411
1.46941
1.42304
1.36643
1.3086
1.28943
1.33197
1.37597
1.60777
1.55183
1.50866
1.46251
1.41447
1.35532
1.30138
1.29584
1.35993
1.38877
1.59442
1.54856
1.50415
1.4551
1.40312
1.34207
1.2982
1.30339
1.39204
1.39658
1.59042
1.54919
1.49929
1.44535
1.39066
1.32749
1.29924
1.31921
1.41937
1.40395
1.5911
1.55077
1.49302
1.43368
1.37655
1.31513
1.30141
1.34661
1.44291
1.41162
1.59656
1.55096
1.48381
1.41976
1.36127
1.30937
1.30983
1.38591
1.46247
1.4186
1.59797
1.55237
1.48596
1.41542
1.35086
1.31822
1.33129
1.40611
1.45788
1.42327
1.59176
1.55149
1.49366
1.43097
1.36791
1.32364
1.31981
1.37745
1.44335
1.41529
1.59042
1.54945
1.49899
1.44324
1.38425
1.33261
1.3109
1.35055
1.42882
1.40923
1.59417
1.54833
1.50349
1.45299
1.39843
1.34211
1.30813
1.32725
1.4113
1.40389
1.60719
1.5514
1.50729
1.46067
1.41038
1.35184
1.30715
1.30854
1.38309
1.39732
1.62752
1.56183
1.51251
1.46695
1.41947
1.36143
1.30996
1.29282
1.34833
1.38635
1.64851
1.57752
1.52093
1.47279
1.42626
1.37067
1.31439
1.28352
1.31751
1.37105
1.6702
1.5957
1.5325
1.47891
1.43174
1.37873
1.31951
1.27858
1.29446
1.35628
1.69566
1.61582
1.54749
1.48651
1.43632
1.38593
1.32581
1.27485
1.2788
1.34047
1.71949
1.63524
1.56182
1.49636
1.44146
1.39157
1.33197
1.27407
1.265
1.32049
1.73495
1.65354
1.57826
1.50854
1.44695
1.39591
1.3385
1.27775
1.25091
1.29632
1.74274
1.67147
1.59546
1.52167
1.4535
1.39962
1.34395
1.2824
1.23869
1.27008
1.74688
1.68627
1.61143
1.53432
1.46104
1.40313
1.34872
1.28788
1.23056
1.24719
1.7494
1.69691
1.62463
1.54717
1.46934
1.40706
1.35293
1.29256
1.22681
1.22773
1.75098
1.70389
1.63502
1.5586
1.47758
1.4114
1.35664
1.29748
1.22739
1.21152
1.7517
1.70803
1.64302
1.56808
1.48541
1.41593
1.36
1.30205
1.22835
1.20059
1.75178
1.71019
1.6489
1.57502
1.49196
1.42006
1.36274
1.30625
1.22905
1.19391
1.75136
1.71087
1.65285
1.57899
1.49695
1.42354
1.36498
1.30971
1.22934
1.19027
1.75052
1.71082
1.65506
1.5806
1.49981
1.42594
1.36646
1.3121
1.23009
1.18873
1.7497
1.71039
1.65615
1.58125
1.50115
1.42714
1.36735
1.31377
1.23109
1.1855
1.15823
1.19986
1.42809
1.5964
1.6245
1.6296
1.62806
1.62786
1.62654
1.62113
1.11377
1.12634
1.21344
1.52805
1.63979
1.63205
1.62959
1.6281
1.62091
1.61329
1.08466
1.09204
1.10631
1.37678
1.66485
1.65913
1.64733
1.63449
1.62315
1.61444
1.06708
1.07235
1.07665
1.14813
1.64699
1.69561
1.68095
1.66215
1.64249
1.62255
1.0547
1.05861
1.06251
1.07069
1.58873
1.74915
1.7271
1.70291
1.67686
1.6493
1.0447
1.04762
1.05209
1.05463
1.4614
1.77778
1.7599
1.73478
1.70917
1.68015
1.03744
1.03963
1.04324
1.04561
1.31543
1.76059
1.77638
1.76011
1.73549
1.70467
1.03255
1.03406
1.03658
1.03853
1.16217
1.70715
1.78662
1.77277
1.7551
1.7305
1.02936
1.03051
1.03223
1.03374
1.04898
1.64695
1.79575
1.78204
1.76764
1.74859
1.02711
1.02805
1.02928
1.0307
1.03192
1.58389
1.79787
1.78147
1.77126
1.76167
1.02557
1.02634
1.02721
1.02858
1.02932
1.49372
1.79653
1.78343
1.7713
1.76468
1.02453
1.02517
1.02588
1.02693
1.02769
1.39914
1.78693
1.7864
1.77463
1.76573
1.0238
1.02433
1.02496
1.0258
1.02645
1.30867
1.76575
1.78584
1.77737
1.768
1.02328
1.02374
1.02429
1.02501
1.02557
1.22668
1.73469
1.78654
1.77947
1.77039
1.02291
1.02332
1.0238
1.02445
1.02494
1.15873
1.70383
1.78694
1.78054
1.77228
1.02263
1.02301
1.02346
1.02404
1.02448
1.10031
1.68453
1.78939
1.78204
1.77368
1.02243
1.02279
1.02321
1.02375
1.02416
1.05842
1.66947
1.79347
1.78335
1.77495
1.02229
1.02265
1.02305
1.02355
1.02394
1.04285
1.65667
1.7956
1.78479
1.77555
1.02221
1.02256
1.02295
1.02343
1.0238
1.03742
1.6486
1.79599
1.78559
1.77558
1.02218
1.02252
1.0229
1.02335
1.02371
1.03609
1.64537
1.79585
1.78575
1.77541
1.00063
1.00195
1.00342
1.00504
1.00686
1.00887
1.01109
1.01386
1.0159
1.0914
1.00063
1.00195
1.00342
1.00504
1.00686
1.00887
1.01109
1.01385
1.01592
1.06982
1.00063
1.00195
1.00342
1.00504
1.00686
1.00887
1.01109
1.01385
1.01594
1.05623
1.00063
1.00195
1.00342
1.00504
1.00686
1.00888
1.01109
1.01384
1.01595
1.04698
1.00063
1.00195
1.00342
1.00505
1.00685
1.00888
1.01109
1.01384
1.01597
1.0388
1.00063
1.00195
1.00342
1.00505
1.00685
1.00888
1.01109
1.01383
1.016
1.03256
1.00063
1.00195
1.00342
1.00505
1.00685
1.00888
1.01109
1.01382
1.01603
1.02852
1.00063
1.00195
1.00342
1.00505
1.00685
1.00888
1.01109
1.01381
1.01607
1.02587
1.00063
1.00195
1.00342
1.00505
1.00685
1.00888
1.01109
1.01381
1.01611
1.02405
1.00063
1.00195
1.00342
1.00505
1.00685
1.00888
1.01109
1.0138
1.01615
1.02281
1.00063
1.00196
1.00342
1.00505
1.00685
1.00888
1.01109
1.01379
1.01619
1.02197
1.00063
1.00196
1.00342
1.00505
1.00685
1.00888
1.01109
1.01378
1.01623
1.0214
1.00063
1.00196
1.00342
1.00505
1.00685
1.00888
1.01109
1.01378
1.01626
1.02098
1.00063
1.00196
1.00342
1.00505
1.00685
1.00888
1.01109
1.01377
1.01629
1.02069
1.00063
1.00196
1.00342
1.00505
1.00685
1.00888
1.01109
1.01377
1.01632
1.02047
1.00063
1.00196
1.00342
1.00505
1.00685
1.00888
1.01109
1.01377
1.01635
1.02031
1.00063
1.00196
1.00342
1.00505
1.00685
1.00889
1.01109
1.01378
1.01637
1.02019
1.00063
1.00196
1.00342
1.00505
1.00685
1.00889
1.01109
1.01379
1.01638
1.02012
1.00063
1.00196
1.00342
1.00505
1.00685
1.00889
1.01108
1.01379
1.01639
1.02007
1.00063
1.00196
1.00342
1.00505
1.00685
1.00889
1.01108
1.01381
1.01639
1.02004
1.00063
1.00196
1.00342
1.00505
1.00685
1.00889
1.01108
1.01381
1.01639
1.02004
1.00063
1.00196
1.00342
1.00505
1.00685
1.00889
1.01108
1.01379
1.01639
1.02007
1.00063
1.00196
1.00342
1.00505
1.00685
1.00889
1.01109
1.01379
1.01638
1.02012
1.00063
1.00196
1.00342
1.00505
1.00685
1.00889
1.01109
1.01378
1.01637
1.02019
1.00063
1.00196
1.00342
1.00505
1.00685
1.00888
1.01109
1.01377
1.01635
1.02031
1.00063
1.00196
1.00342
1.00505
1.00685
1.00888
1.01109
1.01377
1.01632
1.02047
1.00063
1.00196
1.00342
1.00505
1.00685
1.00888
1.01109
1.01377
1.01629
1.02069
1.00063
1.00196
1.00342
1.00505
1.00685
1.00888
1.01109
1.01378
1.01626
1.02099
1.00063
1.00196
1.00342
1.00505
1.00685
1.00888
1.01109
1.01378
1.01623
1.0214
1.00063
1.00196
1.00342
1.00505
1.00685
1.00888
1.01109
1.01379
1.01619
1.02197
1.00063
1.00195
1.00342
1.00505
1.00685
1.00888
1.01109
1.0138
1.01615
1.02281
1.00063
1.00195
1.00342
1.00505
1.00685
1.00888
1.01109
1.01381
1.01611
1.02405
1.00063
1.00195
1.00342
1.00505
1.00685
1.00888
1.01109
1.01381
1.01607
1.02585
1.00063
1.00195
1.00342
1.00505
1.00685
1.00888
1.01109
1.01382
1.01603
1.02851
1.00063
1.00195
1.00342
1.00505
1.00685
1.00888
1.01109
1.01383
1.016
1.03254
1.00063
1.00195
1.00342
1.00505
1.00685
1.00888
1.01109
1.01384
1.01597
1.03876
1.00063
1.00195
1.00342
1.00504
1.00686
1.00888
1.01109
1.01384
1.01595
1.04695
1.00063
1.00195
1.00342
1.00504
1.00686
1.00887
1.01109
1.01385
1.01594
1.0562
1.00063
1.00195
1.00342
1.00504
1.00686
1.00887
1.01109
1.01385
1.01593
1.06979
1.00063
1.00195
1.00342
1.00504
1.00686
1.00887
1.01109
1.01386
1.0159
1.09138
1.02218
1.02252
1.0229
1.02335
1.02371
1.03696
1.64747
1.79641
1.78593
1.77552
1.02221
1.02256
1.02295
1.02343
1.0238
1.03831
1.65045
1.79644
1.78572
1.77565
1.02229
1.02265
1.02305
1.02355
1.02395
1.04387
1.65811
1.7958
1.78483
1.77557
1.02243
1.02279
1.02321
1.02375
1.02417
1.05969
1.67027
1.79341
1.78328
1.77486
1.02263
1.02301
1.02346
1.02404
1.02449
1.1009
1.68462
1.7892
1.78186
1.77352
1.02291
1.02332
1.02381
1.02445
1.02494
1.15821
1.7034
1.78662
1.78026
1.77208
1.02328
1.02374
1.02429
1.02502
1.02557
1.22532
1.73379
1.78609
1.77912
1.77019
1.0238
1.02434
1.02496
1.0258
1.02646
1.30672
1.76477
1.78539
1.77702
1.7678
1.02453
1.02517
1.02588
1.02693
1.0277
1.39709
1.78624
1.78592
1.77434
1.76555
1.02557
1.02634
1.02721
1.02858
1.02932
1.49195
1.79614
1.78315
1.77101
1.7645
1.02711
1.02805
1.02927
1.0307
1.0319
1.58279
1.7977
1.78127
1.77104
1.76156
1.02935
1.0305
1.03221
1.03372
1.04871
1.64652
1.79574
1.78201
1.76765
1.74867
1.03253
1.03403
1.03655
1.03851
1.16139
1.70708
1.7868
1.77291
1.7552
1.73063
1.03741
1.03959
1.0432
1.04557
1.31525
1.76075
1.77669
1.76042
1.73573
1.70485
1.04465
1.04757
1.05204
1.05458
1.46168
1.77823
1.76038
1.73521
1.70947
1.68044
1.05465
1.05856
1.06246
1.07063
1.58916
1.7497
1.72766
1.70348
1.67738
1.6499
1.06703
1.0723
1.07659
1.14818
1.64753
1.69612
1.68153
1.66277
1.64307
1.62326
1.08461
1.09198
1.10622
1.37718
1.66536
1.65961
1.64788
1.63509
1.62366
1.61503
1.1137
1.12626
1.21336
1.52859
1.64016
1.63253
1.63002
1.6286
1.62135
1.61369
1.15817
1.19976
1.42826
1.59693
1.62476
1.63006
1.62843
1.62817
1.62671
1.62121
)
;

boundaryField
{
    inlet
    {
        type            fixedValue;
        value           uniform 1;
    }
    outlet
    {
        type            inletOutlet;
        inletValue      uniform 1;
        value           nonuniform List<scalar> 
100
(
1.42311
1.41525
1.4093
1.40397
1.39736
1.38634
1.37107
1.35635
1.34058
1.32056
1.29629
1.27001
1.24712
1.22772
1.21157
1.20067
1.19399
1.19034
1.18878
1.18556
1.44136
1.42488
1.41361
1.40661
1.40326
1.40175
1.40148
1.40262
1.40451
1.40721
1.4098
1.41231
1.41484
1.41816
1.42231
1.42673
1.43041
1.43278
1.431
1.42897
1.52866
1.56238
1.59506
1.62285
1.64336
1.65694
1.6642
1.66788
1.66756
1.6607
1.6432
1.6201
1.59539
1.57267
1.55295
1.53515
1.51754
1.49884
1.47898
1.45948
1.42218
1.42312
1.4233
1.42299
1.42231
1.42137
1.419
1.41624
1.41346
1.41119
1.40993
1.40954
1.41031
1.41243
1.41609
1.42158
1.43039
1.44459
1.4658
1.4953
1.18346
1.18725
1.1911
1.19859
1.20891
1.22346
1.23992
1.25789
1.27728
1.29814
1.31679
1.33277
1.34677
1.36067
1.37605
1.38878
1.39652
1.40387
1.41151
1.41845
)
;
    }
    triangle
    {
        type            zeroGradient;
    }
    top
    {
        type            symmetryPlane;
    }
    bottom
    {
        type            symmetryPlane;
    }
    defaultFaces
    {
        type            empty;
    }
}


// ************************************************************************* //
