/*--------------------------------*- C++ -*----------------------------------*\
  =========                 |
  \\      /  F ield         | OpenFOAM: The Open Source CFD Toolbox
   \\    /   O peration     | Website:  https://openfoam.org
    \\  /    A nd           | Version:  8
     \\/     M anipulation  |
\*---------------------------------------------------------------------------*/
FoamFile
{
    version     2.0;
    format      ascii;
    class       volScalarField;
    location    "3.9";
    object      p;
}
// * * * * * * * * * * * * * * * * * * * * * * * * * * * * * * * * * * * * * //

dimensions      [1 -1 -2 0 0 0 0];

internalField   nonuniform List<scalar> 
2600
(
1.42198
1.20728
1.13363
1.57283
2.15808
2.52359
2.56252
2.6116
2.52421
2.34017
1.42042
1.17727
1.12852
1.5941
2.19397
2.56928
2.59496
2.60335
2.5129
2.33798
1.40321
1.1598
1.12265
1.58728
2.23598
2.58216
2.61294
2.59644
2.50898
2.34566
1.3851
1.14286
1.1238
1.59174
2.25474
2.59087
2.61569
2.58706
2.51235
2.35458
1.38073
1.13969
1.12764
1.59985
2.2593
2.62201
2.63255
2.58517
2.51394
2.35795
1.38673
1.14658
1.12894
1.60845
2.2427
2.61669
2.63467
2.59168
2.51394
2.36268
1.38071
1.15293
1.12537
1.60246
2.21359
2.61788
2.63282
2.60029
2.51404
2.36054
1.37316
1.1648
1.13513
1.59912
2.14956
2.57018
2.61895
2.60404
2.51843
2.3652
1.37105
1.17849
1.17744
1.59821
2.13025
2.57133
2.62076
2.60937
2.52314
2.36031
1.37673
1.19092
1.2382
1.60354
2.04604
2.53775
2.6068
2.62695
2.53533
2.36533
1.37911
1.21361
1.31538
1.64475
2.01863
2.53903
2.61342
2.61916
2.53398
2.36671
1.38533
1.23896
1.37589
1.64418
1.97276
2.52071
2.62592
2.63751
2.54612
2.35814
1.38817
1.26478
1.43509
1.68017
1.93571
2.50426
2.65059
2.62996
2.53448
2.35062
1.38437
1.29131
1.47976
1.71354
1.91182
2.46515
2.67154
2.64753
2.54699
2.34406
1.37809
1.31878
1.51697
1.74917
1.90083
2.42836
2.674
2.64805
2.53765
2.33763
1.36131
1.34318
1.54547
1.77237
1.91496
2.40491
2.67178
2.64153
2.54791
2.32911
1.35478
1.36886
1.57009
1.77561
1.90589
2.3756
2.66353
2.63374
2.54538
2.32315
1.35048
1.39709
1.58696
1.76642
1.88823
2.34594
2.65187
2.62065
2.54879
2.31784
1.35792
1.42119
1.60082
1.728
1.90077
2.33333
2.63057
2.62407
2.54446
2.31381
1.36054
1.43235
1.61011
1.68701
1.89202
2.33727
2.61096
2.63096
2.52784
2.30165
1.59306
1.43778
1.61024
1.6376
1.85824
2.33124
2.59575
2.62213
2.51247
2.29828
1.86692
1.47301
1.61157
1.59234
1.78015
2.30273
2.58338
2.61889
2.5063
2.29909
2.13372
1.51804
1.615
1.5628
1.69058
2.25645
2.5709
2.62034
2.50374
2.29402
2.34596
1.58969
1.62758
1.55221
1.625
2.19839
2.55378
2.60879
2.50522
2.2907
2.52545
1.67574
1.64936
1.5533
1.59089
2.13969
2.53388
2.59077
2.50805
2.29213
2.66701
1.77992
1.68122
1.5644
1.58269
2.08759
2.51659
2.57789
2.50717
2.29555
2.78526
1.91197
1.71004
1.57178
1.57477
2.0337
2.50288
2.57268
2.50213
2.2948
2.88942
2.04246
1.73994
1.57936
1.56126
1.97199
2.48951
2.57177
2.49393
2.28965
2.98181
2.16549
1.78878
1.59389
1.54182
1.89829
2.47423
2.57485
2.48358
2.28395
3.06597
2.27786
1.84952
1.62299
1.51693
1.81026
2.44113
2.58407
2.47559
2.27912
3.14506
2.38785
1.91301
1.66353
1.50655
1.72107
2.38408
2.57931
2.47236
2.27601
3.22263
2.49206
1.98856
1.71069
1.51601
1.64423
2.29803
2.56646
2.47117
2.27433
3.30085
2.58943
2.07397
1.76638
1.53716
1.61584
2.19073
2.54285
2.4669
2.27079
3.37783
2.68327
2.16099
1.82712
1.5688
1.61977
2.08243
2.50402
2.45871
2.26466
3.45201
2.77301
2.2492
1.89811
1.61648
1.62494
1.98352
2.45051
2.4468
2.25649
3.52088
2.86016
2.33423
1.96921
1.66534
1.63049
1.90355
2.38312
2.42957
2.2455
3.57698
2.94039
2.41578
2.03975
1.71736
1.64062
1.84472
2.30572
2.40814
2.23137
3.62035
3.01244
2.49259
2.1038
1.77578
1.65022
1.79884
2.24725
2.3832
2.21473
3.65763
3.07677
2.56463
2.16802
1.83036
1.66178
1.76225
2.18716
2.35829
2.19647
3.69324
3.13683
2.63276
2.22963
1.88599
1.67492
1.73192
2.12601
2.33565
2.18162
5.98336
5.74956
5.57976
5.41736
5.25816
5.095
4.90482
4.68348
4.3498
4.04039
5.61256
5.41162
5.31604
5.19814
5.07442
4.92763
4.74647
4.5139
4.17691
3.74646
5.51019
5.36387
5.28162
5.16356
5.04315
4.8984
4.72126
4.49051
4.16029
3.73878
5.38609
5.26665
5.18975
5.07858
4.96752
4.82587
4.65256
4.42293
4.10281
3.67515
5.2714
5.16861
5.10137
5.00018
4.89652
4.75743
4.58903
4.36319
4.05742
3.64509
5.15515
5.06364
5.00465
4.91383
4.82102
4.69095
4.53351
4.31805
4.03068
3.6465
5.04877
4.97132
4.92317
4.84048
4.75517
4.63239
4.48759
4.28634
4.01914
3.66709
4.95726
4.89633
4.85772
4.78019
4.69992
4.58328
4.44995
4.26537
4.02061
3.70064
4.88815
4.84774
4.81454
4.7399
4.65973
4.54902
4.42441
4.25559
4.02989
3.7368
4.86084
4.8177
4.77734
4.70649
4.62699
4.52584
4.41059
4.25924
4.04771
3.77634
4.87012
4.80425
4.75671
4.69264
4.62008
4.5312
4.42259
4.28148
4.07471
3.8189
4.87428
4.78542
4.73847
4.68109
4.6204
4.54669
4.44533
4.30892
4.10595
3.86439
4.84365
4.75455
4.71785
4.675
4.62815
4.5656
4.4677
4.33214
4.13616
3.90968
4.81207
4.74075
4.71699
4.68819
4.64505
4.57899
4.47613
4.34329
4.16097
3.95214
4.79723
4.75839
4.74836
4.71829
4.66364
4.58546
4.4764
4.34709
4.18005
3.98902
4.8199
4.8083
4.79148
4.74623
4.67696
4.58815
4.47534
4.34774
4.19242
4.01576
4.85491
4.86555
4.82383
4.76212
4.68553
4.59092
4.47735
4.35015
4.20156
4.03414
4.87581
4.90419
4.83575
4.7664
4.68906
4.59429
4.48193
4.35544
4.21053
4.0481
4.87015
4.91741
4.83208
4.76413
4.68857
4.59683
4.48823
4.36411
4.222
4.06112
4.8415
4.90899
4.81749
4.75589
4.68348
4.59665
4.49431
4.37476
4.23599
4.07556
1.00242
1.00758
1.0133
1.01972
1.02689
1.03492
1.04465
1.05266
1.31181
3.84611
1.00242
1.00758
1.0133
1.01972
1.02689
1.03492
1.04466
1.05261
1.29891
3.82656
1.00242
1.00758
1.0133
1.01972
1.02689
1.03492
1.04468
1.05241
1.2969
3.79356
1.00242
1.00758
1.0133
1.01972
1.02689
1.03491
1.04469
1.05235
1.27023
3.75515
1.00242
1.00758
1.0133
1.01972
1.02689
1.03491
1.04469
1.05234
1.24664
3.72377
1.00242
1.00758
1.0133
1.01972
1.02689
1.0349
1.0447
1.05233
1.22439
3.68986
1.00242
1.00758
1.01331
1.01972
1.0269
1.0349
1.0447
1.05232
1.20411
3.65093
1.00242
1.00758
1.01331
1.01972
1.0269
1.03489
1.0447
1.05234
1.19072
3.60345
1.00242
1.00758
1.01331
1.01971
1.0269
1.03489
1.04469
1.05237
1.17857
3.53501
1.00242
1.00758
1.01331
1.01971
1.0269
1.03488
1.04467
1.05245
1.16781
3.44435
1.00242
1.00758
1.01331
1.01971
1.02691
1.03488
1.04465
1.05255
1.15381
3.35523
1.00242
1.00758
1.01331
1.01971
1.02691
1.03487
1.04463
1.05269
1.12697
3.27305
1.00242
1.00758
1.01331
1.01971
1.02691
1.03487
1.0446
1.05286
1.10264
3.19376
1.00242
1.00758
1.01331
1.01971
1.02691
1.03487
1.04458
1.05305
1.08652
3.11308
1.00242
1.00758
1.01331
1.01971
1.02691
1.03487
1.04455
1.05326
1.0772
3.022
1.00242
1.00758
1.01331
1.01971
1.02691
1.03488
1.04452
1.05349
1.07182
2.92886
1.00242
1.00758
1.01331
1.01971
1.02691
1.03488
1.04447
1.05372
1.06852
2.83975
1.00242
1.00758
1.01331
1.01971
1.02691
1.03489
1.0444
1.05396
1.06647
2.76106
1.00242
1.00758
1.01331
1.01971
1.02691
1.0349
1.04433
1.05419
1.0652
2.6928
1.00242
1.00758
1.01331
1.0197
1.02691
1.03491
1.04426
1.0544
1.06442
2.62881
1.00242
1.00758
1.01331
1.0197
1.02691
1.03491
1.04426
1.0544
1.06442
2.62913
1.00242
1.00758
1.01331
1.01971
1.02691
1.0349
1.04433
1.05419
1.0652
2.69339
1.00242
1.00758
1.01331
1.01971
1.02691
1.03489
1.0444
1.05396
1.06646
2.7619
1.00242
1.00758
1.01331
1.01971
1.02691
1.03488
1.04447
1.05372
1.06851
2.84078
1.00242
1.00758
1.01331
1.01971
1.02691
1.03488
1.04452
1.05349
1.0718
2.92994
1.00242
1.00758
1.01331
1.01971
1.02691
1.03487
1.04455
1.05327
1.07717
3.02302
1.00242
1.00758
1.01331
1.01971
1.02691
1.03487
1.04458
1.05305
1.08649
3.11398
1.00242
1.00758
1.01331
1.01971
1.02691
1.03487
1.0446
1.05286
1.1026
3.19463
1.00242
1.00758
1.01331
1.01971
1.02691
1.03487
1.04463
1.05269
1.12691
3.2737
1.00242
1.00758
1.01331
1.01971
1.02691
1.03488
1.04465
1.05255
1.15378
3.35539
1.00242
1.00758
1.01331
1.01971
1.0269
1.03488
1.04467
1.05245
1.16777
3.44438
1.00242
1.00758
1.01331
1.01971
1.0269
1.03489
1.04469
1.05237
1.17854
3.53514
1.00242
1.00758
1.01331
1.01972
1.0269
1.03489
1.0447
1.05234
1.19074
3.60356
1.00242
1.00758
1.01331
1.01972
1.0269
1.0349
1.0447
1.05232
1.20423
3.65118
1.00242
1.00758
1.0133
1.01972
1.02689
1.0349
1.0447
1.05233
1.22454
3.69027
1.00242
1.00758
1.0133
1.01972
1.02689
1.03491
1.04469
1.05234
1.24682
3.72438
1.00242
1.00758
1.0133
1.01972
1.02689
1.03491
1.04469
1.05235
1.27038
3.75573
1.00242
1.00758
1.0133
1.01972
1.02689
1.03492
1.04468
1.05241
1.29701
3.79401
1.00242
1.00758
1.0133
1.01972
1.02689
1.03492
1.04466
1.05261
1.29893
3.82687
1.00242
1.00758
1.0133
1.01972
1.02689
1.03492
1.04465
1.05266
1.31182
3.84623
4.84398
4.9118
4.82021
4.75816
4.68519
4.5978
4.49478
4.37473
4.23465
4.07282
4.87261
4.92007
4.83431
4.76588
4.68966
4.59735
4.48818
4.36343
4.21953
4.05683
4.87816
4.90656
4.83757
4.7678
4.68975
4.59443
4.48139
4.35382
4.20674
4.04191
4.85726
4.86775
4.82549
4.7634
4.68609
4.59095
4.47626
4.34741
4.1963
4.02616
4.82203
4.81019
4.79303
4.74741
4.67746
4.58815
4.47366
4.34391
4.18575
4.00643
4.79882
4.75973
4.74955
4.7192
4.66395
4.58523
4.4742
4.34238
4.17231
3.97908
4.81314
4.74166
4.71779
4.68869
4.64477
4.57794
4.47301
4.33778
4.15263
3.94261
4.84459
4.75506
4.71819
4.67497
4.62725
4.56347
4.46325
4.32577
4.12753
3.90121
4.87629
4.78656
4.73909
4.68094
4.61896
4.54337
4.43939
4.30155
4.09719
3.85728
4.87308
4.80627
4.75807
4.6928
4.61852
4.52741
4.41604
4.27383
4.0663
3.81334
4.86389
4.81889
4.77768
4.7057
4.6245
4.52107
4.40341
4.25172
4.03994
3.77244
4.88859
4.84772
4.81432
4.73802
4.65601
4.54322
4.41669
4.24844
4.02293
3.73439
4.95726
4.8961
4.85722
4.77818
4.69609
4.5776
4.44251
4.25911
4.01514
3.70039
5.04916
4.97103
4.92272
4.8388
4.75179
4.62728
4.48091
4.28109
4.01558
3.67026
5.15608
5.06371
5.00421
4.9123
4.81812
4.68658
4.52779
4.31361
4.02888
3.6556
5.27254
5.16882
5.1007
4.99826
4.89325
4.75291
4.58338
4.35872
4.05655
3.66137
5.38701
5.26673
5.18889
5.07637
4.96386
4.82076
4.64634
4.41786
4.10193
3.69549
5.51087
5.36368
5.28051
5.16106
5.03916
4.8928
4.71452
4.48426
4.15826
3.75727
5.61306
5.41129
5.31479
5.19554
5.07031
4.92178
4.73929
4.50674
4.17295
3.75712
5.98419
5.74957
5.57889
5.41515
5.25471
5.08986
4.89845
4.67633
4.34574
4.04827
3.68158
3.10667
2.58609
2.1936
1.88491
1.6949
1.76115
2.17023
2.35282
2.20285
3.64477
3.04446
2.51497
2.1247
1.83485
1.70035
1.81321
2.25006
2.37221
2.2132
3.60615
2.97991
2.43895
2.05942
1.78746
1.70943
1.88227
2.325
2.39039
2.22473
3.56188
2.90822
2.36152
1.98998
1.75087
1.72254
1.97477
2.39311
2.41264
2.23917
3.50599
2.83033
2.27668
1.91709
1.73254
1.74626
2.08264
2.45197
2.44091
2.25642
3.43863
2.74514
2.18636
1.84687
1.7175
1.78643
2.18722
2.49949
2.47508
2.27478
3.36536
2.65645
2.0913
1.7811
1.70981
1.83836
2.27418
2.53418
2.50379
2.29034
3.28985
2.56302
1.99504
1.72087
1.70422
1.898
2.3408
2.56005
2.52306
2.30193
3.21259
2.46634
1.89639
1.66609
1.69874
1.95761
2.3886
2.57873
2.53703
2.31172
3.13627
2.36619
1.79376
1.62021
1.70186
2.01718
2.42448
2.58799
2.54016
2.32024
3.05858
2.25886
1.6928
1.57608
1.72074
2.07578
2.4499
2.58338
2.5334
2.32776
2.97448
2.14669
1.59515
1.53536
1.7502
2.13888
2.46343
2.57529
2.52938
2.33148
2.87972
2.02527
1.50261
1.49348
1.78944
2.20652
2.46412
2.57022
2.53139
2.33323
2.77177
1.8982
1.41069
1.45747
1.83802
2.26861
2.45861
2.56743
2.53607
2.33485
2.65099
1.76176
1.32942
1.42614
1.89337
2.31839
2.45555
2.56498
2.5394
2.3386
2.5108
1.62287
1.27142
1.40765
1.94781
2.35832
2.45849
2.56231
2.53918
2.34257
2.34416
1.48287
1.22127
1.41434
1.99473
2.39656
2.47074
2.56065
2.53718
2.34277
2.1399
1.36605
1.18282
1.43167
2.04133
2.44135
2.49843
2.56552
2.5369
2.33936
1.88901
1.27989
1.158
1.48673
2.08257
2.47362
2.53458
2.57981
2.53786
2.33868
1.64429
1.22794
1.13893
1.53688
2.12316
2.49195
2.55609
2.60131
2.53507
2.34112
4.44241
4.06311
3.71621
3.35844
2.99004
2.61272
2.25089
1.918
1.53471
1.20124
4.42462
4.05644
3.70978
3.35293
2.98469
2.60793
2.24648
1.91066
1.53315
1.20671
4.39925
4.04711
3.70161
3.34402
2.97569
2.5998
2.23873
1.89842
1.53081
1.21648
4.36802
4.03607
3.68948
3.33007
2.962
2.58771
2.2275
1.88151
1.52899
1.23074
4.34241
4.02304
3.67468
3.31261
2.94392
2.57126
2.212
1.8597
1.52759
1.24984
4.32068
4.00794
3.65813
3.2919
2.92136
2.54999
2.19147
1.83338
1.52704
1.27577
4.30202
3.99025
3.63878
3.26812
2.89463
2.52388
2.16514
1.80402
1.52114
1.31298
4.28332
3.96785
3.61168
3.24019
2.86356
2.49278
2.13286
1.77232
1.50853
1.36329
4.26389
3.94099
3.58405
3.20622
2.82641
2.45589
2.09515
1.73969
1.49967
1.42224
4.24407
3.90766
3.54785
3.16445
2.78245
2.41338
2.05107
1.70408
1.4959
1.48744
4.21961
3.87894
3.50874
3.11737
2.73216
2.36513
2.00237
1.67333
1.49416
1.56081
4.19232
3.84031
3.46247
3.06384
2.67915
2.30876
1.94574
1.64673
1.49467
1.64173
4.16114
3.79385
3.40842
3.00194
2.61568
2.24934
1.88648
1.62346
1.5117
1.72795
4.12542
3.7378
3.34436
2.93954
2.54798
2.18312
1.83438
1.60175
1.55489
1.81876
4.0848
3.67584
3.26781
2.85281
2.47483
2.11149
1.77515
1.58735
1.63904
1.90691
4.03244
3.60651
3.1766
2.76406
2.39572
2.038
1.72452
1.58891
1.7678
1.98577
3.96812
3.52799
3.07639
2.66145
2.30558
1.95584
1.69329
1.61287
1.93635
2.04983
3.89666
3.43253
2.96053
2.54851
2.20533
1.86781
1.67638
1.68665
2.10574
2.10481
3.82027
3.32236
2.83115
2.42886
2.08854
1.78102
1.67969
1.83686
2.23676
2.14946
3.74129
3.1986
2.69249
2.29641
1.97014
1.71335
1.71583
2.02807
2.31702
2.18488
3.74994
3.22445
2.73212
2.32388
1.968
1.70614
1.70922
2.02484
2.30354
2.16016
3.8254
3.33971
2.86236
2.4457
2.07862
1.76573
1.6958
1.88472
2.24524
2.13326
3.89915
3.44649
2.98182
2.56285
2.18698
1.84516
1.69416
1.76769
2.15598
2.10721
3.96879
3.53709
3.09254
2.67216
2.29087
1.92978
1.70852
1.67959
2.03705
2.06875
4.0313
3.61123
3.18548
2.76946
2.38397
2.01137
1.73382
1.64284
1.90049
2.02258
4.08197
3.677
3.27321
2.86674
2.46612
2.09386
1.77195
1.62611
1.76456
1.96483
4.12133
3.73632
3.34684
2.93427
2.54326
2.16837
1.82596
1.62018
1.6482
1.89096
4.15615
3.79025
3.40722
3.00193
2.6123
2.23831
1.88544
1.62638
1.5625
1.80099
4.18715
3.83514
3.45956
3.06254
2.6758
2.30532
1.94136
1.64411
1.5168
1.70134
4.21459
3.87337
3.50401
3.11413
2.72977
2.36126
1.99765
1.66881
1.49808
1.59966
4.23972
3.90212
3.54218
3.15898
2.77884
2.41042
2.04778
1.6985
1.49123
1.5017
4.26039
3.93601
3.57826
3.19979
2.82129
2.45175
2.09323
1.73999
1.49431
1.41675
4.28094
3.96357
3.60765
3.23437
2.85764
2.48774
2.13146
1.77164
1.50694
1.34447
4.30074
3.98759
3.63479
3.26302
2.88864
2.51857
2.16349
1.80603
1.51598
1.29207
4.32061
4.007
3.65537
3.2876
2.91565
2.54483
2.18966
1.83736
1.52071
1.25927
4.34353
4.02372
3.67355
3.30947
2.93882
2.56642
2.20945
1.8643
1.52548
1.23699
4.37021
4.03813
3.6898
3.32829
2.9579
2.58312
2.22373
1.88513
1.5308
1.22132
4.40224
4.0502
3.70347
3.34354
2.97268
2.59538
2.23367
1.89986
1.53562
1.21077
4.42817
4.06026
3.71262
3.35329
2.98233
2.6035
2.24041
1.90969
1.53967
1.20394
4.4462
4.06746
3.71939
3.35932
2.98801
2.6082
2.24411
1.91506
1.54191
1.2001
4.79635
4.89602
4.80324
4.74547
4.67491
4.5939
4.501
4.39037
4.25952
4.10547
4.73203
4.86913
4.78421
4.73313
4.66906
4.59647
4.51256
4.41166
4.29027
4.15247
4.66333
4.8403
4.76671
4.72149
4.66284
4.59783
4.52115
4.43049
4.31923
4.19975
4.59311
4.81561
4.75064
4.71127
4.65749
4.59844
4.52791
4.44578
4.34582
4.23941
4.52047
4.79443
4.73604
4.70076
4.65021
4.59586
4.53166
4.45776
4.3726
4.27617
4.44997
4.78442
4.73203
4.69849
4.65098
4.5994
4.53953
4.47132
4.39459
4.30687
4.37419
4.77771
4.73124
4.69991
4.65676
4.60785
4.55168
4.48804
4.41825
4.33784
4.29666
4.76895
4.72842
4.70086
4.66415
4.62086
4.56952
4.51006
4.44327
4.36503
4.22169
4.76347
4.73057
4.70153
4.66872
4.63222
4.58725
4.53356
4.46761
4.39047
4.14824
4.76167
4.74185
4.70791
4.67405
4.64026
4.59963
4.55215
4.48876
4.41362
4.07864
4.77714
4.77012
4.73082
4.68811
4.64955
4.60808
4.56272
4.50538
4.43365
4.0205
4.84181
4.83584
4.78752
4.72948
4.67608
4.62435
4.5728
4.51723
4.4499
3.94065
4.95349
4.96161
4.90087
4.83497
4.74977
4.66838
4.59745
4.53182
4.46309
3.74114
5.0025
5.09161
5.02543
4.97421
4.88829
4.77844
4.66288
4.56557
4.48272
3.47295
4.98046
5.15338
5.08915
5.05542
5.00408
4.91073
4.79057
4.64635
4.51691
3.21674
4.9521
5.18434
5.11754
5.06648
5.04644
4.9855
4.89375
4.76539
4.588
3.01229
4.9266
5.21311
5.13727
5.07643
5.0377
5.0047
4.93233
4.83997
4.68286
2.88616
4.90194
5.22693
5.15705
5.09481
5.03465
5.00478
4.94799
4.87451
4.75156
2.84883
4.88968
5.22138
5.14745
5.09969
5.03992
4.99889
4.94302
4.87344
4.77552
2.8592
4.88059
5.20712
5.14508
5.09938
5.04592
5.00193
4.9406
4.8817
4.79982
1.00242
1.00758
1.01331
1.0197
1.02691
1.03492
1.0442
1.05461
1.06392
2.5479
1.00242
1.00758
1.01331
1.0197
1.02691
1.03492
1.04418
1.05481
1.06361
2.45036
1.00242
1.00758
1.01331
1.0197
1.02692
1.03492
1.04419
1.05496
1.06349
2.35481
1.00242
1.00758
1.01332
1.0197
1.02692
1.03492
1.0442
1.05507
1.06351
2.26302
1.00242
1.00758
1.01332
1.01969
1.02692
1.03492
1.04419
1.05516
1.06355
2.17413
1.00242
1.00758
1.01332
1.01969
1.02692
1.03493
1.04415
1.05524
1.06362
2.09028
1.00242
1.00758
1.01332
1.01969
1.02692
1.03494
1.04411
1.05531
1.0637
2.01288
1.00242
1.00758
1.01332
1.0197
1.02692
1.03495
1.04406
1.05535
1.06378
1.94288
1.00242
1.00758
1.01332
1.0197
1.02691
1.03497
1.04402
1.05537
1.06385
1.87868
1.00243
1.00758
1.01332
1.0197
1.02691
1.03498
1.04399
1.05538
1.0639
1.81871
1.00242
1.00758
1.01332
1.0197
1.0269
1.03499
1.04397
1.05538
1.06392
1.75948
1.00242
1.00758
1.01331
1.01971
1.02689
1.03501
1.04396
1.05538
1.06394
1.69396
1.00242
1.00758
1.01331
1.01971
1.02689
1.03502
1.04395
1.05539
1.06396
1.62036
1.00242
1.00758
1.01331
1.01971
1.02688
1.03503
1.04394
1.0554
1.06398
1.54765
1.00242
1.00758
1.01331
1.01972
1.02687
1.03504
1.04394
1.05541
1.064
1.4818
1.00242
1.00758
1.01331
1.01972
1.02687
1.03504
1.04393
1.05543
1.06402
1.42616
1.00242
1.00758
1.01331
1.01972
1.02686
1.03505
1.04393
1.05545
1.06403
1.38276
1.00242
1.00758
1.01331
1.01972
1.02686
1.03506
1.04392
1.05547
1.06405
1.35092
1.00242
1.00758
1.01331
1.01972
1.02686
1.03506
1.04392
1.05547
1.06406
1.3334
1.00242
1.00758
1.01331
1.01973
1.02686
1.03507
1.04391
1.05551
1.06406
1.32145
1.00242
1.00758
1.01331
1.01973
1.02686
1.03507
1.04391
1.05551
1.06406
1.32155
1.00242
1.00758
1.01331
1.01972
1.02686
1.03506
1.04392
1.05547
1.06405
1.33353
1.00242
1.00758
1.01331
1.01972
1.02686
1.03506
1.04392
1.05547
1.06405
1.35108
1.00242
1.00758
1.01331
1.01972
1.02686
1.03505
1.04393
1.05545
1.06403
1.38294
1.00242
1.00758
1.01331
1.01972
1.02687
1.03504
1.04393
1.05543
1.06402
1.4263
1.00242
1.00758
1.01331
1.01972
1.02687
1.03504
1.04394
1.05541
1.064
1.48183
1.00242
1.00758
1.01331
1.01971
1.02688
1.03503
1.04394
1.0554
1.06398
1.5475
1.00242
1.00758
1.01331
1.01971
1.02689
1.03502
1.04395
1.05539
1.06396
1.62002
1.00242
1.00758
1.01331
1.01971
1.02689
1.03501
1.04396
1.05538
1.06394
1.6935
1.00242
1.00758
1.01332
1.0197
1.0269
1.03499
1.04397
1.05538
1.06392
1.75903
1.00243
1.00758
1.01332
1.0197
1.02691
1.03498
1.04399
1.05538
1.0639
1.81832
1.00242
1.00758
1.01332
1.0197
1.02691
1.03497
1.04402
1.05537
1.06385
1.87832
1.00242
1.00758
1.01332
1.0197
1.02692
1.03495
1.04406
1.05535
1.06378
1.94256
1.00242
1.00758
1.01332
1.01969
1.02692
1.03494
1.04411
1.05531
1.0637
2.01255
1.00242
1.00758
1.01332
1.01969
1.02692
1.03493
1.04415
1.05524
1.06362
2.08993
1.00242
1.00758
1.01332
1.01969
1.02692
1.03492
1.04419
1.05516
1.06355
2.17385
1.00242
1.00758
1.01332
1.0197
1.02692
1.03492
1.0442
1.05507
1.06351
2.2628
1.00242
1.00758
1.01331
1.0197
1.02692
1.03492
1.04419
1.05496
1.06349
2.35474
1.00242
1.00758
1.01331
1.0197
1.02691
1.03492
1.04418
1.05481
1.06361
2.45039
1.00242
1.00758
1.01331
1.0197
1.02691
1.03492
1.0442
1.05461
1.06391
2.54804
2.86496
4.88513
5.21001
5.14756
5.10136
5.04742
5.0026
4.94009
4.88022
4.79717
2.85388
4.89373
5.22374
5.14949
5.10133
5.0409
4.99938
4.94271
4.8721
4.77287
2.89016
4.90505
5.22891
5.15855
5.09576
5.03549
5.00493
4.94731
4.87293
4.74886
3.01522
4.92849
5.21423
5.13806
5.07706
5.03812
5.00453
4.93144
4.83829
4.6803
3.21864
4.95299
5.18465
5.11783
5.0668
5.04658
4.98499
4.89253
4.76342
4.58603
3.47374
4.98051
5.1531
5.08896
5.0553
5.00352
4.90964
4.78887
4.64463
4.51596
3.74067
5.00184
5.09079
5.02473
4.97341
4.88703
4.77688
4.6615
4.5649
4.48256
3.93937
4.95254
4.96064
4.89992
4.83377
4.74833
4.66727
4.59681
4.5318
4.46367
4.01915
4.84065
4.8347
4.7863
4.72812
4.67488
4.62363
4.5726
4.51782
4.45131
4.07691
4.77553
4.76857
4.72925
4.68666
4.64848
4.60757
4.56292
4.50659
4.43597
4.14634
4.75977
4.74003
4.70616
4.67262
4.63939
4.5995
4.55292
4.49075
4.41681
4.21979
4.76152
4.72873
4.69987
4.66759
4.63171
4.58768
4.53502
4.47029
4.39425
4.29488
4.76716
4.72683
4.69965
4.66355
4.6211
4.57066
4.51215
4.4464
4.36902
4.37267
4.77633
4.73022
4.69945
4.657
4.60888
4.55339
4.49047
4.42142
4.3416
4.44899
4.7837
4.73181
4.69885
4.65195
4.60096
4.54153
4.47377
4.3975
4.31009
4.52015
4.79443
4.73674
4.70199
4.65189
4.59788
4.5338
4.46001
4.37493
4.2787
4.59325
4.81609
4.75203
4.71306
4.65943
4.60062
4.53016
4.44793
4.34766
4.24104
4.66434
4.84174
4.76894
4.72382
4.66518
4.60025
4.52343
4.43233
4.32055
4.20031
4.73378
4.8713
4.78687
4.73573
4.67165
4.5989
4.51459
4.41303
4.291
4.15188
4.79857
4.89861
4.80614
4.74824
4.67734
4.59584
4.50225
4.39097
4.2592
4.10387
)
;

boundaryField
{
    inlet
    {
        type            fixedValue;
        value           uniform 1;
    }
    outlet
    {
        type            zeroGradient;
    }
    triangle
    {
        type            zeroGradient;
    }
    top
    {
        type            symmetryPlane;
    }
    bottom
    {
        type            symmetryPlane;
    }
    defaultFaces
    {
        type            empty;
    }
}


// ************************************************************************* //
