/*--------------------------------*- C++ -*----------------------------------*\
  =========                 |
  \\      /  F ield         | OpenFOAM: The Open Source CFD Toolbox
   \\    /   O peration     | Website:  https://openfoam.org
    \\  /    A nd           | Version:  8
     \\/     M anipulation  |
\*---------------------------------------------------------------------------*/
FoamFile
{
    version     2.0;
    format      ascii;
    class       volScalarField;
    location    "1.1";
    object      p;
}
// * * * * * * * * * * * * * * * * * * * * * * * * * * * * * * * * * * * * * //

dimensions      [1 -1 -2 0 0 0 0];

internalField   nonuniform List<scalar> 
2600
(
0.557755
0.540705
0.486826
0.49154
0.617898
0.792125
0.994524
1.29568
1.37504
1.28586
0.558448
0.529969
0.48576
0.50092
0.62565
0.790054
1.00307
1.30016
1.3886
1.28432
0.561267
0.524161
0.485481
0.510708
0.630996
0.787813
1.00969
1.30636
1.40202
1.28492
0.563102
0.518308
0.486373
0.51985
0.63244
0.787209
1.00762
1.30457
1.41
1.29505
0.565817
0.514458
0.487173
0.526052
0.635151
0.782329
1.01047
1.30974
1.41579
1.30773
0.56994
0.512646
0.488729
0.530962
0.635919
0.780712
1.01197
1.31767
1.42
1.30787
0.572273
0.510448
0.490207
0.533335
0.63731
0.779733
1.01304
1.32308
1.42706
1.30684
0.574977
0.5131
0.491725
0.535318
0.6391
0.778595
1.01366
1.32568
1.42921
1.31178
0.576758
0.513784
0.492141
0.536979
0.640612
0.779411
1.01337
1.32819
1.43195
1.30714
0.578336
0.514655
0.493227
0.537384
0.642005
0.776273
1.01159
1.32595
1.4312
1.30815
0.578301
0.514548
0.493316
0.537329
0.642029
0.776177
1.01151
1.32571
1.43144
1.31874
0.576769
0.513715
0.492395
0.536986
0.640615
0.779241
1.01344
1.3275
1.43284
1.31793
0.574999
0.512831
0.490926
0.535229
0.639093
0.778606
1.01373
1.32543
1.42791
1.31144
0.572329
0.510268
0.489737
0.533247
0.637296
0.779747
1.01317
1.3234
1.42344
1.3127
0.570044
0.512826
0.488964
0.53086
0.635855
0.780765
1.01204
1.31803
1.42424
1.30604
0.565891
0.514574
0.487182
0.525986
0.635099
0.782104
1.01073
1.30903
1.41961
1.29332
0.563078
0.518489
0.486604
0.519695
0.632497
0.787413
1.00778
1.30417
1.40567
1.29341
0.56122
0.524114
0.485206
0.510609
0.63102
0.788837
1.00999
1.30711
1.39838
1.29858
0.558444
0.529977
0.485541
0.500794
0.625649
0.790641
1.00353
1.30052
1.38902
1.29178
0.557741
0.540643
0.486637
0.491368
0.617956
0.791735
0.994547
1.29543
1.37815
1.28158
0.659254
0.550628
0.492302
0.485164
0.608268
0.789016
0.988404
1.29475
1.365
1.27313
0.760497
0.576456
0.496666
0.485864
0.599176
0.782028
0.981432
1.29142
1.35096
1.26822
0.869134
0.603103
0.503039
0.490872
0.592737
0.772279
0.971301
1.28319
1.33828
1.26673
0.956955
0.641528
0.517468
0.496731
0.590065
0.759366
0.958723
1.26892
1.32504
1.26212
1.03373
0.686264
0.536267
0.505521
0.591189
0.744455
0.941187
1.25232
1.31035
1.25253
1.09815
0.729327
0.559302
0.519236
0.598932
0.727121
0.918024
1.23643
1.29509
1.24223
1.15239
0.773796
0.584809
0.537238
0.608145
0.70875
0.89212
1.22049
1.27978
1.2336
1.19922
0.814292
0.612779
0.561266
0.620839
0.695978
0.865448
1.20184
1.26425
1.2275
1.23909
0.853569
0.64347
0.590459
0.633999
0.686143
0.837286
1.1822
1.24832
1.22282
1.27359
0.889752
0.676097
0.623848
0.649117
0.67964
0.808785
1.15778
1.23111
1.21465
1.30304
0.924322
0.711137
0.661001
0.664095
0.676303
0.780489
1.12854
1.21164
1.20414
1.32835
0.957203
0.748539
0.699606
0.680346
0.674213
0.754853
1.0962
1.19065
1.19379
1.3502
0.989636
0.789265
0.738695
0.697282
0.672523
0.73436
1.06456
1.16965
1.18398
1.36878
1.02205
0.832902
0.776242
0.715091
0.672384
0.718721
1.03575
1.14979
1.17403
1.38503
1.05487
0.880074
0.812292
0.734131
0.673801
0.706774
1.00955
1.13066
1.16341
1.39914
1.0887
0.929596
0.846574
0.753041
0.678839
0.698255
0.985057
1.11228
1.1516
1.41212
1.12373
0.980293
0.879429
0.773849
0.683091
0.692272
0.960551
1.0949
1.13815
1.42462
1.16081
1.03079
0.910677
0.795396
0.687915
0.689705
0.935306
1.07793
1.12284
1.43755
1.19976
1.07925
0.941271
0.816805
0.694154
0.689107
0.912858
1.05985
1.1057
1.45165
1.2409
1.12452
0.971273
0.837757
0.702463
0.68881
0.890066
1.04114
1.08754
2.81874
2.67936
2.5839
2.49046
2.3994
2.31001
2.21569
2.11118
1.96661
1.79726
2.63095
2.4988
2.43702
2.36911
2.30081
2.22647
2.14197
2.03834
1.89193
1.68375
2.56749
2.46932
2.41699
2.35097
2.28679
2.21635
2.13392
2.02893
1.88217
1.67395
2.48576
2.41195
2.36864
2.30868
2.25134
2.18326
2.10214
1.99706
1.85371
1.64481
2.41372
2.35651
2.32237
2.26893
2.2162
2.15014
2.07158
1.96861
1.83121
1.62466
2.34449
2.30003
2.27196
2.22557
2.1792
2.11713
2.04248
1.94208
1.81036
1.61075
2.28229
2.24982
2.22713
2.18708
2.14535
2.08618
2.01525
1.91791
1.79241
1.60457
2.2291
2.20556
2.18601
2.15067
2.11224
2.05615
1.98924
1.89562
1.77688
1.60266
2.18745
2.16873
2.15106
2.11866
2.08225
2.0288
1.96552
1.8758
1.76385
1.60312
2.15512
2.13663
2.11921
2.08856
2.05381
2.00319
1.94349
1.85807
1.7529
1.6049
2.12805
2.10771
2.09015
2.06104
2.02781
1.97981
1.92335
1.84235
1.74377
1.60758
2.10181
2.08088
2.06361
2.03577
2.00382
1.95834
1.90493
1.82847
1.73622
1.6109
2.07717
2.0563
2.03924
2.01249
1.98182
1.93882
1.88829
1.81633
1.73006
1.61448
2.05387
2.03333
2.01653
1.99085
1.9615
1.92091
1.87314
1.80562
1.72497
1.61801
2.03165
2.01167
1.99532
1.97078
1.94278
1.90443
1.85932
1.79613
1.72072
1.62129
2.01002
1.99087
1.97515
1.95183
1.92522
1.88897
1.84647
1.78743
1.7169
1.62408
1.98892
1.97087
1.95592
1.93386
1.90877
1.8746
1.83457
1.77938
1.71325
1.6262
1.9684
1.95175
1.93763
1.91682
1.89328
1.8612
1.82347
1.77183
1.70965
1.62749
1.94898
1.93433
1.92112
1.90146
1.87925
1.84918
1.81343
1.76484
1.70593
1.62792
1.9309
1.91882
1.90668
1.88822
1.86696
1.83857
1.80441
1.75852
1.70231
1.62811
1.01011
1.03441
1.08427
1.1825
1.22966
1.23149
1.22627
1.24626
1.85361
2.27866
1.01011
1.03441
1.08427
1.1825
1.22966
1.23151
1.22628
1.24588
1.85144
2.26811
1.01011
1.03441
1.08427
1.1825
1.22965
1.23153
1.22627
1.24526
1.8482
2.25275
1.01011
1.03441
1.08427
1.18251
1.22963
1.23157
1.22626
1.24422
1.84352
2.23441
1.01011
1.03441
1.08427
1.18251
1.22961
1.23162
1.22622
1.24286
1.83756
2.21568
1.01011
1.03441
1.08427
1.18252
1.22958
1.23169
1.22616
1.24108
1.83018
2.19615
1.01011
1.03441
1.08427
1.18252
1.22955
1.23176
1.22609
1.2389
1.82138
2.17676
1.01011
1.03441
1.08427
1.18253
1.22952
1.23183
1.22602
1.23634
1.81098
2.15661
1.01011
1.03441
1.08427
1.18254
1.22948
1.23192
1.22592
1.2335
1.79899
2.13625
1.01011
1.03441
1.08428
1.18255
1.22945
1.232
1.22586
1.23036
1.78551
2.11566
1.01011
1.03441
1.08428
1.18256
1.22941
1.23208
1.22579
1.22714
1.77058
2.0956
1.01011
1.03441
1.08428
1.18257
1.22937
1.23216
1.22569
1.22392
1.75448
2.07602
1.01011
1.03441
1.08428
1.18258
1.22933
1.23223
1.22565
1.221
1.73736
2.0569
1.01011
1.03441
1.08429
1.18259
1.2293
1.2323
1.22563
1.21837
1.71926
2.03822
1.01011
1.0344
1.08429
1.1826
1.22926
1.23236
1.22565
1.21613
1.70023
2.02004
1.01011
1.0344
1.08429
1.18261
1.22923
1.23241
1.22574
1.21451
1.68025
2.00241
1.01011
1.0344
1.0843
1.18262
1.2292
1.23244
1.22586
1.21343
1.65937
1.98544
1.01011
1.0344
1.0843
1.18263
1.22917
1.23245
1.22601
1.2128
1.63778
1.96907
1.01011
1.0344
1.08431
1.18263
1.22916
1.23244
1.22616
1.21238
1.61574
1.95317
1.01011
1.0344
1.08432
1.18264
1.22915
1.23243
1.2263
1.21208
1.59339
1.93736
1.01011
1.0344
1.08432
1.18264
1.22915
1.23243
1.2263
1.21208
1.59339
1.93736
1.01011
1.0344
1.08431
1.18263
1.22916
1.23244
1.22616
1.21238
1.61574
1.95317
1.01011
1.0344
1.0843
1.18263
1.22917
1.23245
1.22601
1.2128
1.63778
1.96907
1.01011
1.0344
1.0843
1.18262
1.2292
1.23244
1.22586
1.21343
1.65937
1.98544
1.01011
1.0344
1.08429
1.18261
1.22923
1.23241
1.22574
1.21451
1.68025
2.00241
1.01011
1.0344
1.08429
1.1826
1.22926
1.23236
1.22565
1.21613
1.70023
2.02004
1.01011
1.03441
1.08429
1.18259
1.2293
1.2323
1.22563
1.21837
1.71926
2.03822
1.01011
1.03441
1.08428
1.18258
1.22933
1.23223
1.22565
1.221
1.73736
2.0569
1.01011
1.03441
1.08428
1.18257
1.22937
1.23216
1.22569
1.22392
1.75448
2.07602
1.01011
1.03441
1.08428
1.18256
1.22941
1.23208
1.22579
1.22714
1.77058
2.0956
1.01011
1.03441
1.08428
1.18255
1.22945
1.232
1.22586
1.23036
1.78551
2.11566
1.01011
1.03441
1.08427
1.18254
1.22948
1.23192
1.22592
1.2335
1.79899
2.13625
1.01011
1.03441
1.08427
1.18253
1.22952
1.23183
1.22602
1.23634
1.81098
2.15661
1.01011
1.03441
1.08427
1.18252
1.22955
1.23176
1.22609
1.2389
1.82138
2.17676
1.01011
1.03441
1.08427
1.18252
1.22958
1.23169
1.22616
1.24108
1.83018
2.19615
1.01011
1.03441
1.08427
1.18251
1.22961
1.23162
1.22622
1.24286
1.83756
2.21568
1.01011
1.03441
1.08427
1.18251
1.22963
1.23157
1.22626
1.24422
1.84352
2.23441
1.01011
1.03441
1.08427
1.1825
1.22965
1.23153
1.22627
1.24526
1.8482
2.25275
1.01011
1.03441
1.08427
1.1825
1.22966
1.23151
1.22628
1.24588
1.85144
2.26811
1.01011
1.03441
1.08427
1.1825
1.22966
1.23149
1.22627
1.24626
1.85361
2.27866
1.9309
1.91882
1.90668
1.88822
1.86696
1.83858
1.80441
1.75852
1.7023
1.6281
1.94898
1.93433
1.92112
1.90146
1.87925
1.84918
1.81343
1.76484
1.70592
1.62791
1.9684
1.95175
1.93763
1.91682
1.89328
1.8612
1.82347
1.77182
1.70964
1.62749
1.98892
1.97087
1.95592
1.93386
1.90877
1.8746
1.83457
1.77938
1.71324
1.6262
2.01002
1.99087
1.97515
1.95183
1.92522
1.88897
1.84647
1.78743
1.7169
1.62408
2.03165
2.01167
1.99532
1.97079
1.94278
1.90443
1.85932
1.79613
1.72072
1.62129
2.05387
2.03333
2.01653
1.99085
1.9615
1.92091
1.87313
1.80562
1.72497
1.61801
2.07717
2.0563
2.03924
2.01249
1.98182
1.93882
1.88828
1.81633
1.73005
1.61448
2.10181
2.08088
2.06361
2.03577
2.00382
1.95834
1.90493
1.82847
1.73621
1.6109
2.12805
2.10771
2.09015
2.06104
2.02781
1.9798
1.92335
1.84235
1.74377
1.60758
2.15512
2.13663
2.11921
2.08856
2.05381
2.00319
1.94349
1.85807
1.7529
1.6049
2.18745
2.16873
2.15106
2.11866
2.08225
2.0288
1.96552
1.8758
1.76385
1.60312
2.2291
2.20556
2.18601
2.15067
2.11224
2.05615
1.98923
1.89562
1.77688
1.60266
2.28229
2.24982
2.22713
2.18708
2.14535
2.08618
2.01525
1.91791
1.79241
1.60458
2.34449
2.30003
2.27196
2.22557
2.1792
2.11713
2.04248
1.94208
1.81036
1.61076
2.41372
2.35651
2.32236
2.26893
2.2162
2.15014
2.07158
1.96861
1.83121
1.62467
2.48576
2.41195
2.36864
2.30868
2.25134
2.18326
2.10214
1.99706
1.85371
1.64481
2.56749
2.46932
2.41699
2.35097
2.28679
2.21635
2.13392
2.02892
1.88217
1.67396
2.63095
2.4988
2.43702
2.36911
2.30081
2.22647
2.14197
2.03834
1.89193
1.68376
2.81874
2.67936
2.5839
2.49046
2.3994
2.31001
2.21569
2.11118
1.96661
1.79726
1.45164
1.2409
1.12451
0.971246
0.837725
0.702453
0.68873
0.89002
1.0412
1.08761
1.43754
1.19976
1.07925
0.941246
0.816767
0.694121
0.689019
0.912835
1.0599
1.10584
1.42461
1.16081
1.0308
0.91068
0.795354
0.687861
0.689625
0.935298
1.07785
1.12289
1.41212
1.12373
0.980305
0.879458
0.773807
0.683018
0.692197
0.960552
1.09471
1.13798
1.39914
1.0887
0.929602
0.846607
0.753023
0.678788
0.698178
0.985044
1.11217
1.15127
1.38503
1.05487
0.880069
0.812307
0.734165
0.673745
0.706722
1.0095
1.13087
1.16316
1.36877
1.02205
0.832892
0.776251
0.715139
0.672352
0.718712
1.03569
1.15016
1.17408
1.3502
0.989638
0.789262
0.73872
0.697304
0.67253
0.734396
1.06462
1.16963
1.18435
1.32836
0.957202
0.74855
0.699641
0.680361
0.674292
0.754887
1.09643
1.19003
1.19435
1.30305
0.924321
0.711165
0.661022
0.664133
0.676351
0.78046
1.12876
1.21114
1.20414
1.27359
0.889755
0.676133
0.623851
0.649157
0.679614
0.808724
1.15773
1.23159
1.21341
1.23908
0.853577
0.643499
0.590459
0.634021
0.686067
0.837244
1.182
1.24942
1.22093
1.19922
0.81429
0.612802
0.561276
0.620872
0.695888
0.865381
1.20171
1.26494
1.22822
1.1524
0.773775
0.584809
0.537269
0.608202
0.708665
0.891986
1.22045
1.27933
1.23658
1.09817
0.729297
0.559257
0.519268
0.598995
0.727002
0.917822
1.23652
1.29341
1.24486
1.03376
0.686247
0.536159
0.505518
0.591221
0.744277
0.94105
1.25234
1.30935
1.25111
0.956975
0.641528
0.517361
0.496683
0.590046
0.759193
0.958759
1.26876
1.32597
1.25614
0.86914
0.603128
0.502954
0.49079
0.592702
0.772233
0.971502
1.28307
1.34119
1.26307
0.760495
0.576493
0.496609
0.485866
0.59916
0.782273
0.981693
1.29156
1.35165
1.27221
0.659262
0.55063
0.492188
0.485282
0.608232
0.789561
0.988629
1.29529
1.36271
1.28158
1.90533
1.77331
1.61242
1.44948
1.28004
1.11534
0.938492
0.739401
0.70384
0.796084
1.90272
1.77044
1.60821
1.4469
1.27768
1.11288
0.935775
0.738738
0.705304
0.800913
1.899
1.76676
1.60655
1.44285
1.27352
1.10859
0.931228
0.73731
0.705867
0.803183
1.89442
1.76045
1.60193
1.43648
1.26731
1.10227
0.924613
0.73584
0.707162
0.808391
1.88851
1.7521
1.59453
1.42862
1.25922
1.09392
0.915954
0.734337
0.709286
0.815999
1.88203
1.74217
1.58461
1.41854
1.24905
1.08356
0.905088
0.732791
0.711141
0.825547
1.87445
1.73404
1.57357
1.40635
1.23669
1.07099
0.892177
0.731006
0.714004
0.837068
1.86901
1.72493
1.56071
1.39172
1.22213
1.05647
0.87722
0.729347
0.718455
0.849949
1.86348
1.71486
1.54659
1.37504
1.20553
1.03961
0.860298
0.728614
0.724735
0.864591
1.85744
1.70287
1.53013
1.35638
1.1868
1.02061
0.842068
0.728546
0.732814
0.881157
1.84885
1.68912
1.51202
1.33591
1.16651
0.999473
0.822532
0.730492
0.744635
0.897949
1.83745
1.67402
1.4924
1.31365
1.14429
0.976085
0.802886
0.731818
0.762325
0.913989
1.82311
1.65715
1.47091
1.28875
1.11998
0.950666
0.783412
0.731045
0.787848
0.930584
1.80346
1.63869
1.44697
1.26171
1.09372
0.922589
0.764677
0.728666
0.818681
0.946674
1.77076
1.61678
1.42011
1.23186
1.06479
0.89266
0.74661
0.727074
0.853501
0.962041
1.71806
1.58732
1.39012
1.19859
1.033
0.85906
0.732926
0.729416
0.893379
0.976942
1.6485
1.54275
1.35617
1.16191
0.998242
0.82377
0.717253
0.738554
0.933687
0.991427
1.57793
1.47793
1.31401
1.11987
0.959257
0.78803
0.702518
0.761774
0.970665
1.00743
1.51953
1.39568
1.25907
1.07243
0.914801
0.753261
0.694287
0.80269
0.995266
1.02798
1.47679
1.30632
1.18713
1.01644
0.871419
0.721714
0.68953
0.853722
1.02084
1.05986
1.4768
1.30633
1.18714
1.01644
0.871407
0.721698
0.689558
0.85381
1.02086
1.05988
1.51954
1.39568
1.25908
1.07242
0.914756
0.753249
0.694257
0.802658
0.995344
1.02804
1.57793
1.47793
1.31402
1.11986
0.959246
0.788036
0.702478
0.761689
0.970611
1.00742
1.6485
1.54276
1.35617
1.16191
0.998251
0.823786
0.717243
0.738538
0.9336
0.991372
1.71806
1.58733
1.39013
1.19859
1.03302
0.85907
0.732918
0.72942
0.893325
0.976881
1.77076
1.61678
1.42011
1.23186
1.0648
0.892655
0.746619
0.727087
0.853514
0.962032
1.80346
1.63869
1.44696
1.26171
1.09372
0.922578
0.764677
0.728668
0.818691
0.946709
1.82311
1.65715
1.47092
1.28875
1.11997
0.950659
0.783414
0.731038
0.78783
0.930609
1.83746
1.67402
1.49239
1.31365
1.14429
0.976083
0.802891
0.731811
0.762303
0.91398
1.84885
1.68912
1.51203
1.33591
1.16651
0.999474
0.822539
0.730491
0.744627
0.897933
1.85744
1.70287
1.53014
1.35638
1.1868
1.02062
0.84207
0.72855
0.732818
0.881152
1.86348
1.71486
1.54659
1.37504
1.20554
1.03961
0.860296
0.72862
0.724746
0.864599
1.86901
1.72493
1.56071
1.39173
1.22214
1.05647
0.877216
0.729351
0.718465
0.849964
1.87445
1.73404
1.57357
1.40635
1.2367
1.07099
0.892174
0.731006
0.71401
0.83708
1.88203
1.74217
1.58461
1.41854
1.24905
1.08356
0.905087
0.73279
0.711142
0.825551
1.88852
1.7521
1.59453
1.42862
1.25922
1.09392
0.915954
0.734336
0.709284
0.815999
1.89443
1.76045
1.60193
1.43648
1.26731
1.10227
0.924614
0.73584
0.707161
0.808389
1.899
1.76676
1.60655
1.44285
1.27352
1.10859
0.931229
0.73731
0.705866
0.803181
1.90272
1.77044
1.60821
1.44691
1.27768
1.11288
0.935776
0.738739
0.705304
0.800912
1.90533
1.77331
1.61242
1.44948
1.28004
1.11534
0.938492
0.739401
0.70384
0.796082
1.91276
1.9026
1.89134
1.87384
1.8529
1.82575
1.79304
1.7504
1.69745
1.62913
1.89706
1.88747
1.87612
1.85989
1.8391
1.81219
1.78024
1.74072
1.69172
1.63227
1.88625
1.87435
1.86198
1.84492
1.8246
1.7989
1.7693
1.7342
1.69099
1.64351
1.88946
1.86933
1.85354
1.83434
1.81302
1.78859
1.76109
1.72926
1.69557
1.67196
1.88334
1.85978
1.84361
1.82439
1.8042
1.78218
1.75829
1.73624
1.72629
1.733
1.86927
1.84731
1.83222
1.81485
1.79837
1.78166
1.77098
1.77361
1.79375
1.81201
1.85234
1.83359
1.82088
1.80838
1.79898
1.79653
1.81391
1.84925
1.87577
1.87782
1.83409
1.82081
1.81463
1.81154
1.81897
1.85165
1.9014
1.93492
1.93785
1.91484
1.81469
1.81291
1.81753
1.83509
1.88565
1.94925
1.98981
1.99295
1.97026
1.93279
1.79999
1.81528
1.85144
1.91638
1.98788
2.02904
2.03535
2.01791
1.98465
1.944
1.81243
1.85905
1.94511
2.02157
2.05519
2.05486
2.04237
2.01974
1.98855
1.94943
1.87372
1.95681
2.0439
2.07876
2.07886
2.06111
2.03714
2.01731
1.99151
1.95388
1.97873
2.05436
2.09341
2.0944
2.08115
2.05823
2.03392
2.01531
1.99141
1.95608
2.08154
2.12166
2.12299
2.10659
2.086
2.06232
2.03814
2.01608
1.99077
1.95733
2.14505
2.16289
2.14243
2.11734
2.09523
2.07321
2.05091
2.0271
1.99727
1.96305
2.1766
2.18792
2.15209
2.12765
2.10554
2.08303
2.05844
2.03219
2.00254
1.96877
2.19021
2.20086
2.1611
2.13716
2.11339
2.09003
2.06284
2.03494
2.00554
1.97261
2.19578
2.20699
2.16574
2.14267
2.11756
2.09274
2.06487
2.03668
2.00892
1.97715
2.19719
2.20897
2.16697
2.14453
2.11892
2.09391
2.06685
2.03894
2.01156
1.9806
2.19668
2.20889
2.16701
2.14509
2.12054
2.09549
2.06861
2.04135
2.01362
1.98318
1.01011
1.0344
1.08433
1.18264
1.22914
1.23239
1.22645
1.21184
1.56525
1.91755
1.01011
1.0344
1.08435
1.18263
1.22915
1.23235
1.22657
1.21172
1.53157
1.89373
1.01011
1.0344
1.08437
1.18261
1.22917
1.23231
1.22663
1.21174
1.4985
1.86879
1.01011
1.03439
1.08438
1.18259
1.22922
1.23226
1.22666
1.21184
1.46676
1.84438
1.01011
1.03439
1.0844
1.18255
1.22928
1.23219
1.22665
1.212
1.4366
1.82019
1.01011
1.03439
1.08441
1.18251
1.22937
1.23211
1.22664
1.21224
1.40826
1.79758
1.01011
1.03439
1.08442
1.18245
1.22947
1.23202
1.22662
1.2125
1.38137
1.77485
1.01011
1.03439
1.08443
1.18239
1.22959
1.23191
1.22661
1.21279
1.35576
1.75138
1.01011
1.03439
1.08444
1.18232
1.22972
1.23179
1.22662
1.2131
1.33155
1.72539
1.01011
1.03439
1.08444
1.18224
1.22985
1.23168
1.22667
1.2134
1.3088
1.69982
1.01011
1.03439
1.08443
1.18215
1.22997
1.23156
1.22675
1.21369
1.28726
1.67933
1.01011
1.03439
1.08443
1.18207
1.23009
1.23146
1.22688
1.21387
1.26768
1.66548
1.01011
1.03439
1.08442
1.18198
1.2302
1.23137
1.22703
1.21398
1.25064
1.65728
1.01011
1.0344
1.08441
1.1819
1.2303
1.23129
1.22726
1.21392
1.23705
1.64918
1.01011
1.0344
1.0844
1.18183
1.23038
1.23122
1.22755
1.21305
1.2276
1.64034
1.01011
1.0344
1.08439
1.18176
1.23045
1.23116
1.2279
1.21171
1.2219
1.6316
1.01011
1.0344
1.08438
1.1817
1.2305
1.23112
1.22824
1.21042
1.21847
1.62417
1.01011
1.0344
1.08437
1.18166
1.23054
1.23107
1.22856
1.20938
1.21637
1.61855
1.01011
1.0344
1.08437
1.18163
1.23056
1.23104
1.22876
1.20866
1.21504
1.61438
1.01011
1.03441
1.08437
1.18161
1.23058
1.23101
1.229
1.20825
1.21421
1.61183
1.01011
1.03441
1.08437
1.18161
1.23058
1.23101
1.229
1.20825
1.21421
1.61183
1.01011
1.0344
1.08437
1.18163
1.23056
1.23104
1.22876
1.20866
1.21504
1.61438
1.01011
1.0344
1.08437
1.18166
1.23054
1.23107
1.22856
1.20938
1.21637
1.61855
1.01011
1.0344
1.08438
1.1817
1.2305
1.23112
1.22824
1.21042
1.21847
1.62417
1.01011
1.0344
1.08439
1.18176
1.23045
1.23116
1.2279
1.21171
1.2219
1.6316
1.01011
1.0344
1.0844
1.18183
1.23038
1.23122
1.22755
1.21305
1.2276
1.64034
1.01011
1.0344
1.08441
1.1819
1.2303
1.23129
1.22726
1.21392
1.23705
1.64918
1.01011
1.03439
1.08442
1.18198
1.2302
1.23137
1.22703
1.21398
1.25064
1.65728
1.01011
1.03439
1.08443
1.18207
1.23009
1.23146
1.22688
1.21387
1.26767
1.66548
1.01011
1.03439
1.08443
1.18215
1.22997
1.23156
1.22675
1.21369
1.28726
1.67932
1.01011
1.03439
1.08444
1.18224
1.22985
1.23168
1.22667
1.2134
1.3088
1.69982
1.01011
1.03439
1.08444
1.18232
1.22972
1.23179
1.22662
1.2131
1.33155
1.72539
1.01011
1.03439
1.08443
1.18239
1.22959
1.23191
1.22661
1.21279
1.35576
1.75138
1.01011
1.03439
1.08442
1.18245
1.22947
1.23202
1.22662
1.2125
1.38137
1.77485
1.01011
1.03439
1.08441
1.18251
1.22937
1.23211
1.22664
1.21224
1.40826
1.79758
1.01011
1.03439
1.0844
1.18255
1.22928
1.23219
1.22665
1.212
1.4366
1.82019
1.01011
1.03439
1.08438
1.18259
1.22922
1.23226
1.22666
1.21184
1.46676
1.84438
1.01011
1.0344
1.08437
1.18262
1.22917
1.23231
1.22663
1.21174
1.4985
1.86879
1.01011
1.0344
1.08435
1.18263
1.22915
1.23235
1.22657
1.21172
1.53157
1.89373
1.01011
1.0344
1.08433
1.18264
1.22914
1.23239
1.22645
1.21184
1.56525
1.91755
2.19668
2.20889
2.16701
2.14509
2.12054
2.09549
2.06861
2.04135
2.01362
1.98318
2.19719
2.20897
2.16697
2.14453
2.11892
2.09391
2.06685
2.03894
2.01156
1.9806
2.19578
2.20699
2.16574
2.14268
2.11756
2.09274
2.06487
2.03668
2.00892
1.97715
2.19021
2.20086
2.1611
2.13716
2.11339
2.09003
2.06284
2.03494
2.00554
1.97261
2.1766
2.18792
2.15209
2.12765
2.10554
2.08303
2.05844
2.03219
2.00254
1.96877
2.14505
2.16288
2.14243
2.11734
2.09522
2.07321
2.05091
2.0271
1.99727
1.96305
2.08154
2.12166
2.12299
2.10659
2.086
2.06232
2.03814
2.01608
1.99077
1.95732
1.97873
2.05436
2.09341
2.0944
2.08115
2.05823
2.03392
2.01531
1.99141
1.95608
1.87372
1.95681
2.0439
2.07876
2.07886
2.06111
2.03714
2.01731
1.99151
1.95388
1.81243
1.85905
1.94511
2.02157
2.05519
2.05486
2.04237
2.01974
1.98855
1.94943
1.79999
1.81528
1.85144
1.91638
1.98788
2.02904
2.03535
2.01791
1.98465
1.944
1.81469
1.81291
1.81753
1.83509
1.88565
1.94925
1.98981
1.99295
1.97026
1.93279
1.83409
1.82081
1.81463
1.81154
1.81897
1.85164
1.9014
1.93492
1.93784
1.91484
1.85234
1.83359
1.82087
1.80838
1.79898
1.79653
1.81391
1.84925
1.87577
1.87782
1.86927
1.84731
1.83222
1.81485
1.79837
1.78166
1.77098
1.7736
1.79375
1.81201
1.88334
1.85978
1.84361
1.82439
1.8042
1.78218
1.75829
1.73624
1.72629
1.733
1.88946
1.86933
1.85354
1.83434
1.81302
1.78859
1.76109
1.72926
1.69557
1.67196
1.88625
1.87435
1.86198
1.84492
1.8246
1.7989
1.76929
1.7342
1.69099
1.64351
1.89706
1.88747
1.87612
1.85989
1.8391
1.81219
1.78023
1.74072
1.69172
1.63227
1.91276
1.9026
1.89134
1.87384
1.8529
1.82575
1.79304
1.7504
1.69745
1.62913
)
;

boundaryField
{
    inlet
    {
        type            fixedValue;
        value           uniform 1;
    }
    outlet
    {
        type            zeroGradient;
    }
    triangle
    {
        type            zeroGradient;
    }
    top
    {
        type            symmetryPlane;
    }
    bottom
    {
        type            symmetryPlane;
    }
    defaultFaces
    {
        type            empty;
    }
}


// ************************************************************************* //
