/*--------------------------------*- C++ -*----------------------------------*\
  =========                 |
  \\      /  F ield         | OpenFOAM: The Open Source CFD Toolbox
   \\    /   O peration     | Website:  https://openfoam.org
    \\  /    A nd           | Version:  8
     \\/     M anipulation  |
\*---------------------------------------------------------------------------*/
FoamFile
{
    version     2.0;
    format      ascii;
    class       volScalarField;
    location    "1.1";
    object      rho;
}
// * * * * * * * * * * * * * * * * * * * * * * * * * * * * * * * * * * * * * //

dimensions      [1 -3 0 0 0 0 0];

internalField   nonuniform List<scalar> 
2600
(
0.73514
0.73148
0.700217
0.752221
0.917083
1.12737
1.35189
1.65337
1.71801
1.63493
0.733051
0.706543
0.679983
0.739718
0.901852
1.10324
1.34338
1.64648
1.72627
1.62942
0.738042
0.700402
0.672011
0.729824
0.881107
1.06803
1.31856
1.63238
1.72999
1.62286
0.74215
0.696951
0.670362
0.721075
0.852798
1.0225
1.26617
1.59912
1.72155
1.61961
0.745877
0.693606
0.667471
0.710424
0.82323
0.970072
1.20741
1.55962
1.69903
1.6114
0.748958
0.689468
0.663387
0.70079
0.799262
0.936086
1.1629
1.51439
1.66218
1.58432
0.749233
0.684323
0.660184
0.695332
0.791402
0.925591
1.14788
1.47143
1.62338
1.55238
0.75029
0.684809
0.659789
0.695966
0.794429
0.929407
1.15025
1.4466
1.59025
1.53009
0.751126
0.68446
0.659942
0.698869
0.80051
0.939435
1.15679
1.44209
1.57485
1.51064
0.752314
0.685035
0.661093
0.700386
0.804955
0.941919
1.16
1.44064
1.56938
1.50531
0.752275
0.684954
0.661239
0.70034
0.804977
0.941851
1.15996
1.44047
1.56959
1.51395
0.751116
0.684448
0.660294
0.698879
0.800503
0.9393
1.15687
1.44154
1.57564
1.51959
0.750286
0.684618
0.65916
0.695862
0.794397
0.929395
1.15029
1.44636
1.58934
1.5299
0.749271
0.684178
0.659792
0.695214
0.791357
0.925568
1.14793
1.47167
1.62049
1.5574
0.749046
0.689625
0.663532
0.700657
0.799174
0.936073
1.16284
1.51469
1.66565
1.58288
0.745931
0.693712
0.667412
0.710331
0.823157
0.969782
1.20748
1.55905
1.70226
1.59886
0.742108
0.697114
0.670564
0.720916
0.852845
1.0226
1.2662
1.59877
1.71799
1.61819
0.737983
0.700318
0.671715
0.72973
0.881147
1.06898
1.31881
1.63303
1.72667
1.63499
0.733033
0.706517
0.679741
0.7396
0.901871
1.10383
1.34381
1.64676
1.72644
1.6362
0.735114
0.731422
0.700004
0.752041
0.91715
1.127
1.35192
1.65309
1.72089
1.63117
0.881254
0.780543
0.736203
0.769442
0.927809
1.13978
1.3561
1.65876
1.71082
1.62554
1.04394
0.853351
0.772387
0.791834
0.934545
1.14392
1.3569
1.66005
1.69922
1.62247
1.19735
0.915044
0.802856
0.811874
0.937297
1.1412
1.35162
1.65421
1.68862
1.62212
1.31455
0.978496
0.835629
0.826876
0.939745
1.13169
1.3414
1.64046
1.67758
1.61875
1.40678
1.04199
0.869079
0.842553
0.944309
1.1175
1.32478
1.62399
1.66542
1.61092
1.47536
1.09637
0.903948
0.862122
0.955128
1.09921
1.30144
1.60831
1.65294
1.60271
1.52786
1.14631
0.937552
0.884359
0.965832
1.07867
1.27453
1.59274
1.64055
1.59617
1.57084
1.18868
0.970145
0.911839
0.979203
1.06382
1.24644
1.5747
1.62805
1.59199
1.60691
1.22861
1.00389
0.944354
0.992937
1.05232
1.21669
1.55565
1.61516
1.58908
1.63868
1.26519
1.0393
0.981044
1.00907
1.04498
1.18663
1.5318
1.60084
1.5828
1.66693
1.3004
1.07756
1.02152
1.02532
1.04172
1.15679
1.50273
1.58387
1.57423
1.69242
1.33439
1.11858
1.06339
1.04307
1.04025
1.12952
1.46975
1.56471
1.56585
1.71535
1.36841
1.16306
1.10621
1.06185
1.03873
1.10783
1.43654
1.5448
1.55821
1.73544
1.40277
1.21017
1.14754
1.08201
1.03895
1.09116
1.40562
1.52567
1.5504
1.75322
1.4376
1.26031
1.18715
1.10404
1.04114
1.07838
1.37785
1.50716
1.54171
1.76868
1.47319
1.31214
1.22455
1.12617
1.04708
1.06949
1.35367
1.4894
1.53141
1.78263
1.50933
1.36438
1.2601
1.15038
1.0518
1.064
1.33203
1.47281
1.51902
1.79554
1.5465
1.41565
1.29368
1.17514
1.05687
1.06289
1.31106
1.45694
1.5045
1.80803
1.58426
1.46418
1.32631
1.19934
1.06384
1.0637
1.29253
1.44041
1.4882
1.82061
1.62296
1.509
1.35804
1.22251
1.07407
1.06381
1.2726
1.42351
1.47111
2.85458
2.7508
2.67647
2.60408
2.53413
2.46566
2.39301
2.31162
2.19771
2.04947
2.72442
2.62492
2.57601
2.52284
2.46951
2.41134
2.34484
2.26264
2.14523
1.96973
2.68844
2.61538
2.57675
2.52667
2.47661
2.42076
2.35485
2.27061
2.15164
1.97907
2.63618
2.58078
2.54926
2.50423
2.45982
2.40594
2.34079
2.25569
2.13802
1.96285
2.58889
2.5452
2.51926
2.47817
2.43697
2.38455
2.32127
2.23737
2.12367
1.9483
2.54143
2.50681
2.48434
2.4473
2.40995
2.35981
2.29908
2.21677
2.10721
1.9365
2.49632
2.4703
2.45127
2.41834
2.38389
2.33533
2.27696
2.19659
2.0917
1.93071
2.45479
2.43549
2.41892
2.38967
2.35776
2.31142
2.25594
2.17815
2.07841
1.92912
2.4208
2.4057
2.39119
2.36473
2.33468
2.29053
2.23785
2.16292
2.06839
1.93054
2.39662
2.38212
2.36811
2.3432
2.31452
2.27259
2.22266
2.15093
2.06163
1.93445
2.38121
2.36446
2.34976
2.32564
2.29789
2.25781
2.21026
2.1418
2.05763
1.94031
2.36581
2.34834
2.33361
2.3102
2.28323
2.24492
2.19962
2.13463
2.05545
1.94722
2.34966
2.33222
2.31774
2.29521
2.26925
2.23289
2.18988
2.12851
2.05422
1.95415
2.33308
2.31587
2.3017
2.28014
2.25534
2.22102
2.18038
2.12276
2.05324
1.96048
2.31654
2.29975
2.28598
2.26539
2.24177
2.20939
2.17109
2.11722
2.05227
1.96599
2.30013
2.28394
2.2707
2.25113
2.22871
2.19814
2.16211
2.11182
2.05115
1.97061
2.28419
2.26881
2.25619
2.23769
2.21656
2.18773
2.15379
2.10677
2.04988
1.97431
2.2693
2.25492
2.2429
2.22535
2.20547
2.17831
2.14619
2.10206
2.04849
1.97696
2.25627
2.24328
2.23164
2.21474
2.1957
2.16996
2.13927
2.0975
2.04654
1.97815
2.2438
2.23259
2.22141
2.20504
2.18645
2.16182
2.1322
2.09244
2.04354
1.97823
1.4101
1.43426
1.48337
1.57798
1.62254
1.6243
1.61942
1.63769
2.17105
2.478
1.4101
1.43426
1.48337
1.57798
1.62254
1.62432
1.61942
1.63733
2.16924
2.47199
1.4101
1.43426
1.48337
1.57798
1.62253
1.62434
1.61942
1.63673
2.1662
2.46446
1.4101
1.43426
1.48337
1.57799
1.62251
1.62438
1.61941
1.63573
2.16163
2.45505
1.4101
1.43426
1.48337
1.57799
1.62249
1.62443
1.61939
1.63442
2.15594
2.44482
1.4101
1.43426
1.48337
1.578
1.62246
1.62449
1.61934
1.63274
2.14929
2.43371
1.4101
1.43426
1.48337
1.578
1.62243
1.62456
1.6193
1.6307
2.14188
2.42338
1.4101
1.43426
1.48337
1.57801
1.6224
1.62463
1.61925
1.62832
2.13346
2.41397
1.4101
1.43426
1.48338
1.57802
1.62237
1.62471
1.61918
1.62566
2.12362
2.40561
1.4101
1.43426
1.48338
1.57803
1.62233
1.62479
1.61915
1.62272
2.11206
2.39654
1.4101
1.43426
1.48338
1.57804
1.62229
1.62487
1.61911
1.61968
2.09875
2.38567
1.4101
1.43426
1.48338
1.57805
1.62225
1.62494
1.61901
1.61666
2.08428
2.37293
1.4101
1.43426
1.48338
1.57806
1.62222
1.62501
1.61888
1.61413
2.06892
2.35889
1.4101
1.43426
1.48339
1.57807
1.62218
1.62508
1.61881
1.61184
2.05283
2.34419
1.4101
1.43426
1.48339
1.57808
1.62214
1.62513
1.61882
1.60983
2.03611
2.32931
1.4101
1.43426
1.48339
1.57809
1.62211
1.62518
1.6189
1.6083
2.01869
2.31452
1.4101
1.43426
1.4834
1.5781
1.62208
1.62521
1.61902
1.60728
2.00067
2.30005
1.4101
1.43426
1.48341
1.5781
1.62206
1.62522
1.61916
1.60668
1.98218
2.28596
1.4101
1.43426
1.48341
1.57811
1.62204
1.62521
1.61931
1.60628
1.9634
2.27237
1.4101
1.43426
1.48342
1.57811
1.62203
1.6252
1.61944
1.60599
1.94444
2.25953
1.4101
1.43426
1.48342
1.57811
1.62203
1.6252
1.61944
1.60599
1.94444
2.25953
1.4101
1.43426
1.48341
1.57811
1.62204
1.62521
1.61931
1.60628
1.9634
2.27237
1.4101
1.43426
1.48341
1.5781
1.62206
1.62522
1.61916
1.60668
1.98218
2.28596
1.4101
1.43426
1.4834
1.5781
1.62208
1.62521
1.61902
1.60728
2.00067
2.30005
1.4101
1.43426
1.48339
1.57809
1.62211
1.62518
1.6189
1.6083
2.01869
2.31452
1.4101
1.43426
1.48339
1.57808
1.62214
1.62513
1.61882
1.60983
2.03611
2.32931
1.4101
1.43426
1.48339
1.57807
1.62218
1.62508
1.61881
1.61184
2.05283
2.34419
1.4101
1.43426
1.48338
1.57806
1.62222
1.62501
1.61888
1.61413
2.06892
2.35889
1.4101
1.43426
1.48338
1.57805
1.62225
1.62494
1.61901
1.61666
2.08428
2.37293
1.4101
1.43426
1.48338
1.57804
1.62229
1.62487
1.61911
1.61968
2.09875
2.38567
1.4101
1.43426
1.48338
1.57803
1.62233
1.62479
1.61915
1.62272
2.11206
2.39654
1.4101
1.43426
1.48338
1.57802
1.62237
1.62471
1.61918
1.62566
2.12362
2.40561
1.4101
1.43426
1.48337
1.57801
1.6224
1.62463
1.61925
1.62832
2.13346
2.41397
1.4101
1.43426
1.48337
1.578
1.62243
1.62456
1.6193
1.6307
2.14188
2.42338
1.4101
1.43426
1.48337
1.578
1.62246
1.62449
1.61934
1.63274
2.14929
2.43371
1.4101
1.43426
1.48337
1.57799
1.62249
1.62443
1.61939
1.63442
2.15594
2.44482
1.4101
1.43426
1.48337
1.57799
1.62251
1.62438
1.61941
1.63573
2.16163
2.45505
1.4101
1.43426
1.48337
1.57798
1.62253
1.62434
1.61942
1.63673
2.1662
2.46446
1.4101
1.43426
1.48337
1.57798
1.62254
1.62432
1.61942
1.63733
2.16924
2.47199
1.4101
1.43426
1.48337
1.57798
1.62254
1.6243
1.61942
1.6377
2.17105
2.478
2.2438
2.23259
2.22141
2.20504
2.18645
2.16182
2.1322
2.09244
2.04354
1.97823
2.25627
2.24328
2.23164
2.21474
2.1957
2.16996
2.13927
2.0975
2.04654
1.97815
2.2693
2.25492
2.2429
2.22535
2.20547
2.17831
2.14619
2.10206
2.04848
1.97695
2.28419
2.26881
2.25619
2.23769
2.21656
2.18773
2.15379
2.10677
2.04988
1.97431
2.30013
2.28394
2.2707
2.25113
2.22871
2.19814
2.1621
2.11182
2.05114
1.9706
2.31654
2.29975
2.28598
2.26539
2.24177
2.20939
2.17109
2.11721
2.05226
1.96598
2.33308
2.31587
2.3017
2.28014
2.25534
2.22102
2.18037
2.12275
2.05324
1.96048
2.34966
2.33222
2.31774
2.29521
2.26925
2.23289
2.18988
2.12851
2.05422
1.95415
2.36581
2.34834
2.33361
2.3102
2.28323
2.24491
2.19962
2.13462
2.05544
1.94721
2.38121
2.36446
2.34976
2.32564
2.29789
2.2578
2.21025
2.1418
2.05762
1.94031
2.39662
2.38212
2.36811
2.3432
2.31452
2.27259
2.22266
2.15092
2.06163
1.93445
2.4208
2.4057
2.39119
2.36473
2.33468
2.29053
2.23785
2.16292
2.06839
1.93055
2.45479
2.43549
2.41892
2.38967
2.35775
2.31142
2.25594
2.17815
2.07841
1.92912
2.49632
2.4703
2.45127
2.41834
2.38389
2.33532
2.27696
2.19659
2.0917
1.93072
2.54143
2.50681
2.48434
2.4473
2.40994
2.35981
2.29908
2.21677
2.10721
1.9365
2.58889
2.5452
2.51926
2.47817
2.43697
2.38455
2.32127
2.23737
2.12367
1.9483
2.63618
2.58078
2.54926
2.50423
2.45982
2.40594
2.34079
2.25569
2.13802
1.96286
2.68844
2.61538
2.57675
2.52667
2.47661
2.42076
2.35485
2.27061
2.15164
1.97907
2.72442
2.62492
2.57601
2.52284
2.46951
2.41134
2.34484
2.26263
2.14523
1.96973
2.85458
2.7508
2.67647
2.60408
2.53413
2.46566
2.39301
2.31162
2.19771
2.04947
1.82061
1.62296
1.50899
1.35802
1.22248
1.07406
1.06371
1.27255
1.42356
1.47119
1.80803
1.58426
1.46418
1.32628
1.19929
1.06381
1.0636
1.2925
1.44046
1.48833
1.79554
1.5465
1.41566
1.29368
1.1751
1.05681
1.06281
1.31105
1.45687
1.50455
1.78263
1.50933
1.36439
1.26013
1.15033
1.05172
1.06392
1.33202
1.47262
1.51885
1.76867
1.47319
1.31214
1.22459
1.12615
1.04702
1.06941
1.35365
1.4893
1.5311
1.75321
1.4376
1.26031
1.18716
1.10407
1.04108
1.07833
1.3778
1.50736
1.54147
1.73544
1.40277
1.21015
1.14755
1.08207
1.03891
1.09115
1.40556
1.52602
1.55045
1.71535
1.36841
1.16305
1.10624
1.06187
1.03875
1.10787
1.43659
1.54479
1.55855
1.69242
1.33439
1.11859
1.06343
1.04309
1.04034
1.12956
1.46996
1.56413
1.56637
1.66694
1.3004
1.07759
1.02154
1.02536
1.04177
1.15676
1.50293
1.58344
1.5742
1.63869
1.26519
1.03934
0.981049
1.00912
1.04496
1.18657
1.53175
1.6013
1.58163
1.60691
1.22862
1.00392
0.944355
0.992962
1.05224
1.21665
1.55546
1.61617
1.58732
1.57084
1.18867
0.970167
0.911851
0.979242
1.06372
1.24637
1.57458
1.62867
1.59264
1.52787
1.14629
0.93755
0.884396
0.965899
1.07858
1.27439
1.59271
1.64012
1.5989
1.47539
1.09633
0.903901
0.862162
0.955201
1.09908
1.30123
1.6084
1.6514
1.60512
1.40681
1.04197
0.868958
0.842551
0.944345
1.11731
1.32465
1.62402
1.66451
1.60962
1.31457
0.978488
0.8355
0.826818
0.939718
1.1315
1.34144
1.64032
1.67842
1.61321
1.19736
0.915061
0.802761
0.811779
0.937257
1.14117
1.35183
1.6541
1.69127
1.6187
1.04394
0.853369
0.772335
0.791844
0.93453
1.1442
1.35716
1.6602
1.69988
1.62623
0.881269
0.780518
0.736097
0.769577
0.927774
1.14032
1.35631
1.6593
1.70872
1.63344
2.21356
2.10448
1.96684
1.82315
1.6685
1.51221
1.33698
1.12639
1.08654
1.18554
2.21164
2.10216
1.96328
1.82091
1.66633
1.50986
1.33421
1.12567
1.08819
1.19062
2.20902
2.09924
1.96202
1.81743
1.66257
1.50579
1.32961
1.12421
1.08881
1.19293
2.20548
2.09389
1.95806
1.81181
1.65689
1.49978
1.32289
1.12282
1.09024
1.19828
2.20031
2.08643
1.95135
1.80462
1.64934
1.49178
1.31408
1.12151
1.09255
1.20608
2.1943
2.07729
1.94204
1.79508
1.6396
1.4817
1.30294
1.12022
1.09453
1.21585
2.18743
2.06957
1.9315
1.78328
1.62749
1.46923
1.28957
1.11855
1.09765
1.22767
2.18253
2.06115
1.91937
1.76914
1.61305
1.45458
1.27391
1.11666
1.10267
1.24093
2.17774
2.05217
1.90636
1.75321
1.59658
1.43738
1.25596
1.11547
1.1099
1.25606
2.17253
2.04169
1.8915
1.73564
1.57813
1.41793
1.23638
1.11488
1.11902
1.27315
2.16503
2.02955
1.87511
1.71647
1.55829
1.39628
1.21519
1.11648
1.13166
1.29042
2.15517
2.01599
1.85706
1.69544
1.53656
1.37232
1.19373
1.11745
1.15027
1.30663
2.14315
2.00096
1.83714
1.67162
1.51258
1.34618
1.17234
1.11622
1.17683
1.32305
2.12657
1.98488
1.8152
1.64558
1.48635
1.31704
1.15164
1.1131
1.20838
1.33873
2.09776
1.9658
1.79108
1.61699
1.4572
1.28557
1.13152
1.11092
1.24324
1.35362
2.05036
1.93942
1.76424
1.58538
1.42508
1.2498
1.11605
1.11291
1.28262
1.36808
1.98835
1.89873
1.73303
1.55043
1.38996
1.2117
1.09827
1.12178
1.32235
1.38203
1.92652
1.83969
1.69312
1.50965
1.35036
1.17255
1.08122
1.14583
1.35871
1.39707
1.87676
1.76499
1.64027
1.46236
1.30456
1.13369
1.07113
1.18794
1.38216
1.41596
1.84145
1.6834
1.57045
1.40512
1.25878
1.09727
1.065
1.23848
1.40549
1.44546
1.84146
1.6834
1.57045
1.40512
1.25877
1.09725
1.06503
1.23858
1.40551
1.44548
1.87676
1.76499
1.64028
1.46235
1.30452
1.13367
1.07109
1.1879
1.38223
1.41603
1.92653
1.83969
1.69313
1.50964
1.35035
1.17256
1.08118
1.14573
1.35865
1.39705
1.98836
1.89874
1.73304
1.55043
1.38997
1.21172
1.09825
1.12177
1.32226
1.38198
2.05036
1.93943
1.76424
1.58538
1.42509
1.24981
1.11604
1.11292
1.28257
1.36802
2.09776
1.9658
1.79108
1.61699
1.4572
1.28557
1.13153
1.11093
1.24325
1.35361
2.12657
1.98488
1.8152
1.64559
1.48635
1.31703
1.15164
1.11311
1.20839
1.33877
2.14316
2.00096
1.83714
1.67162
1.51258
1.34617
1.17234
1.11621
1.17681
1.32308
2.15518
2.01599
1.85705
1.69543
1.53656
1.37232
1.19373
1.11744
1.15025
1.30662
2.16503
2.02955
1.87511
1.71647
1.55829
1.39628
1.2152
1.11648
1.13165
1.29041
2.17253
2.04169
1.8915
1.73564
1.57814
1.41793
1.23638
1.11488
1.11903
1.27315
2.17774
2.05217
1.90636
1.75321
1.59659
1.43738
1.25596
1.11548
1.10992
1.25606
2.18254
2.06115
1.91937
1.76915
1.61306
1.45458
1.2739
1.11667
1.10268
1.24095
2.18743
2.06957
1.9315
1.78329
1.62749
1.46923
1.28957
1.11855
1.09765
1.22768
2.1943
2.07729
1.94205
1.79508
1.6396
1.4817
1.30294
1.12022
1.09453
1.21586
2.20031
2.08643
1.95135
1.80462
1.64934
1.49178
1.31408
1.12151
1.09255
1.20608
2.20548
2.09389
1.95807
1.81181
1.65689
1.49978
1.32289
1.12282
1.09024
1.19828
2.20902
2.09924
1.96203
1.81743
1.66257
1.50579
1.32961
1.12421
1.08881
1.19293
2.21164
2.10216
1.96328
1.82091
1.66633
1.50986
1.33422
1.12567
1.08819
1.19062
2.21355
2.10448
1.96684
1.82315
1.6685
1.51221
1.33698
1.12639
1.08654
1.18554
2.22679
2.21729
2.20685
2.19116
2.1727
2.14906
2.12066
2.08356
2.03731
1.97738
2.20794
2.19908
2.18889
2.17455
2.1564
2.1332
2.1057
2.07151
2.02877
1.97677
2.19332
2.18293
2.17223
2.15748
2.13991
2.11786
2.09252
2.06251
2.02533
1.98387
2.1928
2.1766
2.16351
2.14716
2.12873
2.10776
2.08456
2.05742
2.02877
2.00792
2.1916
2.17156
2.1577
2.1413
2.12395
2.10516
2.0847
2.06564
2.05685
2.06234
2.1839
2.1653
2.15232
2.13749
2.12333
2.10867
2.09863
2.10072
2.11743
2.13249
2.17169
2.15597
2.14522
2.13455
2.12655
2.12325
2.13779
2.1671
2.18874
2.18956
2.15668
2.14553
2.14034
2.13747
2.14364
2.17065
2.21176
2.23889
2.24012
2.22067
2.14001
2.13839
2.1422
2.15677
2.19868
2.25096
2.28386
2.28532
2.26634
2.23501
2.12768
2.14009
2.16991
2.22352
2.28199
2.3152
2.31978
2.30534
2.27788
2.24422
2.13806
2.17655
2.24735
2.30954
2.3364
2.33564
2.32539
2.30686
2.28127
2.24898
2.18855
2.25695
2.32786
2.35589
2.35534
2.34082
2.32118
2.30496
2.28383
2.2528
2.27372
2.33514
2.36692
2.36775
2.35699
2.33836
2.31852
2.30332
2.28377
2.25468
2.35533
2.38751
2.38938
2.37649
2.36015
2.34133
2.32189
2.30397
2.28329
2.25586
2.40392
2.41905
2.40303
2.38341
2.36627
2.34924
2.3318
2.31287
2.2888
2.26091
2.42645
2.43694
2.40863
2.38967
2.37271
2.35547
2.33655
2.31623
2.29294
2.2659
2.435
2.44473
2.41333
2.39483
2.37657
2.35882
2.3381
2.31691
2.29444
2.26876
2.43765
2.44721
2.41462
2.39677
2.37745
2.35861
2.33755
2.31639
2.29567
2.27151
2.43768
2.44727
2.41406
2.3966
2.37682
2.35778
2.33738
2.31658
2.29639
2.27327
2.43691
2.44672
2.41355
2.39646
2.37745
2.35835
2.33809
2.31786
2.29748
2.27492
1.4101
1.43426
1.48343
1.57811
1.62203
1.62517
1.61958
1.60577
1.92075
2.24504
1.4101
1.43426
1.48345
1.57811
1.62203
1.62513
1.61969
1.60565
1.89235
2.22825
1.4101
1.43425
1.48347
1.57809
1.62205
1.62509
1.61975
1.60567
1.86423
2.20879
1.4101
1.43425
1.48348
1.57807
1.62209
1.62503
1.61977
1.60577
1.83687
2.18611
1.4101
1.43425
1.4835
1.57803
1.62216
1.62498
1.61977
1.60592
1.81049
2.1605
1.4101
1.43425
1.48351
1.57799
1.62224
1.6249
1.61976
1.60614
1.78544
2.13656
1.4101
1.43425
1.48352
1.57794
1.62235
1.62481
1.61974
1.6064
1.7615
2.11446
1.4101
1.43425
1.48353
1.57788
1.62246
1.6247
1.61972
1.60667
1.73856
2.09345
1.4101
1.43425
1.48353
1.57781
1.62259
1.62459
1.61973
1.60696
1.71673
2.07071
1.4101
1.43425
1.48354
1.57773
1.62272
1.62448
1.61978
1.60725
1.69608
2.0478
1.4101
1.43425
1.48353
1.57765
1.62284
1.62437
1.61985
1.60752
1.67638
2.02874
1.4101
1.43425
1.48352
1.57757
1.62295
1.62427
1.61997
1.6077
1.65828
2.01549
1.4101
1.43425
1.48352
1.57749
1.62306
1.62418
1.62012
1.60781
1.64237
2.00749
1.4101
1.43425
1.48351
1.57742
1.62315
1.62411
1.62033
1.60776
1.62959
1.99964
1.4101
1.43425
1.4835
1.57735
1.62323
1.62404
1.6206
1.60695
1.62069
1.99101
1.4101
1.43426
1.48349
1.57728
1.6233
1.62398
1.62093
1.60568
1.61531
1.98238
1.4101
1.43426
1.48348
1.57723
1.62335
1.62394
1.62125
1.60446
1.61208
1.9749
1.4101
1.43426
1.48347
1.57719
1.62338
1.6239
1.62155
1.60348
1.6101
1.96912
1.4101
1.43426
1.48347
1.57716
1.6234
1.62387
1.62174
1.60281
1.60884
1.96488
1.4101
1.43426
1.48346
1.57715
1.62342
1.62384
1.62197
1.60242
1.60806
1.96242
1.4101
1.43426
1.48346
1.57715
1.62342
1.62384
1.62197
1.60242
1.60806
1.96242
1.4101
1.43426
1.48347
1.57716
1.6234
1.62387
1.62174
1.60281
1.60884
1.96488
1.4101
1.43426
1.48347
1.57719
1.62338
1.6239
1.62155
1.60348
1.6101
1.96912
1.4101
1.43426
1.48348
1.57723
1.62335
1.62394
1.62125
1.60446
1.61208
1.9749
1.4101
1.43426
1.48349
1.57728
1.6233
1.62398
1.62093
1.60568
1.61531
1.98238
1.4101
1.43425
1.4835
1.57735
1.62323
1.62404
1.6206
1.60695
1.62069
1.99101
1.4101
1.43425
1.48351
1.57742
1.62315
1.62411
1.62033
1.60776
1.62959
1.99964
1.4101
1.43425
1.48352
1.57749
1.62306
1.62418
1.62012
1.60781
1.64237
2.00749
1.4101
1.43425
1.48352
1.57757
1.62295
1.62427
1.61997
1.6077
1.65828
2.01549
1.4101
1.43425
1.48353
1.57765
1.62284
1.62437
1.61985
1.60752
1.67638
2.02874
1.4101
1.43425
1.48354
1.57773
1.62272
1.62448
1.61978
1.60725
1.69608
2.0478
1.4101
1.43425
1.48353
1.57781
1.62259
1.62459
1.61973
1.60696
1.71673
2.07071
1.4101
1.43425
1.48353
1.57788
1.62246
1.6247
1.61972
1.60667
1.73856
2.09345
1.4101
1.43425
1.48352
1.57794
1.62235
1.62481
1.61974
1.60639
1.7615
2.11446
1.4101
1.43425
1.48351
1.57799
1.62224
1.6249
1.61976
1.60614
1.78544
2.13655
1.4101
1.43425
1.4835
1.57803
1.62216
1.62498
1.61977
1.60592
1.81049
2.1605
1.4101
1.43425
1.48348
1.57807
1.62209
1.62503
1.61977
1.60577
1.83687
2.18611
1.4101
1.43425
1.48347
1.57809
1.62205
1.62509
1.61975
1.60567
1.86423
2.20879
1.4101
1.43426
1.48345
1.57811
1.62203
1.62513
1.61969
1.60565
1.89235
2.22825
1.4101
1.43426
1.48343
1.57811
1.62203
1.62517
1.61958
1.60577
1.92075
2.24504
2.43691
2.44672
2.41355
2.39646
2.37745
2.35835
2.33809
2.31786
2.29748
2.27492
2.43768
2.44727
2.41406
2.3966
2.37682
2.35778
2.33738
2.31658
2.29639
2.27327
2.43765
2.44721
2.41462
2.39677
2.37745
2.35861
2.33755
2.31639
2.29567
2.27151
2.435
2.44473
2.41333
2.39483
2.37657
2.35882
2.3381
2.31691
2.29444
2.26876
2.42645
2.43694
2.40863
2.38967
2.37271
2.35547
2.33655
2.31623
2.29294
2.2659
2.40392
2.41905
2.40303
2.38341
2.36627
2.34924
2.3318
2.31287
2.2888
2.26091
2.35533
2.38751
2.38938
2.37649
2.36014
2.34133
2.32189
2.30397
2.28329
2.25586
2.27372
2.33514
2.36692
2.36775
2.35699
2.33835
2.31852
2.30332
2.28377
2.25468
2.18855
2.25695
2.32786
2.35589
2.35534
2.34082
2.32118
2.30496
2.28383
2.2528
2.13806
2.17655
2.24735
2.30954
2.3364
2.33564
2.32539
2.30686
2.28127
2.24898
2.12768
2.14009
2.16991
2.22352
2.28199
2.3152
2.31978
2.30534
2.27788
2.24422
2.14002
2.13839
2.1422
2.15677
2.19868
2.25096
2.28386
2.28532
2.26634
2.23501
2.15668
2.14553
2.14033
2.13747
2.14364
2.17065
2.21176
2.23888
2.24012
2.22067
2.17169
2.15597
2.14522
2.13455
2.12655
2.12325
2.13779
2.1671
2.18873
2.18956
2.1839
2.1653
2.15232
2.13749
2.12333
2.10867
2.09863
2.10072
2.11742
2.13249
2.1916
2.17156
2.1577
2.1413
2.12395
2.10516
2.0847
2.06564
2.05684
2.06234
2.19279
2.17659
2.16351
2.14716
2.12873
2.10776
2.08456
2.05742
2.02877
2.00792
2.19332
2.18293
2.17223
2.15748
2.13991
2.11786
2.09252
2.06251
2.02533
1.98387
2.20794
2.19908
2.18889
2.17455
2.1564
2.1332
2.1057
2.07151
2.02877
1.97677
2.22679
2.21729
2.20685
2.19116
2.1727
2.14906
2.12066
2.08356
2.03731
1.97738
)
;

boundaryField
{
    inlet
    {
        type            calculated;
        value           uniform 1.40001;
    }
    outlet
    {
        type            calculated;
        value           nonuniform List<scalar> 
100
(
1.446
1.41636
1.39716
1.38201
1.36802
1.35358
1.33872
1.32302
1.30655
1.29033
1.27303
1.25592
1.24079
1.22751
1.21568
1.20589
1.19809
1.19274
1.19043
1.18536
1.62562
1.62227
1.62188
1.61886
1.61116
1.6029
1.59625
1.59188
1.58904
1.58294
1.57443
1.56601
1.55834
1.55056
1.54193
1.53173
1.51944
1.50499
1.48875
1.47168
1.63465
1.62899
1.62285
1.62004
1.61161
1.5841
1.55222
1.53014
1.51103
1.50548
1.51411
1.51935
1.52999
1.55773
1.58317
1.59895
1.61761
1.63482
1.63652
1.6314
1.47176
1.48888
1.50503
1.51926
1.53142
1.5417
1.55062
1.5587
1.56653
1.57434
1.58171
1.58733
1.59272
1.59903
1.60519
1.60955
1.61319
1.61883
1.62641
1.63356
1.18536
1.19044
1.19274
1.1981
1.20589
1.21567
1.2275
1.24078
1.25591
1.27304
1.29035
1.30656
1.323
1.33868
1.35359
1.36808
1.38206
1.39717
1.41629
1.44598
)
;
    }
    triangle
    {
        type            calculated;
        value           nonuniform List<scalar> 
40
(
2.85458
2.7508
2.67647
2.60408
2.53413
2.46566
2.39301
2.31162
2.19771
2.04947
0.73514
0.733051
0.738042
0.74215
0.745877
0.748958
0.749233
0.75029
0.751126
0.752314
0.752275
0.751116
0.750286
0.749271
0.749046
0.745931
0.742108
0.737983
0.733033
0.735114
2.85458
2.7508
2.67647
2.60408
2.53413
2.46566
2.39301
2.31162
2.19771
2.04947
)
;
    }
    top
    {
        type            symmetryPlane;
    }
    bottom
    {
        type            symmetryPlane;
    }
    defaultFaces
    {
        type            empty;
    }
}


// ************************************************************************* //
