/*--------------------------------*- C++ -*----------------------------------*\
  =========                 |
  \\      /  F ield         | OpenFOAM: The Open Source CFD Toolbox
   \\    /   O peration     | Website:  https://openfoam.org
    \\  /    A nd           | Version:  7
     \\/     M anipulation  |
\*---------------------------------------------------------------------------*/
FoamFile
{
    version     2.0;
    format      ascii;
    class       volScalarField;
    location    "0.8";
    object      rho;
}
// * * * * * * * * * * * * * * * * * * * * * * * * * * * * * * * * * * * * * //

dimensions      [1 -3 0 0 0 0 0];

internalField   nonuniform List<scalar> 
325
(
1.1552
1.59944
2.10156
2.36982
2.40947
2.4556
2.67949
1.15613
1.60224
2.08855
2.32769
2.34811
2.38341
2.61231
1.15937
1.59539
2.0648
2.2707
2.26376
2.27848
2.51783
1.16648
1.57384
2.02263
2.18538
2.15529
2.15404
2.41142
1.18417
1.56252
1.95663
2.06556
2.03553
2.04232
2.319
1.21509
1.56739
1.87516
1.93929
1.92636
1.96884
2.26749
1.24464
1.56844
1.79213
2.35069
2.07811
2.01181
1.8021
1.71941
2.18203
3.01027
2.23083
2.00859
1.96106
1.75931
1.71103
2.23836
2.99914
2.09546
1.94034
1.91206
1.71983
1.70698
2.29653
2.97446
1.94645
1.87934
1.85719
1.6852
1.71598
2.355
2.94346
1.80399
1.81546
1.79528
1.651
1.75928
2.42787
2.91395
1.69731
1.73041
1.72026
1.6191
1.85233
2.48774
2.88822
1.61614
1.63562
1.64307
1.59633
1.99027
2.52834
2.86792
1.53498
1.53432
1.56515
1.58042
2.13536
2.54214
2.85288
1.46104
1.44322
1.48931
1.61587
2.28728
2.54302
2.83879
1.38442
1.34344
1.42648
1.76902
2.42242
2.54736
2.82442
1.3075
1.27388
1.39206
1.95652
2.49415
2.55588
2.81238
1.2277
1.22266
1.46431
2.13884
2.53322
2.56854
2.80363
1.1645
1.2043
1.64261
2.26788
2.54577
2.58566
2.80019
1.12553
1.22744
1.79822
2.33299
2.54806
2.59834
2.79805
1.10459
1.30235
1.92521
2.37376
2.54218
2.60451
2.79425
1.09439
1.38577
2.02145
2.39847
2.52885
2.60321
2.78694
1.08228
1.45983
2.08316
2.41202
2.51298
2.58517
2.7752
1.09312
1.51465
2.11175
2.41591
2.50014
2.56936
2.764
1.11461
1.55152
2.11662
2.40955
2.48221
2.55085
2.75149
1.13881
1.5696
2.10973
2.3967
2.45402
2.5111
2.72328
6.6521
6.25763
5.55647
4.72693
3.96291
3.26925
2.57731
6.05036
6.1637
5.51273
4.71776
3.95688
3.26236
2.61001
5.46397
6.03358
5.41813
4.6945
3.94009
3.25032
2.58086
4.77474
5.78941
5.23625
4.61876
3.89749
3.23295
2.5724
4.17129
5.38719
5.053
4.50816
3.83587
3.20144
2.55788
3.6482
4.68846
4.83166
4.35853
3.75642
3.1704
2.54775
3.42781
4.00439
4.56391
4.15824
3.66998
3.13102
2.53354
3.34885
3.52371
4.20611
3.95211
3.58151
3.08072
2.51355
3.30987
3.21352
3.78933
3.79354
3.49822
3.02992
2.49812
3.297
3.02966
3.42038
3.67993
3.40273
2.96884
2.47982
3.22854
2.91032
3.13616
3.54272
3.27358
2.88559
2.4665
3.14081
2.82219
2.90039
3.33662
3.12871
2.80717
2.4659
3.04653
2.75744
2.69463
3.07094
3.01105
2.75382
2.47857
2.96316
2.70188
2.53824
2.78454
2.87683
2.65199
2.51269
2.89714
2.64552
2.42558
2.53186
2.70306
2.51929
2.57103
2.83918
2.57603
2.34714
2.33189
2.45819
2.39992
2.65912
2.78353
2.48517
2.29016
2.18875
2.1819
2.28358
2.76452
2.71866
2.38429
2.23198
2.07463
1.9561
2.18152
2.86052
2.62013
2.28325
2.16348
1.96837
1.83533
2.08717
2.94149
2.47808
2.21106
2.0974
1.86943
1.76184
2.11819
3.00027
)
;

boundaryField
{
    inlet
    {
        type            calculated;
        value           nonuniform 0();
    }
    outlet
    {
        type            calculated;
        value           nonuniform List<scalar> 
46
(
2.67899
2.612
2.51785
2.41164
2.31934
2.26792
3.01084
2.99979
2.97509
2.94404
2.9144
2.8884
2.86778
2.85254
2.83834
2.82386
2.81174
2.8029
2.79937
2.79719
2.7934
2.78613
2.77445
2.76334
2.75091
2.7227
2.57701
2.6097
2.58051
2.572
2.55749
2.54734
2.53308
2.51303
2.49759
2.47934
2.46601
2.46529
2.47787
2.51193
2.57028
2.65829
2.76396
2.86043
2.94178
3.00072
)
;
    }
    triangle
    {
        type            calculated;
        value           nonuniform 0();
    }
    top
    {
        type            symmetryPlane;
    }
    bottom
    {
        type            symmetryPlane;
    }
    defaultFaces
    {
        type            empty;
    }
    procBoundary3to2
    {
        type            processor;
        value           nonuniform List<scalar> 
47
(
0.89539
0.895813
0.900811
0.925827
0.958735
1.00397
1.0379
2.77326
2.68033
2.57843
2.46399
2.34621
2.2245
2.09196
1.95756
1.82317
1.68905
1.56367
1.44828
1.34892
1.24859
1.15829
1.06899
1.00754
0.966865
0.939891
0.910844
2.97149
2.58062
2.28869
2.65249
2.98793
3.26153
3.42705
3.52089
3.56957
3.62023
3.54906
3.4169
3.33622
3.28372
3.27224
3.26376
3.24243
3.16729
3.07643
2.9043
)
;
    }
    procBoundary3to7
    {
        type            processor;
        value           nonuniform List<scalar> 8(1.84591 1.8614 1.94445 2.25482 1.2649 1.52924 1.84591 1.73401);
    }
}


// ************************************************************************* //
