/*--------------------------------*- C++ -*----------------------------------*\
  =========                 |
  \\      /  F ield         | OpenFOAM: The Open Source CFD Toolbox
   \\    /   O peration     | Website:  https://openfoam.org
    \\  /    A nd           | Version:  8
     \\/     M anipulation  |
\*---------------------------------------------------------------------------*/
FoamFile
{
    version     2.0;
    format      ascii;
    class       volScalarField;
    location    "3";
    object      p;
}
// * * * * * * * * * * * * * * * * * * * * * * * * * * * * * * * * * * * * * //

dimensions      [1 -1 -2 0 0 0 0];

internalField   nonuniform List<scalar> 
2600
(
1.07539
1.03139
1.03248
1.1526
1.32073
1.71279
1.97506
2.04697
1.95596
1.79795
1.07958
1.00714
1.02012
1.17339
1.35721
1.73625
1.97113
2.05348
1.96712
1.81228
1.08791
0.994678
1.01812
1.1879
1.38594
1.75515
1.96198
2.05005
1.9742
1.82751
1.0895
0.997899
1.02857
1.21855
1.40747
1.76573
1.98256
2.0416
1.96619
1.82373
1.08653
0.99756
1.04399
1.24229
1.43523
1.77743
2.02505
2.0693
1.98507
1.81297
1.08724
0.992774
1.03167
1.22657
1.45775
1.79396
2.00701
2.06477
1.97853
1.82527
1.09008
0.982163
1.00744
1.19496
1.43839
1.80741
1.9992
2.07848
1.97409
1.82099
1.09753
0.981752
0.996173
1.19491
1.46209
1.82666
2.02367
2.07125
1.98055
1.82707
1.10721
0.986313
1.00648
1.22294
1.4857
1.81967
2.00379
2.07131
1.98713
1.83048
1.11499
0.994939
1.00453
1.21522
1.48661
1.825
2.00504
2.04469
1.97056
1.8263
1.11738
0.990543
1.00335
1.21599
1.50121
1.80685
1.97955
2.05492
1.98702
1.83887
1.11458
0.984955
0.981301
1.17192
1.52168
1.85811
2.00018
2.05239
1.96975
1.83047
1.10765
0.974721
0.957643
1.14026
1.50813
1.86726
1.99557
2.06135
1.98942
1.83274
1.09535
0.973551
0.952984
1.15579
1.51225
1.88149
2.00659
2.03644
2.00445
1.84098
1.08929
0.972463
0.9641
1.16679
1.52001
1.86874
1.98096
2.0528
1.98157
1.82358
1.08983
0.975391
0.961967
1.15191
1.49322
1.84389
1.98197
2.03679
1.94986
1.82314
1.09861
0.978347
0.952755
1.13099
1.47101
1.84088
1.96458
2.03196
1.98034
1.82855
1.1053
0.979233
0.948546
1.11134
1.46405
1.82106
1.9694
2.0493
1.99226
1.81415
1.10383
0.992658
0.954131
1.08112
1.42868
1.78457
1.97008
2.04126
1.9801
1.81004
1.093
1.01802
0.963532
1.05691
1.38722
1.75913
1.96452
2.03064
1.95454
1.81377
1.29902
1.04141
0.984338
1.04155
1.34081
1.73309
1.95375
2.01055
1.94226
1.81217
1.52016
1.08742
1.02548
1.042
1.29433
1.6914
1.93743
2.00048
1.94647
1.80601
1.74835
1.15863
1.0611
1.05625
1.25695
1.63575
1.91451
1.99773
1.95318
1.79844
1.93449
1.25502
1.09924
1.0752
1.22613
1.5762
1.88815
1.99528
1.94553
1.79261
2.09293
1.3688
1.1372
1.09092
1.19579
1.51605
1.86605
1.98619
1.93108
1.78939
2.22007
1.48777
1.18746
1.09879
1.17295
1.45559
1.8356
1.9736
1.92092
1.78781
2.32544
1.60048
1.26462
1.11843
1.16193
1.3937
1.79437
1.95878
1.91858
1.78214
2.41623
1.69983
1.34231
1.15387
1.16609
1.33618
1.74068
1.94338
1.91531
1.7749
2.49729
1.80048
1.40892
1.20204
1.17655
1.29035
1.67919
1.92552
1.90867
1.76807
2.57066
1.89787
1.47491
1.24424
1.18986
1.25923
1.61634
1.9029
1.89929
1.76269
2.6356
1.98696
1.5526
1.28497
1.201
1.23836
1.5517
1.87602
1.89224
1.75712
2.69296
2.06378
1.63179
1.34064
1.20773
1.22391
1.48251
1.84385
1.8867
1.7501
2.74384
2.13405
1.70195
1.40801
1.22101
1.22112
1.41417
1.80512
1.88022
1.74168
2.78855
2.20178
1.76508
1.46825
1.25428
1.22054
1.35512
1.75792
1.87102
1.73242
2.82931
2.26583
1.83099
1.52001
1.29808
1.22297
1.30808
1.70215
1.85987
1.72322
2.86684
2.32582
1.89624
1.57383
1.33501
1.23098
1.27342
1.63921
1.84646
1.71592
2.90138
2.38123
1.95655
1.63099
1.37217
1.24028
1.25006
1.57255
1.82986
1.70363
2.93283
2.43294
2.01185
1.68454
1.41873
1.2509
1.23437
1.50442
1.80854
1.693
2.96135
2.48041
2.0646
1.73369
1.46685
1.26687
1.22938
1.43916
1.78098
1.68108
2.98761
2.52424
2.11514
1.78199
1.51114
1.2891
1.22806
1.37878
1.74607
1.67036
5.47024
5.193
4.99205
4.79157
4.60084
4.4273
4.24977
4.05655
3.77488
3.48071
5.06283
4.80068
4.67574
4.53398
4.40266
4.26579
4.10892
3.91433
3.62945
3.24848
4.91758
4.7227
4.62759
4.50703
4.39365
4.26252
4.10271
3.90082
3.61459
3.24258
4.72433
4.59436
4.52878
4.42611
4.3244
4.19635
4.04151
3.842
3.56604
3.19712
4.56887
4.48706
4.4368
4.34242
4.25156
4.13086
3.98616
3.79148
3.52662
3.16088
4.4562
4.38544
4.33933
4.25926
4.18156
4.0672
3.93021
3.7399
3.48945
3.13549
4.34409
4.29254
4.25862
4.19021
4.11917
4.00945
3.88069
3.69636
3.46038
3.12765
4.24524
4.21146
4.1847
4.12582
4.06183
3.9581
3.83757
3.66028
3.43917
3.13102
4.16738
4.14622
4.12178
4.06883
4.00845
3.91046
3.79776
3.62895
3.42326
3.14076
4.11226
4.09489
4.06998
4.02124
3.96299
3.86971
3.76288
3.60262
3.41089
3.15251
4.07553
4.055
4.02808
3.9804
3.92271
3.83402
3.73268
3.5816
3.40194
3.16517
4.04928
4.02112
3.99188
3.94443
3.88767
3.80315
3.70671
3.5647
3.39655
3.17965
4.02549
3.9905
3.95959
3.91211
3.85649
3.77594
3.68413
3.55096
3.39422
3.19466
4.00144
3.96212
3.93031
3.88322
3.82906
3.75227
3.66474
3.54017
3.39385
3.20937
3.97722
3.93573
3.90357
3.85723
3.80468
3.73155
3.64813
3.53161
3.39486
3.22372
3.95339
3.91128
3.87925
3.83395
3.78309
3.71347
3.63392
3.52485
3.39663
3.2374
3.93069
3.8889
3.85731
3.81323
3.76408
3.69779
3.6219
3.51972
3.39909
3.25039
3.9094
3.86836
3.83743
3.79472
3.74728
3.68412
3.61163
3.51569
3.40181
3.26258
3.89003
3.84981
3.81968
3.77837
3.73263
3.67248
3.60328
3.51307
3.40527
3.274
3.87239
3.83288
3.8036
3.76375
3.71958
3.66209
3.59585
3.51065
3.40862
3.28525
1.00339
1.01065
1.01888
1.02822
1.03894
1.0513
1.06682
1.0792
2.77802
4.26984
1.00339
1.01065
1.01888
1.02823
1.03894
1.0513
1.06682
1.07925
2.77336
4.25884
1.00339
1.01065
1.01888
1.02823
1.03894
1.05129
1.06682
1.0793
2.76394
4.24805
1.00339
1.01065
1.01888
1.02823
1.03894
1.05129
1.06682
1.07936
2.75006
4.23454
1.00339
1.01065
1.01888
1.02823
1.03894
1.05128
1.06682
1.07943
2.7327
4.21867
1.00339
1.01065
1.01888
1.02823
1.03893
1.05127
1.06683
1.07947
2.71233
4.19816
1.00339
1.01065
1.01888
1.02823
1.03893
1.05126
1.06684
1.07946
2.69051
4.1768
1.00338
1.01066
1.01887
1.02823
1.03893
1.05125
1.06685
1.07943
2.66681
4.15407
1.00338
1.01066
1.01887
1.02823
1.03894
1.05125
1.06687
1.0794
2.64033
4.1298
1.00338
1.01066
1.01887
1.02824
1.03894
1.05124
1.06688
1.07938
2.61037
4.10473
1.00338
1.01066
1.01887
1.02824
1.03894
1.05123
1.0669
1.07936
2.57755
4.07902
1.00338
1.01066
1.01887
1.02824
1.03894
1.05122
1.06692
1.07935
2.54269
4.05369
1.00338
1.01066
1.01886
1.02824
1.03894
1.05121
1.06694
1.07934
2.50689
4.02924
1.00338
1.01066
1.01886
1.02824
1.03894
1.0512
1.06696
1.07934
2.47099
4.00581
1.00338
1.01066
1.01886
1.02824
1.03895
1.05119
1.06697
1.07935
2.43549
3.9833
1.00338
1.01066
1.01886
1.02824
1.03895
1.05119
1.06698
1.07936
2.40081
3.9616
1.00338
1.01066
1.01886
1.02824
1.03895
1.05118
1.06699
1.07937
2.36713
3.94059
1.00338
1.01066
1.01886
1.02824
1.03896
1.05117
1.06699
1.07938
2.33447
3.92011
1.00338
1.01066
1.01886
1.02824
1.03896
1.05117
1.067
1.0794
2.30232
3.90079
1.00338
1.01066
1.01886
1.02824
1.03897
1.05116
1.067
1.07941
2.27061
3.88249
1.00338
1.01066
1.01886
1.02824
1.03897
1.05116
1.067
1.07941
2.27067
3.88232
1.00338
1.01066
1.01886
1.02824
1.03896
1.05117
1.067
1.0794
2.30237
3.90062
1.00338
1.01066
1.01886
1.02824
1.03896
1.05117
1.06699
1.07938
2.33451
3.91993
1.00338
1.01066
1.01886
1.02824
1.03895
1.05118
1.06699
1.07937
2.36717
3.94041
1.00338
1.01066
1.01886
1.02824
1.03895
1.05119
1.06698
1.07936
2.40083
3.96143
1.00338
1.01066
1.01886
1.02824
1.03895
1.05119
1.06697
1.07935
2.4355
3.98313
1.00338
1.01066
1.01886
1.02824
1.03894
1.0512
1.06696
1.07934
2.47098
4.00566
1.00338
1.01066
1.01886
1.02824
1.03894
1.05121
1.06694
1.07934
2.50687
4.0291
1.00338
1.01066
1.01887
1.02824
1.03894
1.05122
1.06692
1.07935
2.54265
4.05356
1.00338
1.01066
1.01887
1.02824
1.03894
1.05123
1.0669
1.07936
2.57748
4.0789
1.00338
1.01066
1.01887
1.02824
1.03894
1.05124
1.06688
1.07937
2.61028
4.10462
1.00338
1.01066
1.01887
1.02823
1.03894
1.05125
1.06687
1.0794
2.64022
4.1297
1.00338
1.01066
1.01887
1.02823
1.03893
1.05125
1.06685
1.07943
2.66668
4.15398
1.00339
1.01065
1.01888
1.02823
1.03893
1.05126
1.06684
1.07946
2.69037
4.17671
1.00339
1.01065
1.01888
1.02823
1.03893
1.05127
1.06683
1.07947
2.7122
4.19809
1.00339
1.01065
1.01888
1.02823
1.03894
1.05128
1.06682
1.07943
2.73258
4.21862
1.00339
1.01065
1.01888
1.02823
1.03894
1.05129
1.06682
1.07936
2.74995
4.23452
1.00339
1.01065
1.01888
1.02823
1.03894
1.05129
1.06682
1.0793
2.76385
4.24804
1.00339
1.01065
1.01888
1.02823
1.03894
1.0513
1.06682
1.07925
2.77329
4.25886
1.00339
1.01065
1.01888
1.02822
1.03894
1.0513
1.06682
1.07923
2.778
4.26983
3.87225
3.83271
3.80343
3.76364
3.71957
3.66226
3.59628
3.51137
3.40979
3.28683
3.88991
3.84967
3.81956
3.77835
3.73273
3.67278
3.60385
3.51391
3.4066
3.27572
3.90929
3.86825
3.83737
3.79476
3.74747
3.68453
3.61233
3.51667
3.40332
3.26443
3.93059
3.88883
3.85731
3.81336
3.76437
3.69832
3.62275
3.52089
3.40074
3.25232
3.9533
3.91125
3.8793
3.83416
3.78348
3.71412
3.63491
3.52619
3.3984
3.23938
3.97713
3.93573
3.90367
3.8575
3.80515
3.73231
3.64925
3.53309
3.39673
3.22576
4.00134
3.96215
3.93046
3.88355
3.8296
3.75313
3.66597
3.54174
3.39584
3.21145
4.02538
3.99055
3.95978
3.91249
3.8571
3.77688
3.68545
3.5526
3.39635
3.19669
4.04917
4.02118
3.9921
3.94486
3.88834
3.80415
3.70811
3.56639
3.39875
3.18149
4.0755
4.05511
4.02833
3.98086
3.92342
3.83505
3.73412
3.58333
3.40413
3.16678
4.11234
4.09506
4.07028
4.02175
3.96373
3.87078
3.76437
3.60438
3.41292
3.15394
4.16755
4.14647
4.12214
4.06938
4.00922
3.91154
3.79924
3.63069
3.42507
3.14212
4.24548
4.21177
4.18511
4.1264
4.06262
3.95918
3.83902
3.66195
3.44088
3.13217
4.34435
4.29287
4.25905
4.1908
4.11994
4.01049
3.88206
3.69792
3.46204
3.12806
4.45639
4.38573
4.33972
4.25982
4.18231
4.06818
3.93149
3.74134
3.49104
3.13421
4.56905
4.48733
4.43717
4.34295
4.25228
4.13179
3.98737
3.79283
3.52807
3.15868
4.72455
4.59466
4.52915
4.42662
4.32509
4.19724
4.04263
3.84327
3.5671
3.1951
4.91787
4.72304
4.62799
4.50754
4.3943
4.26336
4.10373
3.90184
3.61519
3.24053
5.06309
4.801
4.67609
4.53442
4.40323
4.26653
4.10985
3.91519
3.62998
3.24552
5.47044
5.19327
4.99237
4.792
4.60134
4.42795
4.25059
4.05733
3.77533
3.47853
2.98935
2.52524
2.11534
1.78291
1.51077
1.28776
1.22944
1.38909
1.74561
1.66977
2.96295
2.48062
2.0642
1.73526
1.46701
1.26613
1.22968
1.44801
1.7781
1.68025
2.93432
2.43209
2.01065
1.68661
1.42028
1.24966
1.23345
1.512
1.80466
1.69116
2.90282
2.37949
1.9546
1.63377
1.37567
1.23751
1.24774
1.57986
1.82624
1.70115
2.86827
2.3233
1.89412
1.57932
1.33911
1.22645
1.26819
1.64529
1.84377
1.71213
2.83052
2.26317
1.82929
1.52933
1.30184
1.21556
1.29834
1.70468
1.8576
1.72309
2.78948
2.19778
1.76428
1.48159
1.25749
1.2114
1.33975
1.75674
1.86812
1.73422
2.74355
2.12848
1.7014
1.42481
1.22212
1.21163
1.39391
1.80433
1.87575
1.74056
2.69184
2.05567
1.63363
1.36301
1.2041
1.2125
1.45855
1.84697
1.88179
1.74716
2.63323
1.97755
1.55692
1.31394
1.1946
1.21527
1.52563
1.88405
1.88929
1.75415
2.56869
1.8866
1.48364
1.28035
1.18052
1.2273
1.58993
1.9121
1.89963
1.76164
2.49538
1.7869
1.42337
1.24176
1.16306
1.24436
1.65489
1.93262
1.90743
1.76971
2.41342
1.68697
1.36348
1.18901
1.15408
1.2756
1.72405
1.94766
1.91162
1.77432
2.32125
1.58786
1.28996
1.14416
1.1525
1.32387
1.78968
1.96384
1.91472
1.77467
2.21328
1.47426
1.22354
1.12512
1.15696
1.38646
1.84146
1.98135
1.92204
1.7775
2.08594
1.3539
1.17947
1.12071
1.16819
1.45032
1.87622
1.99427
1.93261
1.78403
1.92834
1.24174
1.14542
1.11386
1.18851
1.50902
1.89523
2.00016
1.94296
1.79449
1.74594
1.14617
1.1086
1.11204
1.21279
1.5651
1.91539
2.00064
1.94827
1.80105
1.5242
1.08234
1.06971
1.11607
1.24145
1.625
1.94681
2.00576
1.94823
1.79918
1.29283
1.04783
1.04358
1.13003
1.28037
1.67709
1.97022
2.02752
1.94984
1.79407
3.33176
3.13229
2.87618
2.61076
2.32185
2.02363
1.734
1.48017
1.1972
0.913013
3.33051
3.13069
2.87324
2.60659
2.31749
2.01964
1.73088
1.47585
1.19358
0.915306
3.32859
3.12667
2.86894
2.6
2.31017
2.01277
1.72518
1.46812
1.18739
0.9192
3.3255
3.1201
2.86302
2.58978
2.29927
2.00267
1.71685
1.45679
1.17978
0.925445
3.32122
3.11185
2.85412
2.57682
2.28506
1.98936
1.70559
1.44158
1.17038
0.934687
3.31569
3.10137
2.84201
2.56059
2.26734
1.97282
1.69124
1.42237
1.16127
0.947459
3.30884
3.08876
2.82653
2.54103
2.24607
1.95288
1.6736
1.39918
1.15254
0.964071
3.30064
3.07395
2.80759
2.51788
2.22119
1.92966
1.65214
1.37252
1.14643
0.987195
3.29108
3.05682
2.78511
2.49105
2.19251
1.9029
1.62686
1.34253
1.13981
1.0184
3.28007
3.03709
2.75888
2.46028
2.16013
1.87256
1.59693
1.3116
1.13078
1.06417
3.26746
3.01436
2.7287
2.42515
2.12367
1.83859
1.56219
1.27954
1.12017
1.12257
3.25294
2.98818
2.69387
2.38555
2.08301
1.8004
1.52284
1.25011
1.11666
1.18654
3.23616
2.95805
2.65425
2.3405
2.0381
1.75774
1.47864
1.22659
1.11993
1.25963
3.21681
2.9235
2.60903
2.29044
1.988
1.71027
1.43107
1.21147
1.13721
1.33624
3.19462
2.8841
2.55785
2.23427
1.93373
1.65667
1.38247
1.20193
1.17519
1.41204
3.1693
2.83919
2.50022
2.17195
1.87357
1.59833
1.33619
1.19403
1.24107
1.48357
3.14027
2.78818
2.43533
2.10315
1.80819
1.53332
1.29871
1.19293
1.33426
1.54241
3.10702
2.73003
2.36285
2.02745
1.73695
1.46484
1.26828
1.20891
1.45165
1.58798
3.06942
2.66377
2.28094
1.9448
1.65905
1.39545
1.24526
1.24771
1.57164
1.62263
3.02537
2.58724
2.1892
1.8545
1.57573
1.33057
1.23308
1.31469
1.68038
1.65154
3.02356
2.58568
2.1883
1.85419
1.57744
1.33337
1.23208
1.30522
1.67702
1.65141
3.06777
2.66198
2.27971
1.94463
1.66093
1.39922
1.24503
1.24013
1.56335
1.6223
3.1057
2.72817
2.36113
2.02671
1.73852
1.46921
1.26846
1.2058
1.44186
1.58579
3.13925
2.78644
2.43331
2.10188
1.80888
1.53686
1.29915
1.19243
1.32694
1.53921
3.1686
2.83767
2.49821
2.1704
1.87348
1.60051
1.33793
1.19411
1.23703
1.47936
3.19424
2.88292
2.55609
2.23256
1.93292
1.65776
1.38374
1.20223
1.1739
1.40839
3.21671
2.9227
2.60761
2.28881
1.98685
1.71025
1.43189
1.21192
1.1374
1.33374
3.23631
2.95761
2.65319
2.33903
2.03677
1.75714
1.47864
1.22692
1.12043
1.25901
3.25326
2.98805
2.69315
2.38437
2.08175
1.7995
1.5223
1.25003
1.11675
1.18712
3.26788
3.01446
2.72835
2.42429
2.12265
1.83763
1.56134
1.27911
1.11992
1.12402
3.28052
3.03735
2.75876
2.45976
2.15935
1.87173
1.59602
1.31072
1.13056
1.06579
3.29151
3.05716
2.78519
2.49079
2.19202
1.90227
1.62604
1.34165
1.13969
1.01962
3.30101
3.07431
2.80777
2.51786
2.22095
1.92927
1.65156
1.37165
1.1462
0.988048
3.30911
3.08908
2.82677
2.54116
2.24607
1.95275
1.67327
1.39854
1.15227
0.964639
3.31585
3.1016
2.84226
2.56084
2.26753
1.97293
1.69119
1.42201
1.16099
0.947856
3.32125
3.11198
2.85435
2.57712
2.28539
1.98967
1.70579
1.44152
1.17023
0.934963
3.32541
3.12013
2.86322
2.59011
2.29969
2.00314
1.71726
1.45701
1.17983
0.925653
3.3284
3.12662
2.86909
2.60034
2.31065
2.01336
1.72575
1.46858
1.18767
0.919373
3.33025
3.13059
2.87334
2.60689
2.318
2.02028
1.73154
1.47646
1.19403
0.915474
3.33145
3.13218
2.87623
2.61104
2.32236
2.02431
1.73472
1.48088
1.19777
0.913177
3.8528
3.81385
3.78543
3.7472
3.70488
3.6507
3.58816
3.50922
3.41415
3.30057
3.83195
3.79401
3.76668
3.73027
3.68989
3.63907
3.5802
3.50812
3.42193
3.32055
3.81248
3.77694
3.75065
3.71596
3.67771
3.63061
3.57564
3.50933
3.43061
3.33826
3.79358
3.76232
3.73774
3.70529
3.66921
3.6251
3.57294
3.51084
3.43778
3.3529
3.77511
3.74862
3.72586
3.69493
3.65973
3.61784
3.56917
3.51247
3.44526
3.36688
3.7557
3.73118
3.70962
3.68189
3.65032
3.61226
3.56707
3.51443
3.45189
3.37913
3.73937
3.71626
3.69755
3.67238
3.6429
3.60742
3.56525
3.51614
3.45786
3.39005
3.73336
3.70873
3.6901
3.66583
3.63754
3.6039
3.56417
3.51791
3.46326
3.39957
3.7311
3.70483
3.68595
3.6619
3.63417
3.60181
3.56384
3.51977
3.46805
3.40775
3.73004
3.70254
3.68366
3.65968
3.63243
3.60091
3.56416
3.52177
3.47236
3.41488
3.72943
3.70088
3.68203
3.65829
3.63151
3.60061
3.56484
3.52382
3.47634
3.42124
3.72915
3.69982
3.68091
3.65718
3.63071
3.60039
3.5656
3.5258
3.47998
3.42692
3.72922
3.69921
3.68019
3.65642
3.63017
3.6003
3.56629
3.5275
3.48316
3.43192
3.72959
3.69896
3.67985
3.65601
3.62988
3.60032
3.56695
3.52901
3.48586
3.43617
3.73014
3.69896
3.67975
3.65583
3.62978
3.60042
3.56752
3.53027
3.48811
3.43969
3.73074
3.69909
3.67977
3.65576
3.62978
3.60058
3.56803
3.53129
3.48993
3.44255
3.73123
3.69917
3.67973
3.65562
3.62971
3.60062
3.56834
3.53198
3.49125
3.44465
3.73168
3.69928
3.67974
3.65553
3.62967
3.60066
3.56861
3.53252
3.49227
3.44626
3.73165
3.69916
3.67958
3.65532
3.6295
3.60057
3.56869
3.53282
3.4929
3.44727
3.73153
3.69917
3.67972
3.65546
3.62967
3.60075
3.56895
3.53315
3.49341
3.44794
1.00338
1.01066
1.01886
1.02824
1.03897
1.05115
1.067
1.07942
2.23177
3.86112
1.00338
1.01066
1.01886
1.02824
1.03898
1.05115
1.067
1.07943
2.18631
3.83753
1.00338
1.01066
1.01886
1.02824
1.03898
1.05115
1.06699
1.07944
2.14248
3.81555
1.00338
1.01066
1.01887
1.02823
1.03899
1.05114
1.06699
1.07945
2.10068
3.79517
1.00338
1.01066
1.01887
1.02823
1.03899
1.05114
1.06699
1.07945
2.06144
3.77779
1.00338
1.01066
1.01887
1.02823
1.03899
1.05114
1.06698
1.07946
2.02482
3.76307
1.00338
1.01066
1.01887
1.02822
1.039
1.05114
1.06698
1.07946
1.99059
3.74912
1.00338
1.01066
1.01887
1.02822
1.039
1.05113
1.06697
1.07947
1.95842
3.73536
1.00338
1.01066
1.01887
1.02822
1.039
1.05113
1.06697
1.07948
1.92744
3.72296
1.00338
1.01066
1.01888
1.02821
1.03901
1.05113
1.06697
1.07949
1.89725
3.71255
1.00338
1.01066
1.01888
1.02821
1.03901
1.05112
1.06698
1.0795
1.86867
3.70379
1.00338
1.01066
1.01888
1.02821
1.03902
1.05112
1.06699
1.07951
1.84237
3.69641
1.00338
1.01066
1.01888
1.0282
1.03902
1.05111
1.067
1.07953
1.81871
3.69027
1.00338
1.01065
1.01888
1.0282
1.03903
1.05111
1.06703
1.07954
1.79784
3.68519
1.00338
1.01065
1.01889
1.02819
1.03904
1.0511
1.06706
1.07955
1.77983
3.68101
1.00338
1.01065
1.01889
1.02819
1.03905
1.05109
1.06709
1.07956
1.76475
3.67762
1.00338
1.01065
1.01889
1.02819
1.03905
1.05109
1.06712
1.07957
1.75266
3.67485
1.00339
1.01065
1.01889
1.02819
1.03906
1.05108
1.06715
1.07957
1.74346
3.6728
1.00339
1.01065
1.01889
1.02819
1.03906
1.05107
1.06716
1.07958
1.73724
3.67113
1.00339
1.01065
1.01889
1.02818
1.03907
1.05107
1.0672
1.07958
1.7342
3.67026
1.00339
1.01065
1.01889
1.02818
1.03907
1.05107
1.0672
1.07958
1.7342
3.67022
1.00339
1.01065
1.01889
1.02819
1.03906
1.05107
1.06716
1.07958
1.73723
3.67109
1.00339
1.01065
1.01889
1.02819
1.03906
1.05108
1.06715
1.07957
1.74346
3.67278
1.00338
1.01065
1.01889
1.02819
1.03905
1.05109
1.06712
1.07957
1.75265
3.67483
1.00338
1.01065
1.01889
1.02819
1.03905
1.05109
1.06709
1.07956
1.76474
3.67762
1.00338
1.01065
1.01889
1.02819
1.03904
1.0511
1.06706
1.07955
1.77982
3.68102
1.00338
1.01065
1.01888
1.0282
1.03903
1.05111
1.06703
1.07954
1.79782
3.68522
1.00338
1.01066
1.01888
1.0282
1.03902
1.05111
1.067
1.07953
1.81869
3.69031
1.00338
1.01066
1.01888
1.02821
1.03902
1.05112
1.06699
1.07951
1.84235
3.69648
1.00338
1.01066
1.01888
1.02821
1.03901
1.05112
1.06698
1.0795
1.86865
3.70386
1.00338
1.01066
1.01888
1.02821
1.03901
1.05113
1.06697
1.07949
1.89724
3.71263
1.00338
1.01066
1.01887
1.02822
1.039
1.05113
1.06697
1.07948
1.92744
3.72305
1.00338
1.01066
1.01887
1.02822
1.039
1.05113
1.06697
1.07947
1.95844
3.73545
1.00338
1.01066
1.01887
1.02822
1.039
1.05114
1.06698
1.07946
1.99064
3.74926
1.00338
1.01066
1.01887
1.02823
1.03899
1.05114
1.06698
1.07946
2.0249
3.76329
1.00338
1.01066
1.01887
1.02823
1.03899
1.05114
1.06699
1.07945
2.06153
3.77796
1.00338
1.01066
1.01887
1.02823
1.03899
1.05114
1.06699
1.07945
2.10077
3.79521
1.00338
1.01066
1.01886
1.02824
1.03898
1.05115
1.06699
1.07944
2.14256
3.81548
1.00338
1.01066
1.01886
1.02824
1.03898
1.05115
1.067
1.07943
2.18639
3.83742
1.00338
1.01066
1.01886
1.02824
1.03897
1.05115
1.067
1.07942
2.23184
3.86098
3.73148
3.69911
3.67968
3.65544
3.62968
3.6008
3.56905
3.53331
3.49364
3.44823
3.7316
3.69912
3.67955
3.65531
3.62952
3.60063
3.5688
3.53298
3.49311
3.44753
3.73165
3.69926
3.67973
3.65555
3.62971
3.60073
3.56871
3.53267
3.49246
3.44647
3.73122
3.69917
3.67975
3.65566
3.62977
3.60071
3.56846
3.53212
3.4914
3.4448
3.73075
3.69913
3.67982
3.65583
3.62987
3.60067
3.56814
3.5314
3.49003
3.44262
3.73018
3.69902
3.67983
3.65593
3.62988
3.60053
3.56762
3.53034
3.48814
3.43966
3.72966
3.69905
3.67996
3.65613
3.63
3.60043
3.56703
3.52904
3.48582
3.43604
3.72932
3.69934
3.68032
3.65656
3.63029
3.60038
3.56633
3.52746
3.48303
3.43168
3.72927
3.69996
3.68105
3.65732
3.63082
3.60043
3.56558
3.52568
3.47976
3.42658
3.72958
3.70103
3.68217
3.6584
3.63157
3.6006
3.56474
3.5236
3.47603
3.42082
3.7302
3.70269
3.68377
3.65975
3.63243
3.60082
3.56397
3.52146
3.47196
3.4144
3.73127
3.70495
3.68601
3.66188
3.63408
3.60161
3.56354
3.51937
3.4676
3.40726
3.7335
3.70877
3.69005
3.66568
3.63729
3.60358
3.56378
3.51745
3.46278
3.39912
3.73927
3.71606
3.69729
3.67205
3.64249
3.60697
3.56477
3.51564
3.45741
3.3897
3.75503
3.7304
3.70898
3.68138
3.64981
3.61172
3.56655
3.51394
3.45151
3.37893
3.7746
3.74813
3.72527
3.69424
3.65904
3.61727
3.5687
3.5121
3.44503
3.3669
3.79311
3.76194
3.73736
3.7049
3.66881
3.62466
3.57251
3.51055
3.43775
3.35321
3.81208
3.77658
3.75027
3.7156
3.67737
3.63032
3.57548
3.50936
3.4309
3.33886
3.83168
3.79375
3.76638
3.72997
3.6896
3.63886
3.58019
3.50835
3.42254
3.32151
3.85261
3.81364
3.7852
3.74701
3.70477
3.65075
3.58843
3.50976
3.41503
3.30184
)
;

boundaryField
{
    inlet
    {
        type            fixedValue;
        value           uniform 1;
    }
    outlet
    {
        type            zeroGradient;
    }
    triangle
    {
        type            zeroGradient;
    }
    top
    {
        type            symmetryPlane;
    }
    bottom
    {
        type            symmetryPlane;
    }
    defaultFaces
    {
        type            empty;
    }
}


// ************************************************************************* //
