/*--------------------------------*- C++ -*----------------------------------*\
  =========                 |
  \\      /  F ield         | OpenFOAM: The Open Source CFD Toolbox
   \\    /   O peration     | Website:  https://openfoam.org
    \\  /    A nd           | Version:  8
     \\/     M anipulation  |
\*---------------------------------------------------------------------------*/
FoamFile
{
    version     2.0;
    format      ascii;
    class       volScalarField;
    location    "3";
    object      rho;
}
// * * * * * * * * * * * * * * * * * * * * * * * * * * * * * * * * * * * * * //

dimensions      [1 -3 0 0 0 0 0];

internalField   nonuniform List<scalar> 
2600
(
1.10456
1.12139
1.2056
1.39737
1.59373
1.96428
2.16912
2.24273
2.17601
2.06003
1.07212
1.04871
1.13862
1.37107
1.59703
1.9696
2.16289
2.24142
2.17917
2.06694
1.06771
1.01318
1.08779
1.32677
1.58396
1.95997
2.14393
2.22342
2.17008
2.06736
1.06833
1.0086
1.06218
1.28901
1.55071
1.929
2.13331
2.18376
2.13162
2.03993
1.06714
1.00635
1.05209
1.24844
1.50406
1.88037
2.11659
2.14294
2.0865
1.98854
1.06834
1.0008
1.02842
1.18982
1.44192
1.81446
2.02543
2.05194
1.99976
1.93704
1.07037
0.991243
1.00173
1.1405
1.36149
1.73015
1.92425
1.97127
1.91649
1.86774
1.07493
0.989517
0.990018
1.13123
1.34148
1.66213
1.85785
1.90242
1.86705
1.81957
1.08114
0.991334
0.996313
1.14975
1.34811
1.61609
1.79794
1.87538
1.84894
1.7929
1.0865
0.996541
0.994623
1.14589
1.34847
1.61042
1.7838
1.85225
1.83305
1.77984
1.08828
0.993119
0.993638
1.14639
1.35879
1.59812
1.76498
1.85991
1.84782
1.78917
1.08674
0.988879
0.977767
1.11567
1.37443
1.63254
1.7788
1.87196
1.85916
1.7965
1.08265
0.98277
0.963827
1.09947
1.37839
1.64724
1.7878
1.92209
1.92578
1.83198
1.07414
0.985708
0.969244
1.13116
1.4233
1.69119
1.84253
1.98197
2.01278
1.89363
1.06875
0.989498
0.993782
1.17975
1.50284
1.76122
1.91556
2.0815
2.07363
1.94609
1.06745
0.994447
1.01426
1.22328
1.56587
1.84638
2.01853
2.14306
2.1067
2.00361
1.07171
0.99771
1.0312
1.26312
1.61744
1.93365
2.08355
2.18771
2.16401
2.04766
1.07641
1.00164
1.05896
1.29658
1.66165
1.98057
2.13171
2.2274
2.1932
2.05804
1.08547
1.03108
1.10709
1.31275
1.66858
1.99046
2.15327
2.23504
2.19433
2.06533
1.11413
1.1006
1.16519
1.32393
1.65826
1.99179
2.15877
2.23329
2.17777
2.07276
1.37285
1.19131
1.23152
1.3355
1.63366
1.9829
2.1539
2.21826
2.16807
2.07305
1.64779
1.29243
1.3052
1.35515
1.60135
1.95278
2.14004
2.20891
2.17042
2.06792
1.89638
1.40009
1.36056
1.38031
1.57114
1.90406
2.11821
2.2048
2.17405
2.06064
2.09039
1.52132
1.41252
1.4055
1.54369
1.85009
2.09374
2.20046
2.16612
2.05481
2.23953
1.64776
1.46002
1.41971
1.51477
1.79659
2.07536
2.19173
2.15346
2.05133
2.34633
1.76375
1.51021
1.42405
1.49217
1.74408
2.05315
2.18203
2.14549
2.04936
2.42574
1.86209
1.57774
1.43933
1.48119
1.69105
2.02378
2.17169
2.14424
2.04454
2.48831
1.94212
1.64263
1.46913
1.48478
1.64149
1.98464
2.16071
2.14225
2.03913
2.54155
2.01983
1.69709
1.51139
1.49615
1.60153
1.93886
2.14657
2.13724
2.03458
2.59003
2.09355
1.75082
1.55046
1.50807
1.57507
1.89142
2.1265
2.13017
2.03163
2.63496
2.16095
1.81474
1.58836
1.51764
1.55854
1.84061
2.10075
2.12628
2.02866
2.67703
2.2199
1.88046
1.6388
1.52384
1.54878
1.78286
2.07029
2.12474
2.02441
2.71615
2.27492
1.93929
1.69884
1.53737
1.54843
1.7235
2.03698
2.12301
2.01851
2.75143
2.32868
1.9926
1.75224
1.57022
1.54851
1.6715
2.00187
2.11781
2.01157
2.78356
2.37968
2.04795
1.79807
1.61199
1.55008
1.6303
1.96285
2.10968
2.00425
2.81256
2.42716
2.10219
1.84514
1.64625
1.55647
1.60059
1.91664
2.09888
1.99801
2.83851
2.4704
2.15171
1.8943
1.67979
1.56433
1.58155
1.86354
2.08466
1.98708
2.86152
2.51003
2.19643
1.93967
1.7208
1.57443
1.56842
1.80612
2.0659
1.97708
2.882
2.5458
2.23837
1.98071
1.76259
1.5904
1.56336
1.75032
2.04186
1.96601
2.90067
2.57835
2.27796
2.02047
1.8007
1.61161
1.56172
1.69819
2.012
1.95631
4.28756
4.12956
4.01908
3.91139
3.81
3.71738
3.61968
3.51003
3.34327
3.13547
4.0769
3.92932
3.86414
3.78836
3.71743
3.64183
3.55244
3.43809
3.26465
3.01351
4.0341
3.93156
3.88754
3.82298
3.75791
3.68033
3.58429
3.4615
3.2831
3.04425
3.97157
3.90198
3.87048
3.81315
3.7524
3.67335
3.57658
3.45126
3.27497
3.03339
3.91948
3.86731
3.83658
3.77941
3.72375
3.64832
3.55693
3.43303
3.26133
3.01536
3.84014
3.79827
3.7703
3.72114
3.67359
3.60298
3.51748
3.39702
3.23484
2.99499
3.75039
3.72102
3.70163
3.66097
3.61892
3.55248
3.47335
3.35787
3.20639
2.98248
3.67207
3.65385
3.63969
3.60578
3.56861
3.50655
3.43363
3.32364
3.18246
2.97689
3.61431
3.60405
3.59178
3.56179
3.52663
3.46786
3.3996
3.29487
3.16444
2.9775
3.57911
3.57127
3.55906
3.53176
3.49765
3.44103
3.37522
3.27467
3.15293
2.98334
3.56219
3.55193
3.53825
3.5114
3.4774
3.42311
3.35989
3.26404
3.1486
2.99394
3.55492
3.53898
3.52316
3.49596
3.46229
3.41036
3.34992
3.25932
3.15045
3.00839
3.54832
3.52755
3.51003
3.48222
3.44897
3.39939
3.34185
3.25681
3.15508
3.02397
3.53941
3.51562
3.49713
3.46911
3.43647
3.38913
3.33435
3.25488
3.16005
3.03863
3.52838
3.50306
3.48413
3.45628
3.42442
3.37924
3.32708
3.25285
3.16441
3.05182
3.51615
3.49032
3.47133
3.44396
3.41301
3.36991
3.32016
3.25074
3.16793
3.06337
3.50372
3.47797
3.45916
3.43244
3.40246
3.36136
3.31387
3.24886
3.17101
3.07347
3.4917
3.46632
3.44782
3.42185
3.39285
3.35365
3.30823
3.2472
3.17375
3.08251
3.48075
3.45578
3.43766
3.41246
3.38441
3.34702
3.30362
3.24622
3.17677
3.09081
3.47102
3.44639
3.42867
3.40425
3.37706
3.34123
3.2996
3.24537
3.17966
3.09896
1.40339
1.41064
1.41884
1.42812
1.43873
1.45095
1.4662
1.47837
2.71695
3.63729
1.40339
1.41064
1.41884
1.42812
1.43873
1.45095
1.4662
1.47842
2.71373
3.6351
1.40339
1.41064
1.41884
1.42812
1.43873
1.45094
1.4662
1.47847
2.70594
3.63481
1.40339
1.41064
1.41884
1.42812
1.43873
1.45093
1.4662
1.47853
2.69317
3.62704
1.40339
1.41064
1.41884
1.42813
1.43873
1.45093
1.4662
1.4786
2.67776
3.61143
1.40339
1.41064
1.41884
1.42813
1.43873
1.45092
1.4662
1.47864
2.66478
3.59393
1.40339
1.41064
1.41883
1.42813
1.43873
1.45091
1.46621
1.47862
2.6548
3.57938
1.40339
1.41065
1.41883
1.42813
1.43873
1.4509
1.46623
1.47859
2.64516
3.57014
1.40339
1.41065
1.41883
1.42813
1.43873
1.4509
1.46624
1.47857
2.63375
3.56555
1.40339
1.41065
1.41883
1.42813
1.43873
1.45089
1.46626
1.47854
2.61913
3.5633
1.40339
1.41065
1.41883
1.42813
1.43873
1.45088
1.46628
1.47852
2.60119
3.56051
1.40339
1.41065
1.41882
1.42813
1.43873
1.45087
1.4663
1.47851
2.58043
3.55596
1.40339
1.41065
1.41882
1.42814
1.43874
1.45086
1.46631
1.47851
2.55786
3.54936
1.40339
1.41065
1.41882
1.42814
1.43874
1.45085
1.46633
1.47851
2.53444
3.54093
1.40339
1.41065
1.41882
1.42814
1.43874
1.45084
1.46634
1.47852
2.51085
3.53107
1.40339
1.41065
1.41882
1.42814
1.43875
1.45084
1.46636
1.47853
2.48762
3.52028
1.40339
1.41065
1.41882
1.42814
1.43875
1.45083
1.46636
1.47854
2.465
3.509
1.40339
1.41065
1.41882
1.42814
1.43876
1.45082
1.46637
1.47855
2.44305
3.49759
1.40339
1.41065
1.41882
1.42814
1.43876
1.45082
1.46637
1.47856
2.42147
3.48676
1.40339
1.41065
1.41882
1.42814
1.43876
1.45081
1.46637
1.47857
2.40023
3.4767
1.40339
1.41065
1.41882
1.42814
1.43876
1.45081
1.46637
1.47857
2.40026
3.47658
1.40339
1.41065
1.41882
1.42814
1.43876
1.45082
1.46637
1.47856
2.4215
3.48664
1.40339
1.41065
1.41882
1.42814
1.43876
1.45082
1.46637
1.47855
2.44308
3.49747
1.40339
1.41065
1.41882
1.42814
1.43875
1.45083
1.46636
1.47854
2.46502
3.50888
1.40339
1.41065
1.41882
1.42814
1.43875
1.45084
1.46636
1.47853
2.48763
3.52016
1.40339
1.41065
1.41882
1.42814
1.43874
1.45084
1.46634
1.47852
2.51086
3.53096
1.40339
1.41065
1.41882
1.42814
1.43874
1.45085
1.46633
1.47851
2.53443
3.54083
1.40339
1.41065
1.41882
1.42814
1.43874
1.45086
1.46631
1.47851
2.55784
3.54926
1.40339
1.41065
1.41882
1.42813
1.43873
1.45087
1.4663
1.47851
2.58039
3.55587
1.40339
1.41065
1.41883
1.42813
1.43873
1.45088
1.46628
1.47852
2.60114
3.56043
1.40339
1.41065
1.41883
1.42813
1.43873
1.45089
1.46626
1.47854
2.61907
3.56324
1.40339
1.41065
1.41883
1.42813
1.43873
1.4509
1.46624
1.47857
2.63367
3.5655
1.40339
1.41065
1.41883
1.42813
1.43873
1.4509
1.46623
1.47859
2.64507
3.57011
1.40339
1.41064
1.41883
1.42813
1.43873
1.45091
1.46621
1.47862
2.65471
3.57936
1.40339
1.41064
1.41884
1.42813
1.43873
1.45092
1.4662
1.47864
2.6647
3.59393
1.40339
1.41064
1.41884
1.42813
1.43873
1.45093
1.4662
1.4786
2.67769
3.61145
1.40339
1.41064
1.41884
1.42812
1.43873
1.45093
1.4662
1.47853
2.69312
3.62709
1.40339
1.41064
1.41884
1.42812
1.43873
1.45094
1.4662
1.47847
2.70592
3.63488
1.40339
1.41064
1.41884
1.42812
1.43873
1.45095
1.4662
1.47842
2.71373
3.63519
1.40339
1.41064
1.41884
1.42812
1.43873
1.45095
1.4662
1.4784
2.71695
3.63732
3.47092
3.44627
3.42856
3.40417
3.37705
3.34134
3.29988
3.24585
3.18043
3.10001
3.48067
3.45569
3.43758
3.41244
3.38447
3.34721
3.30399
3.24677
3.17764
3.09197
3.49163
3.46625
3.44777
3.42188
3.39297
3.35391
3.30869
3.24785
3.17476
3.08376
3.50365
3.47792
3.45915
3.43252
3.40264
3.36171
3.31442
3.24963
3.17212
3.07478
3.51609
3.49029
3.47136
3.44409
3.41325
3.37033
3.3208
3.25162
3.16911
3.06471
3.52832
3.50306
3.48419
3.45645
3.42472
3.37973
3.3278
3.25382
3.16565
3.05319
3.53934
3.51563
3.49722
3.46931
3.43682
3.38968
3.33514
3.25591
3.16137
3.04003
3.54825
3.52758
3.51015
3.48246
3.44936
3.39999
3.3427
3.25788
3.15649
3.02534
3.55486
3.53904
3.52332
3.49625
3.46273
3.41101
3.35083
3.26043
3.15191
3.00964
3.56222
3.55205
3.53846
3.51174
3.47788
3.4238
3.36084
3.26518
3.15006
2.99502
3.57926
3.57148
3.55933
3.53215
3.49817
3.44174
3.3762
3.27584
3.15428
2.98429
3.61454
3.60432
3.5921
3.56221
3.52717
3.46858
3.40058
3.29604
3.16565
2.9784
3.67235
3.65416
3.64004
3.60621
3.56916
3.50728
3.4346
3.32476
3.18362
2.97765
3.75066
3.72133
3.70198
3.66141
3.61946
3.55318
3.47425
3.3589
3.20749
2.98283
3.84035
3.79855
3.77064
3.7216
3.67415
3.60368
3.51836
3.39799
3.23591
2.99421
3.9197
3.86759
3.83693
3.77989
3.72436
3.64907
3.55785
3.434
3.26229
3.01402
3.97183
3.9023
3.87088
3.81366
3.75303
3.6741
3.57745
3.45219
3.27567
3.03246
4.0344
3.9319
3.88794
3.82347
3.7585
3.68103
3.58508
3.46226
3.28352
3.04337
4.07714
3.9296
3.86446
3.78875
3.71791
3.64243
3.55315
3.43877
3.2651
3.01167
4.28774
4.12978
4.01934
3.91173
3.81041
3.71789
3.62031
3.51066
3.3437
3.1339
2.90187
2.57908
2.27812
2.02124
1.80045
1.61001
1.56327
1.7073
2.01192
1.95596
2.88311
2.54594
2.23806
1.98202
1.76282
1.58927
1.56401
1.75803
2.03987
1.96551
2.86256
2.50939
2.19547
1.94142
1.72226
1.57293
1.56765
1.81238
2.0631
1.97582
2.83952
2.46907
2.15014
1.89667
1.68292
1.56171
1.57921
1.86898
2.08211
1.98536
2.81356
2.42523
2.10044
1.84983
1.64988
1.55239
1.5956
1.92018
2.09718
1.99533
2.78441
2.37763
2.04648
1.80609
1.6153
1.54336
1.62145
1.96294
2.10835
2.00474
2.75209
2.32557
1.99178
1.76385
1.573
1.54023
1.65792
1.99956
2.11558
2.0136
2.71596
2.27055
1.93857
1.71367
1.53782
1.54034
1.7057
2.03648
2.11881
2.01786
2.67626
2.21346
1.88159
1.65887
1.51969
1.53921
1.76204
2.07421
2.11989
2.02188
2.63332
2.15335
1.81781
1.61484
1.51102
1.53804
1.81819
2.1092
2.12291
2.02587
2.58877
2.08427
1.75751
1.58436
1.49865
1.54604
1.86862
2.13533
2.12997
2.03024
2.54054
2.00839
1.70881
1.54953
1.48341
1.56008
1.91742
2.15257
2.13615
2.03548
2.48714
1.93071
1.66096
1.50232
1.476
1.5876
1.96894
2.16374
2.13917
2.03861
2.42449
1.84987
1.60074
1.46373
1.47433
1.63073
2.0172
2.17529
2.14098
2.03883
2.34443
1.74862
1.54272
1.44926
1.4792
1.68584
2.05349
2.18794
2.1463
2.04133
2.23878
1.6279
1.49649
1.44725
1.49067
1.74154
2.07671
2.19757
2.15474
2.04717
2.09085
1.5004
1.45136
1.43976
1.50965
1.79296
2.09056
2.20261
2.16397
2.05685
1.89986
1.38218
1.3977
1.43151
1.53119
1.84294
2.10899
2.20388
2.16971
2.06364
1.65323
1.28873
1.3335
1.42196
1.55425
1.89622
2.13899
2.20899
2.17076
2.06295
1.36999
1.20488
1.26851
1.41068
1.57848
1.94012
2.16298
2.22795
2.1724
2.05842
3.16191
3.03008
2.85579
2.66962
2.45972
2.23424
2.00515
1.79524
1.54733
1.27756
3.16099
3.02892
2.85364
2.6665
2.45636
2.23104
2.00253
1.79147
1.54394
1.2799
3.15947
3.02598
2.85036
2.66147
2.4506
2.22542
1.99767
1.78468
1.53808
1.28387
3.15696
3.02106
2.84573
2.65356
2.44194
2.21708
1.99048
1.77463
1.53079
1.29016
3.15344
3.01472
2.83872
2.64341
2.43055
2.20601
1.98074
1.76109
1.52174
1.29941
3.14884
3.00654
2.82917
2.63063
2.41629
2.19222
1.96831
1.74392
1.51288
1.31209
3.1431
2.99662
2.817
2.61519
2.39914
2.17557
1.95305
1.7231
1.50434
1.32844
3.13623
2.98498
2.8022
2.59697
2.37909
2.1562
1.93453
1.69907
1.49821
1.35079
3.12824
2.97161
2.78475
2.57591
2.35604
2.13393
1.91277
1.67187
1.49158
1.38021
3.11913
2.95634
2.76457
2.55189
2.33009
2.10875
1.88703
1.64358
1.48282
1.42244
3.10882
2.9389
2.7415
2.52461
2.30096
2.08061
1.85717
1.61398
1.47325
1.47569
3.0971
2.91902
2.71508
2.49399
2.26855
2.04902
1.82329
1.58648
1.47042
1.53328
3.08378
2.89635
2.68523
2.4593
2.23281
2.01372
1.7851
1.56404
1.47363
1.5982
3.06866
2.87061
2.65133
2.4208
2.1929
1.97434
1.74381
1.54886
1.49004
1.66611
3.05161
2.84151
2.6131
2.37759
2.14957
1.92966
1.70121
1.53913
1.52519
1.73373
3.03246
2.80855
2.5701
2.32952
2.10128
1.8807
1.65974
1.53417
1.58276
1.79819
3.01082
2.77131
2.52161
2.27618
2.04841
1.82571
1.62512
1.53522
1.66441
1.8499
2.98638
2.72893
2.46722
2.21702
1.99021
1.76721
1.59592
1.55039
1.76385
1.88945
2.95908
2.68065
2.40531
2.15174
1.92576
1.70704
1.57393
1.58475
1.86371
1.91865
2.92752
2.6247
2.33524
2.07942
1.85582
1.64927
1.56476
1.64269
1.95654
1.94095
2.92627
2.62358
2.33455
2.07915
1.85721
1.65204
1.56336
1.63448
1.95363
1.94074
2.95795
2.67937
2.40438
2.15158
1.92729
1.71049
1.57305
1.57861
1.85659
1.91824
2.98547
2.72761
2.46593
2.21643
1.99148
1.77102
1.59606
1.54763
1.75563
1.88752
3.01012
2.77007
2.52012
2.27519
2.04896
1.82873
1.6256
1.53484
1.65805
1.84716
3.03198
2.80749
2.56862
2.32833
2.10121
1.88255
1.66133
1.53421
1.57908
1.79461
3.05135
2.84067
2.61182
2.37629
2.14892
1.93057
1.70235
1.53934
1.52398
1.73068
3.0686
2.87005
2.6503
2.41957
2.192
1.97432
1.74454
1.54923
1.49024
1.66404
3.08388
2.89604
2.68447
2.45819
2.23177
2.01323
1.78511
1.56432
1.47414
1.59773
3.09732
2.91893
2.71457
2.49311
2.26758
2.04829
1.82283
1.58639
1.47056
1.53378
3.1091
2.93897
2.74125
2.52397
2.30017
2.07984
1.85645
1.61357
1.47308
1.47695
3.11944
2.95651
2.76448
2.5515
2.32948
2.10808
1.88627
1.64278
1.48264
1.42389
3.12853
2.97184
2.78481
2.57572
2.35566
2.13343
1.91208
1.67107
1.49147
1.38134
3.13648
2.98523
2.80233
2.59695
2.37891
2.1559
1.93405
1.69829
1.498
1.35161
3.14329
2.99684
2.81717
2.61529
2.39914
2.17547
1.95278
1.72254
1.50409
1.329
3.14895
3.0067
2.82935
2.63081
2.41643
2.1923
1.96827
1.74361
1.51262
1.31249
3.15346
3.01481
2.83889
2.64363
2.4308
2.20626
1.9809
1.76104
1.5216
1.29969
3.1569
3.02108
2.84587
2.6538
2.44226
2.21745
1.99082
1.77483
1.53083
1.29037
3.15934
3.02594
2.85048
2.66171
2.45097
2.22588
1.99814
1.78508
1.53834
1.28404
3.16082
3.02886
2.85371
2.66672
2.45675
2.23154
2.00308
1.792
1.54435
1.28007
3.16171
3.03
2.85583
2.66983
2.46012
2.23478
2.00575
1.79586
1.54786
1.27772
3.46084
3.43645
3.41912
3.39556
3.36937
3.33548
3.29605
3.24581
3.18456
3.11032
3.45074
3.42685
3.41006
3.38748
3.36235
3.33042
3.29319
3.24717
3.19162
3.12543
3.44175
3.41928
3.40301
3.38137
3.35743
3.32774
3.2929
3.25042
3.1996
3.13932
3.43308
3.41327
3.398
3.37767
3.355
3.32708
3.29386
3.25401
3.20675
3.15132
3.42442
3.40763
3.39345
3.37401
3.35179
3.3252
3.29411
3.25769
3.21419
3.16297
3.41478
3.39924
3.38578
3.36835
3.34842
3.32424
3.29535
3.2615
3.22101
3.17346
3.40683
3.39214
3.38052
3.36473
3.34613
3.3236
3.29665
3.26506
3.22731
3.183
3.4054
3.38965
3.37801
3.36279
3.34499
3.32367
3.29828
3.26852
3.23313
3.19154
3.40803
3.39023
3.37773
3.36236
3.34485
3.32437
3.30018
3.27188
3.23842
3.1991
3.41332
3.39393
3.37996
3.36343
3.34563
3.32555
3.30221
3.27511
3.24323
3.20581
3.41911
3.39919
3.38416
3.36637
3.34762
3.32721
3.30427
3.27811
3.24763
3.21185
3.42434
3.40448
3.38927
3.37074
3.35093
3.32961
3.30651
3.28088
3.25155
3.21726
3.42878
3.40897
3.39415
3.37565
3.35534
3.33314
3.30932
3.28356
3.25496
3.22198
3.4325
3.41258
3.39826
3.3802
3.36003
3.33745
3.31291
3.28657
3.25806
3.22598
3.4356
3.41549
3.40152
3.38391
3.36423
3.3418
3.31696
3.28999
3.26114
3.22938
3.43814
3.41782
3.40401
3.3867
3.36755
3.34558
3.32091
3.29361
3.26427
3.23239
3.44004
3.41953
3.40577
3.3886
3.36984
3.34838
3.32413
3.29685
3.26721
3.23495
3.44136
3.42068
3.40692
3.38981
3.37128
3.35019
3.32638
3.29933
3.26962
3.23706
3.44187
3.42117
3.40742
3.39031
3.3719
3.35101
3.32751
3.30068
3.27104
3.23836
3.44198
3.42136
3.4077
3.3906
3.37223
3.35138
3.32798
3.30124
3.27168
3.23902
1.40339
1.41066
1.41882
1.42814
1.43877
1.45081
1.46637
1.47858
2.37432
3.46548
1.40338
1.41066
1.41882
1.42813
1.43877
1.4508
1.46637
1.47859
2.34397
3.45371
1.40338
1.41066
1.41882
1.42813
1.43878
1.4508
1.46637
1.4786
2.31453
3.44319
1.40338
1.41065
1.41882
1.42813
1.43878
1.45079
1.46637
1.47861
2.2861
3.43363
1.40339
1.41065
1.41882
1.42813
1.43879
1.45079
1.46636
1.47862
2.25897
3.42571
1.40339
1.41065
1.41883
1.42812
1.43879
1.45079
1.46636
1.47862
2.23325
3.41915
1.40339
1.41065
1.41883
1.42812
1.43879
1.45079
1.46635
1.47863
2.20889
3.41278
1.40339
1.41065
1.41883
1.42812
1.4388
1.45078
1.46635
1.47863
2.18574
3.40626
1.40339
1.41065
1.41883
1.42811
1.4388
1.45078
1.46635
1.47864
2.16326
3.4002
1.40339
1.41065
1.41883
1.42811
1.4388
1.45078
1.46635
1.47865
2.14129
3.39482
1.40339
1.41065
1.41884
1.42811
1.43881
1.45078
1.46635
1.47866
2.12047
3.38998
1.40339
1.41065
1.41884
1.4281
1.43881
1.45077
1.46636
1.47868
2.10131
3.38565
1.40339
1.41065
1.41884
1.4281
1.43882
1.45077
1.46638
1.47869
2.08407
3.38183
1.40339
1.41064
1.41884
1.4281
1.43882
1.45076
1.4664
1.4787
2.06883
3.37855
1.40339
1.41064
1.41884
1.42809
1.43883
1.45075
1.46643
1.47871
2.05565
3.37577
1.40339
1.41064
1.41885
1.42809
1.43884
1.45074
1.46646
1.47872
2.04459
3.37344
1.40339
1.41064
1.41885
1.42809
1.43885
1.45074
1.4665
1.47873
2.03573
3.37143
1.40339
1.41064
1.41885
1.42808
1.43885
1.45073
1.46652
1.47873
2.02899
3.3698
1.40339
1.41064
1.41885
1.42808
1.43885
1.45073
1.46653
1.47874
2.02419
3.36836
1.40339
1.41064
1.41885
1.42808
1.43886
1.45072
1.46657
1.47874
2.02163
3.3676
1.40339
1.41064
1.41885
1.42808
1.43886
1.45072
1.46657
1.47874
2.02163
3.36758
1.40339
1.41064
1.41885
1.42808
1.43885
1.45073
1.46653
1.47874
2.02418
3.36834
1.40339
1.41064
1.41885
1.42808
1.43885
1.45073
1.46652
1.47873
2.02898
3.36979
1.40339
1.41064
1.41885
1.42809
1.43885
1.45074
1.4665
1.47873
2.03573
3.37143
1.40339
1.41064
1.41885
1.42809
1.43884
1.45074
1.46646
1.47872
2.04458
3.37344
1.40339
1.41064
1.41884
1.42809
1.43883
1.45075
1.46643
1.47871
2.05564
3.37577
1.40339
1.41064
1.41884
1.4281
1.43882
1.45076
1.4664
1.4787
2.06882
3.37856
1.40339
1.41065
1.41884
1.4281
1.43882
1.45077
1.46638
1.47869
2.08406
3.38186
1.40339
1.41065
1.41884
1.4281
1.43881
1.45077
1.46636
1.47868
2.1013
3.38568
1.40339
1.41065
1.41884
1.42811
1.43881
1.45078
1.46635
1.47866
2.12045
3.39002
1.40339
1.41065
1.41883
1.42811
1.4388
1.45078
1.46635
1.47865
2.14128
3.39487
1.40339
1.41065
1.41883
1.42811
1.4388
1.45078
1.46635
1.47864
2.16326
3.40025
1.40339
1.41065
1.41883
1.42812
1.4388
1.45078
1.46635
1.47863
2.18575
3.40632
1.40339
1.41065
1.41883
1.42812
1.43879
1.45079
1.46635
1.47863
2.20892
3.41287
1.40339
1.41065
1.41883
1.42812
1.43879
1.45079
1.46636
1.47862
2.2333
3.41929
1.40339
1.41065
1.41882
1.42813
1.43879
1.45079
1.46636
1.47862
2.25903
3.42582
1.40338
1.41065
1.41882
1.42813
1.43878
1.45079
1.46637
1.47861
2.28616
3.43365
1.40338
1.41066
1.41882
1.42813
1.43878
1.4508
1.46637
1.4786
2.31458
3.44313
1.40338
1.41066
1.41882
1.42813
1.43877
1.4508
1.46637
1.47859
2.34401
3.45363
1.40339
1.41066
1.41882
1.42814
1.43877
1.45081
1.46637
1.47858
2.37436
3.46538
3.44193
3.42132
3.40767
3.39058
3.37223
3.35141
3.32804
3.30134
3.27183
3.2392
3.44184
3.42113
3.40739
3.3903
3.37191
3.35104
3.32757
3.30078
3.27117
3.23853
3.44134
3.42066
3.40692
3.38981
3.3713
3.35023
3.32645
3.29942
3.26974
3.2372
3.44004
3.41953
3.40578
3.38863
3.36988
3.34843
3.32419
3.29694
3.26731
3.23506
3.43815
3.41786
3.40405
3.38675
3.36761
3.34565
3.32098
3.29368
3.26434
3.23244
3.43564
3.41554
3.40158
3.38398
3.36431
3.34188
3.31703
3.29004
3.26116
3.22937
3.43256
3.41266
3.39835
3.3803
3.36013
3.33753
3.31297
3.28659
3.25804
3.22589
3.42887
3.40908
3.39427
3.37577
3.35545
3.33321
3.30935
3.28354
3.25487
3.22182
3.42446
3.40461
3.3894
3.37086
3.35102
3.32965
3.3065
3.2808
3.2514
3.21704
3.41925
3.39933
3.38429
3.36647
3.34767
3.3272
3.3042
3.27797
3.24742
3.21157
3.41347
3.39407
3.38005
3.36349
3.34563
3.32549
3.30208
3.27491
3.24297
3.20549
3.40818
3.39032
3.37778
3.36234
3.34479
3.32424
3.29998
3.27162
3.23812
3.19877
3.40549
3.38967
3.37798
3.36269
3.34483
3.32345
3.29802
3.26821
3.23281
3.19124
3.40677
3.39201
3.38034
3.36451
3.34586
3.32331
3.29633
3.26473
3.227
3.18277
3.41435
3.39872
3.38536
3.36801
3.34808
3.32389
3.29501
3.26119
3.22075
3.17332
3.42408
3.40731
3.39306
3.37355
3.35134
3.32482
3.2938
3.25744
3.21403
3.16298
3.43277
3.41302
3.39774
3.37742
3.35474
3.32679
3.29358
3.25381
3.20672
3.15153
3.44148
3.41904
3.40277
3.38113
3.35721
3.32755
3.29279
3.25043
3.19979
3.13973
3.45056
3.42667
3.40987
3.38728
3.36215
3.33028
3.29318
3.24733
3.19204
3.12608
3.46071
3.4363
3.41897
3.39543
3.3693
3.33551
3.29623
3.24616
3.18515
3.11117
)
;

boundaryField
{
    inlet
    {
        type            calculated;
        value           uniform 1.40001;
    }
    outlet
    {
        type            calculated;
        value           nonuniform List<scalar> 
100
(
1.941
1.9185
1.88778
1.84741
1.79486
1.73093
1.66429
1.59797
1.53402
1.47718
1.42412
1.38155
1.3518
1.32918
1.31266
1.29985
1.29053
1.28419
1.28022
1.27787
2.07329
2.0683
2.061
2.05509
2.0514
2.04955
2.04482
2.03947
2.03486
2.03185
2.02888
2.02466
2.01879
2.01185
2.00451
1.99825
1.98731
1.97735
1.96628
1.95657
2.06053
2.06797
2.068
2.03952
1.98903
1.93769
1.86808
1.82
1.7937
1.78024
1.78915
1.79607
1.83206
1.89371
1.94623
2.00325
2.04799
2.05857
2.06534
2.07271
1.95622
1.96576
1.97604
1.98559
1.99559
2.00504
2.01392
2.01806
2.02206
2.02613
2.0306
2.03581
2.03875
2.03883
2.04162
2.04767
2.05731
2.06389
2.06266
2.05839
1.27771
1.28006
1.28402
1.29032
1.29958
1.31227
1.32862
1.35098
1.38042
1.42267
1.47594
1.53354
1.59847
1.66637
1.734
1.79845
1.85016
1.8897
1.91889
1.94119
)
;
    }
    triangle
    {
        type            calculated;
        value           nonuniform List<scalar> 
40
(
4.28756
4.12956
4.01908
3.91139
3.81
3.71738
3.61968
3.51003
3.34327
3.13547
1.10456
1.07212
1.06771
1.06833
1.06714
1.06834
1.07037
1.07493
1.08114
1.0865
1.08828
1.08674
1.08265
1.07414
1.06875
1.06745
1.07171
1.07641
1.08547
1.11413
4.28774
4.12978
4.01934
3.91173
3.81041
3.71789
3.62031
3.51066
3.3437
3.1339
)
;
    }
    top
    {
        type            symmetryPlane;
    }
    bottom
    {
        type            symmetryPlane;
    }
    defaultFaces
    {
        type            empty;
    }
}


// ************************************************************************* //
