/*--------------------------------*- C++ -*----------------------------------*\
  =========                 |
  \\      /  F ield         | OpenFOAM: The Open Source CFD Toolbox
   \\    /   O peration     | Website:  https://openfoam.org
    \\  /    A nd           | Version:  8
     \\/     M anipulation  |
\*---------------------------------------------------------------------------*/
FoamFile
{
    version     2.0;
    format      ascii;
    class       volScalarField;
    location    "3";
    object      T;
}
// * * * * * * * * * * * * * * * * * * * * * * * * * * * * * * * * * * * * * //

dimensions      [0 0 0 1 0 0 0];

internalField   nonuniform List<scalar> 
2600
(
1.36303
1.28765
1.19897
1.15478
1.16019
1.22076
1.27475
1.2778
1.25843
1.22189
1.40974
1.34452
1.2543
1.19815
1.18977
1.23414
1.27588
1.28262
1.26377
1.22752
1.42648
1.37444
1.31035
1.25347
1.22499
1.2537
1.28119
1.29084
1.27363
1.23757
1.42774
1.38515
1.35571
1.32347
1.27069
1.28151
1.30107
1.30886
1.29136
1.25163
1.42544
1.38778
1.38922
1.39311
1.33594
1.32337
1.33945
1.3519
1.33195
1.2764
1.42477
1.38878
1.40443
1.44325
1.41537
1.38419
1.38728
1.40876
1.38514
1.31922
1.42579
1.38718
1.40799
1.46686
1.47909
1.46252
1.45454
1.47615
1.44208
1.36496
1.42944
1.38902
1.40871
1.47881
1.52588
1.53859
1.52496
1.52425
1.48511
1.40578
1.43376
1.39291
1.4143
1.48912
1.54289
1.57636
1.56029
1.54627
1.50464
1.42935
1.43671
1.39775
1.41396
1.48471
1.54343
1.58655
1.57364
1.54546
1.50502
1.43655
1.43743
1.39637
1.41369
1.485
1.54675
1.58286
1.5702
1.5468
1.50547
1.4389
1.43587
1.39445
1.40507
1.47059
1.55
1.59344
1.57424
1.53494
1.48329
1.42648
1.43232
1.38854
1.39102
1.45194
1.53179
1.58701
1.5627
1.50144
1.44627
1.40059
1.42764
1.38274
1.37652
1.43049
1.4875
1.55754
1.52466
1.43848
1.39421
1.36108
1.42691
1.3759
1.35819
1.38463
1.416
1.48547
1.4478
1.38071
1.33785
1.31187
1.42936
1.37318
1.32782
1.31833
1.33505
1.39812
1.37465
1.33058
1.29578
1.2739
1.43515
1.37283
1.29351
1.25356
1.27326
1.33284
1.32006
1.30034
1.28118
1.25019
1.43757
1.36868
1.25403
1.19999
1.23352
1.28725
1.29341
1.28806
1.27173
1.2341
1.42369
1.34783
1.20657
1.15298
1.19872
1.25519
1.2809
1.27862
1.26332
1.22696
1.37345
1.29496
1.1577
1.11764
1.17118
1.23647
1.27404
1.27297
1.2565
1.22508
1.32471
1.22384
1.11901
1.09185
1.14904
1.22363
1.26991
1.26891
1.25419
1.22383
1.29156
1.17792
1.09997
1.07649
1.13159
1.21261
1.26745
1.2679
1.25555
1.22268
1.29072
1.15856
1.09186
1.07132
1.12004
1.20272
1.26537
1.26852
1.25778
1.22186
1.2956
1.15494
1.0895
1.071
1.11201
1.19275
1.26253
1.26946
1.25744
1.22136
1.30836
1.16299
1.09046
1.07578
1.10519
1.18139
1.25881
1.26872
1.25543
1.22123
1.32466
1.18095
1.10081
1.08024
1.1005
1.16843
1.25166
1.26627
1.25346
1.22133
1.34212
1.20332
1.12215
1.08787
1.09824
1.15384
1.2413
1.26275
1.25267
1.22033
1.35945
1.22534
1.14405
1.09958
1.09951
1.13961
1.22791
1.25919
1.25169
1.21859
1.37563
1.24796
1.16228
1.11345
1.10094
1.12798
1.2125
1.25584
1.25028
1.21662
1.38953
1.26915
1.17938
1.1235
1.1046
1.11927
1.1964
1.2528
1.24826
1.21468
1.40035
1.28729
1.19778
1.1326
1.10791
1.1124
1.18026
1.25024
1.24591
1.21261
1.40834
1.30155
1.21487
1.14529
1.10958
1.10634
1.16416
1.24688
1.24316
1.21031
1.41428
1.31331
1.22867
1.16033
1.11191
1.10407
1.14874
1.24065
1.2399
1.208
1.41889
1.32372
1.24015
1.1731
1.11832
1.10349
1.13501
1.2294
1.23686
1.20572
1.42302
1.33302
1.25169
1.18351
1.12738
1.10456
1.1233
1.21406
1.23423
1.2037
1.42702
1.34156
1.26285
1.19415
1.13532
1.10724
1.11384
1.19736
1.23163
1.20234
1.43101
1.34947
1.27303
1.2054
1.14363
1.11
1.10657
1.1814
1.22888
1.2003
1.43489
1.357
1.28235
1.21585
1.15425
1.11232
1.10183
1.16615
1.2256
1.19885
1.43855
1.36405
1.29132
1.2254
1.1651
1.1152
1.10092
1.15113
1.22113
1.19711
1.44197
1.37062
1.29994
1.23476
1.17488
1.11984
1.1009
1.13668
1.21497
1.19537
1.78618
1.76053
1.73893
1.71505
1.6906
1.66737
1.64371
1.61799
1.58074
1.55416
1.73857
1.71047
1.69405
1.67555
1.65807
1.63987
1.61931
1.59393
1.55644
1.50916
1.70661
1.68173
1.66652
1.65051
1.63685
1.62147
1.6025
1.57769
1.54136
1.49121
1.66536
1.64843
1.63812
1.62506
1.61342
1.59933
1.582
1.55851
1.52443
1.47557
1.63196
1.62436
1.61903
1.60856
1.59845
1.58518
1.56895
1.54618
1.51389
1.46757
1.6246
1.61643
1.6113
1.60246
1.59359
1.58039
1.56428
1.54132
1.51019
1.46568
1.62163
1.61503
1.61067
1.60239
1.59353
1.5801
1.56419
1.54114
1.51091
1.46815
1.61853
1.61366
1.60964
1.60192
1.5935
1.58029
1.5647
1.54181
1.51293
1.47249
1.61424
1.61061
1.60659
1.5993
1.59128
1.57869
1.56397
1.54195
1.51451
1.47677
1.60855
1.60527
1.60098
1.59404
1.58627
1.57442
1.5608
1.54021
1.51455
1.47939
1.60176
1.59829
1.59382
1.58699
1.57929
1.56806
1.55534
1.53621
1.51265
1.48007
1.59469
1.59073
1.58626
1.5796
1.57201
1.56125
1.54912
1.53118
1.50937
1.4797
1.58827
1.58374
1.57932
1.57284
1.56543
1.55509
1.5434
1.52646
1.50612
1.47903
1.58276
1.57781
1.57342
1.56712
1.55994
1.55001
1.53873
1.52271
1.50358
1.47867
1.5781
1.57292
1.56855
1.56241
1.55546
1.54596
1.5351
1.51998
1.50196
1.47886
1.5741
1.56886
1.56452
1.55854
1.55181
1.54273
1.53231
1.51805
1.50107
1.47954
1.57061
1.56542
1.56115
1.55532
1.5488
1.54012
1.53014
1.51672
1.5007
1.4806
1.56748
1.56238
1.55821
1.55256
1.54626
1.53796
1.5284
1.51576
1.5006
1.48179
1.56462
1.55963
1.55558
1.55012
1.54405
1.53614
1.527
1.51509
1.50071
1.48298
1.56189
1.55701
1.5531
1.54785
1.542
1.53445
1.5257
1.51444
1.50082
1.48417
1.00097
1.00303
1.00536
1.00798
1.01097
1.01439
1.01866
1.02199
1.43148
1.64348
1.00097
1.00303
1.00536
1.00798
1.01097
1.01439
1.01866
1.02201
1.43077
1.64023
1.00097
1.00303
1.00536
1.00798
1.01097
1.01439
1.01866
1.02202
1.43001
1.6362
1.00097
1.00303
1.00536
1.00798
1.01097
1.01438
1.01866
1.02204
1.42958
1.6345
1.00097
1.00303
1.00536
1.00798
1.01097
1.01438
1.01866
1.02206
1.42873
1.63541
1.00097
1.00303
1.00536
1.00798
1.01097
1.01438
1.01866
1.02207
1.42499
1.63538
1.00097
1.00303
1.00536
1.00798
1.01097
1.01438
1.01866
1.02206
1.41884
1.63367
1.00097
1.00303
1.00535
1.00798
1.01097
1.01438
1.01867
1.02205
1.41146
1.62899
1.00097
1.00303
1.00535
1.00798
1.01097
1.01437
1.01867
1.02205
1.4035
1.62156
1.00097
1.00303
1.00535
1.00798
1.01097
1.01437
1.01868
1.02204
1.39532
1.61273
1.00097
1.00303
1.00535
1.00798
1.01097
1.01437
1.01868
1.02204
1.38728
1.60389
1.00097
1.00303
1.00535
1.00799
1.01097
1.01437
1.01869
1.02203
1.37953
1.59597
1.00097
1.00303
1.00535
1.00799
1.01097
1.01436
1.01869
1.02203
1.37211
1.58929
1.00096
1.00303
1.00535
1.00799
1.01097
1.01436
1.0187
1.02203
1.36495
1.58381
1.00096
1.00303
1.00535
1.00799
1.01097
1.01436
1.0187
1.02204
1.35798
1.5793
1.00096
1.00303
1.00535
1.00799
1.01097
1.01436
1.0187
1.02204
1.35115
1.57552
1.00096
1.00303
1.00535
1.00799
1.01098
1.01435
1.0187
1.02204
1.34442
1.5722
1.00096
1.00303
1.00535
1.00799
1.01098
1.01435
1.01871
1.02204
1.33778
1.56913
1.00096
1.00303
1.00535
1.00799
1.01098
1.01435
1.01871
1.02205
1.33112
1.56625
1.00096
1.00303
1.00535
1.00799
1.01098
1.01435
1.01871
1.02205
1.3244
1.56341
1.00096
1.00303
1.00535
1.00799
1.01098
1.01435
1.01871
1.02205
1.32442
1.5634
1.00096
1.00303
1.00535
1.00799
1.01098
1.01435
1.01871
1.02205
1.33113
1.56623
1.00096
1.00303
1.00535
1.00799
1.01098
1.01435
1.01871
1.02204
1.33779
1.56912
1.00096
1.00303
1.00535
1.00799
1.01098
1.01435
1.0187
1.02204
1.34443
1.57218
1.00096
1.00303
1.00535
1.00799
1.01097
1.01436
1.0187
1.02204
1.35116
1.5755
1.00096
1.00303
1.00535
1.00799
1.01097
1.01436
1.0187
1.02204
1.35799
1.57929
1.00096
1.00303
1.00535
1.00799
1.01097
1.01436
1.0187
1.02203
1.36495
1.58379
1.00097
1.00303
1.00535
1.00799
1.01097
1.01436
1.01869
1.02203
1.37211
1.58928
1.00097
1.00303
1.00535
1.00799
1.01097
1.01437
1.01869
1.02203
1.37952
1.59595
1.00097
1.00303
1.00535
1.00798
1.01097
1.01437
1.01868
1.02204
1.38727
1.60387
1.00097
1.00303
1.00535
1.00798
1.01097
1.01437
1.01868
1.02204
1.39531
1.61272
1.00097
1.00303
1.00535
1.00798
1.01097
1.01437
1.01867
1.02205
1.40349
1.62154
1.00097
1.00303
1.00535
1.00798
1.01097
1.01438
1.01867
1.02205
1.41144
1.62897
1.00097
1.00303
1.00536
1.00798
1.01097
1.01438
1.01866
1.02206
1.41881
1.63365
1.00097
1.00303
1.00536
1.00798
1.01097
1.01438
1.01866
1.02207
1.42496
1.63536
1.00097
1.00303
1.00536
1.00798
1.01097
1.01438
1.01866
1.02206
1.4287
1.63538
1.00097
1.00303
1.00536
1.00798
1.01097
1.01438
1.01866
1.02204
1.42955
1.63446
1.00097
1.00303
1.00536
1.00798
1.01097
1.01439
1.01866
1.02202
1.42998
1.63617
1.00097
1.00303
1.00536
1.00798
1.01097
1.01439
1.01866
1.02201
1.43074
1.6402
1.00097
1.00303
1.00536
1.00798
1.01097
1.01439
1.01866
1.022
1.43146
1.64346
1.56188
1.55699
1.55308
1.54784
1.542
1.53447
1.52576
1.51453
1.50096
1.48437
1.56461
1.55962
1.55557
1.55012
1.54406
1.53618
1.52707
1.51519
1.50088
1.48321
1.56747
1.56237
1.55821
1.55257
1.54628
1.53801
1.52849
1.51588
1.50079
1.48203
1.5706
1.56541
1.56115
1.55534
1.54884
1.54019
1.53024
1.51687
1.50091
1.48084
1.57409
1.56886
1.56453
1.55857
1.55186
1.54281
1.53243
1.51822
1.5013
1.4798
1.57809
1.57292
1.56856
1.56245
1.55552
1.54606
1.53524
1.52016
1.5022
1.47913
1.58275
1.57782
1.57344
1.56717
1.56001
1.55012
1.53888
1.52291
1.50384
1.47895
1.58826
1.58375
1.57934
1.57288
1.5655
1.5552
1.54355
1.52666
1.50639
1.4793
1.59468
1.59073
1.58627
1.57964
1.57208
1.56136
1.54928
1.53138
1.50965
1.47995
1.60173
1.59828
1.59382
1.58703
1.57935
1.56817
1.5555
1.53642
1.51292
1.48029
1.60852
1.60525
1.60098
1.59406
1.58633
1.57452
1.56097
1.54041
1.5148
1.47959
1.6142
1.61059
1.60659
1.59933
1.59134
1.57879
1.56413
1.54215
1.51473
1.47696
1.6185
1.61364
1.60965
1.60195
1.59356
1.58039
1.56485
1.54199
1.51314
1.47266
1.62161
1.61502
1.61067
1.60243
1.59359
1.58019
1.56434
1.54131
1.51111
1.46817
1.62458
1.61642
1.6113
1.60248
1.59363
1.58046
1.56439
1.54147
1.51039
1.46546
1.63193
1.62434
1.61902
1.60855
1.59845
1.58521
1.56902
1.5463
1.51406
1.4672
1.66533
1.6484
1.63809
1.62503
1.6134
1.59934
1.58205
1.5586
1.52456
1.47509
1.70659
1.6817
1.66649
1.65048
1.63684
1.62148
1.60254
1.57776
1.54142
1.4907
1.73856
1.71046
1.69404
1.67554
1.65807
1.63989
1.61935
1.59397
1.55646
1.50871
1.78617
1.76053
1.73893
1.71505
1.69061
1.66738
1.64374
1.61801
1.58073
1.55396
1.44221
1.37078
1.29997
1.23492
1.17475
1.11979
1.10104
1.13907
1.2147
1.19516
1.43877
1.36409
1.29125
1.2257
1.16508
1.11535
1.10073
1.15312
1.22035
1.19682
1.4351
1.35688
1.28215
1.21626
1.15453
1.11227
1.10155
1.16797
1.22463
1.1983
1.43122
1.34921
1.27269
1.20595
1.1444
1.10937
1.10616
1.18343
1.22796
1.1996
1.42723
1.34117
1.26249
1.19528
1.1363
1.10606
1.11273
1.19958
1.23084
1.2013
1.42319
1.33261
1.25142
1.18547
1.12833
1.10265
1.12103
1.21581
1.2335
1.20332
1.41902
1.32308
1.2401
1.17596
1.11919
1.10111
1.13133
1.23
1.23625
1.20576
1.41423
1.31241
1.22873
1.16401
1.1126
1.10125
1.1441
1.24041
1.2394
1.20762
1.40816
1.3002
1.2155
1.15031
1.10927
1.10284
1.15887
1.24662
1.24277
1.20978
1.39996
1.2857
1.19908
1.13913
1.10684
1.10621
1.17473
1.25056
1.24594
1.21223
1.38915
1.26723
1.18184
1.13137
1.10281
1.11137
1.1912
1.25365
1.2486
1.21478
1.37512
1.24561
1.16615
1.12193
1.09766
1.11668
1.20832
1.25695
1.25011
1.21721
1.35851
1.22326
1.14926
1.10804
1.09465
1.12487
1.22588
1.2602
1.25109
1.2185
1.34039
1.20172
1.1282
1.09435
1.0944
1.13656
1.24209
1.26392
1.25205
1.21862
1.32169
1.18034
1.11035
1.08688
1.09502
1.15138
1.25545
1.26781
1.25373
1.21906
1.30443
1.16436
1.10343
1.08413
1.09714
1.1659
1.26485
1.27049
1.25568
1.22005
1.29119
1.15865
1.10489
1.0831
1.10219
1.17829
1.2692
1.27133
1.25702
1.22143
1.28658
1.16095
1.11043
1.08757
1.10888
1.18894
1.27149
1.27089
1.25712
1.22186
1.29074
1.17579
1.12306
1.09884
1.11825
1.19976
1.27422
1.2712
1.25649
1.221
1.32115
1.21752
1.15176
1.12148
1.13561
1.2102
1.27524
1.27406
1.25658
1.22021
1.47521
1.44723
1.41
1.36914
1.32153
1.26803
1.21069
1.1543
1.08322
1.00052
1.47508
1.44704
1.40962
1.36855
1.32085
1.26735
1.21009
1.15335
1.08231
1.0012
1.47494
1.44659
1.40913
1.36767
1.31977
1.26623
1.20904
1.15168
1.0808
1.00235
1.47474
1.4459
1.40851
1.36636
1.31821
1.26462
1.20754
1.14926
1.07898
1.00423
1.47449
1.44511
1.4076
1.36474
1.3162
1.26251
1.20553
1.146
1.07675
1.00704
1.47419
1.44417
1.40636
1.36273
1.3137
1.25989
1.20293
1.14187
1.07462
1.01094
1.47383
1.44305
1.40474
1.3603
1.31068
1.2567
1.19968
1.13682
1.0726
1.01601
1.4734
1.44173
1.4027
1.35737
1.30709
1.25291
1.19564
1.13094
1.07128
1.02316
1.47288
1.44015
1.40018
1.35388
1.30284
1.24843
1.19074
1.12422
1.06983
1.03301
1.47224
1.43825
1.39713
1.34975
1.29789
1.2432
1.18477
1.11722
1.06763
1.04738
1.47145
1.43595
1.39347
1.34485
1.29214
1.23716
1.17764
1.1099
1.06448
1.065
1.47045
1.43318
1.38906
1.33913
1.2855
1.23013
1.16931
1.10317
1.06319
1.08341
1.46918
1.42983
1.38385
1.33238
1.27792
1.22204
1.15966
1.09794
1.06398
1.10342
1.46759
1.4258
1.37767
1.32462
1.26919
1.21275
1.14893
1.09504
1.06849
1.12282
1.46561
1.42099
1.3704
1.31561
1.25943
1.20195
1.1377
1.09328
1.07873
1.14023
1.46318
1.41527
1.36194
1.3053
1.24829
1.1898
1.12709
1.08961
1.09777
1.15506
1.4602
1.40853
1.3521
1.29358
1.23582
1.17579
1.11881
1.08786
1.12231
1.16729
1.45656
1.40057
1.34078
1.2803
1.22185
1.16046
1.11259
1.09165
1.1522
1.17662
1.45221
1.39119
1.32761
1.26537
1.20611
1.14446
1.10765
1.10226
1.18061
1.184
1.4468
1.38002
1.31245
1.24857
1.18871
1.12947
1.10325
1.12047
1.2024
1.19125
1.44655
1.37978
1.3123
1.24853
1.18911
1.12996
1.10334
1.11798
1.20179
1.19129
1.45198
1.39092
1.32741
1.26534
1.20652
1.14524
1.10807
1.09982
1.17888
1.18401
1.45638
1.40029
1.3405
1.28017
1.22218
1.16142
1.11265
1.09078
1.1498
1.17621
1.46006
1.40828
1.35178
1.29336
1.23596
1.17656
1.11886
1.08768
1.12043
1.16661
1.46309
1.41506
1.36163
1.30504
1.24827
1.19026
1.12748
1.08965
1.09675
1.15408
1.46556
1.42082
1.37013
1.31533
1.25928
1.20217
1.13799
1.0934
1.0784
1.1393
1.46758
1.42569
1.37745
1.32435
1.26898
1.21275
1.1491
1.09518
1.06853
1.12211
1.4692
1.42977
1.3837
1.33214
1.27768
1.22192
1.15965
1.09804
1.06409
1.10321
1.47049
1.43316
1.38896
1.33894
1.28528
1.22996
1.16918
1.10317
1.06317
1.08359
1.4715
1.43596
1.39342
1.34472
1.29196
1.23697
1.17745
1.10981
1.06436
1.06546
1.4723
1.43828
1.39711
1.34967
1.29776
1.24304
1.18458
1.11701
1.06755
1.04791
1.47294
1.4402
1.40019
1.35384
1.30275
1.24831
1.19057
1.12402
1.0698
1.03339
1.47345
1.44178
1.40272
1.35737
1.30705
1.25284
1.19552
1.13074
1.07122
1.02343
1.47386
1.44309
1.40477
1.36032
1.31068
1.25668
1.19962
1.13667
1.07253
1.01618
1.47421
1.4442
1.40639
1.36277
1.31374
1.25991
1.20292
1.14179
1.07455
1.01106
1.4745
1.44513
1.40763
1.36478
1.31625
1.26257
1.20557
1.14599
1.07672
1.00713
1.47473
1.4459
1.40854
1.3664
1.31828
1.2647
1.20763
1.14931
1.079
1.0043
1.47492
1.44659
1.40915
1.36772
1.31985
1.26633
1.20915
1.15178
1.08087
1.00241
1.47505
1.44703
1.40963
1.36859
1.32094
1.26746
1.21022
1.15349
1.08242
1.00125
1.47517
1.44722
1.41001
1.36918
1.32161
1.26815
1.21083
1.15446
1.08336
1.00057
1.55856
1.55376
1.54999
1.54499
1.53941
1.53231
1.52408
1.51362
1.50094
1.48564
1.55467
1.55001
1.54641
1.54168
1.53639
1.52975
1.52202
1.51251
1.50103
1.48741
1.55081
1.54645
1.54302
1.53854
1.53356
1.52742
1.52022
1.51152
1.50109
1.48872
1.54702
1.54317
1.53998
1.5358
1.53112
1.52541
1.51862
1.5105
1.50087
1.48956
1.54338
1.5401
1.53715
1.53317
1.52863
1.52322
1.5169
1.5095
1.50065
1.49026
1.53978
1.53672
1.53391
1.53032
1.52623
1.52131
1.51544
1.50857
1.50036
1.49074
1.53666
1.53378
1.5313
1.52801
1.52417
1.51956
1.51407
1.50767
1.50002
1.49107
1.53483
1.53179
1.52935
1.52617
1.52245
1.51805
1.51287
1.50682
1.49965
1.49126
1.53272
1.52992
1.52775
1.52473
1.5211
1.51684
1.51186
1.50607
1.49928
1.49132
1.52991
1.52731
1.5258
1.52332
1.52002
1.51593
1.51106
1.50544
1.49891
1.49131
1.52707
1.52426
1.52323
1.52141
1.51873
1.51505
1.51041
1.50494
1.4986
1.49127
1.52462
1.52145
1.52047
1.51897
1.5169
1.51386
1.50971
1.50451
1.49836
1.49124
1.52268
1.5192
1.51799
1.51645
1.51467
1.51222
1.50872
1.50401
1.49816
1.49123
1.52118
1.51749
1.51601
1.51424
1.51244
1.51028
1.50736
1.50328
1.49789
1.49123
1.52003
1.5162
1.51452
1.51251
1.51051
1.50835
1.50576
1.50225
1.49744
1.49118
1.51915
1.51522
1.51342
1.51123
1.50902
1.50671
1.50418
1.50103
1.49678
1.49103
1.51851
1.51449
1.51262
1.51032
1.50797
1.50547
1.50286
1.49985
1.49601
1.49075
1.51811
1.51403
1.51211
1.50975
1.50731
1.50467
1.50195
1.49896
1.49534
1.49048
1.51788
1.51377
1.51183
1.50944
1.50696
1.50427
1.50148
1.49847
1.49496
1.49032
1.51778
1.51368
1.51176
1.50937
1.50688
1.50418
1.50137
1.49836
1.49489
1.49031
1.00096
1.00303
1.00535
1.00799
1.01098
1.01435
1.01871
1.02205
1.31595
1.55984
1.00096
1.00303
1.00535
1.00799
1.01098
1.01435
1.01871
1.02206
1.30584
1.55559
1.00096
1.00303
1.00535
1.00798
1.01098
1.01435
1.01871
1.02206
1.29593
1.55141
1.00096
1.00303
1.00535
1.00798
1.01098
1.01434
1.0187
1.02206
1.28645
1.54742
1.00096
1.00303
1.00535
1.00798
1.01099
1.01434
1.0187
1.02206
1.27758
1.54389
1.00096
1.00303
1.00535
1.00798
1.01099
1.01434
1.0187
1.02206
1.26935
1.54083
1.00096
1.00303
1.00535
1.00798
1.01099
1.01434
1.0187
1.02207
1.26164
1.53798
1.00096
1.00303
1.00535
1.00798
1.01099
1.01434
1.0187
1.02207
1.2544
1.53527
1.00096
1.00303
1.00535
1.00798
1.01099
1.01434
1.0187
1.02207
1.24739
1.5329
1.00096
1.00303
1.00536
1.00798
1.01099
1.01434
1.0187
1.02207
1.24045
1.53103
1.00097
1.00303
1.00536
1.00798
1.01099
1.01434
1.0187
1.02208
1.23376
1.5296
1.00097
1.00303
1.00536
1.00798
1.01099
1.01434
1.0187
1.02208
1.22748
1.52851
1.00097
1.00303
1.00536
1.00797
1.01099
1.01434
1.01871
1.02208
1.22175
1.52769
1.00097
1.00303
1.00536
1.00797
1.011
1.01434
1.01871
1.02209
1.21662
1.52707
1.00097
1.00303
1.00536
1.00797
1.011
1.01433
1.01872
1.02209
1.21216
1.5266
1.00097
1.00303
1.00536
1.00797
1.011
1.01433
1.01873
1.02209
1.20839
1.52624
1.00097
1.00303
1.00536
1.00797
1.011
1.01433
1.01874
1.02209
1.20533
1.526
1.00097
1.00303
1.00536
1.00797
1.011
1.01433
1.01875
1.0221
1.20299
1.52589
1.00097
1.00303
1.00536
1.00797
1.011
1.01433
1.01875
1.0221
1.20154
1.52584
1.00097
1.00303
1.00536
1.00797
1.01101
1.01432
1.01876
1.0221
1.20096
1.52583
1.00097
1.00303
1.00536
1.00797
1.01101
1.01432
1.01876
1.0221
1.20096
1.52582
1.00097
1.00303
1.00536
1.00797
1.011
1.01433
1.01875
1.0221
1.20154
1.52584
1.00097
1.00303
1.00536
1.00797
1.011
1.01433
1.01875
1.0221
1.20299
1.52588
1.00097
1.00303
1.00536
1.00797
1.011
1.01433
1.01874
1.02209
1.20533
1.526
1.00097
1.00303
1.00536
1.00797
1.011
1.01433
1.01873
1.02209
1.20839
1.52624
1.00097
1.00303
1.00536
1.00797
1.011
1.01433
1.01872
1.02209
1.21215
1.5266
1.00097
1.00303
1.00536
1.00797
1.011
1.01434
1.01871
1.02209
1.21661
1.52707
1.00097
1.00303
1.00536
1.00797
1.01099
1.01434
1.01871
1.02208
1.22174
1.5277
1.00097
1.00303
1.00536
1.00798
1.01099
1.01434
1.0187
1.02208
1.22748
1.52852
1.00097
1.00303
1.00536
1.00798
1.01099
1.01434
1.0187
1.02208
1.23375
1.52961
1.00096
1.00303
1.00536
1.00798
1.01099
1.01434
1.0187
1.02207
1.24045
1.53105
1.00096
1.00303
1.00535
1.00798
1.01099
1.01434
1.0187
1.02207
1.24739
1.53291
1.00096
1.00303
1.00535
1.00798
1.01099
1.01434
1.0187
1.02207
1.25441
1.53528
1.00096
1.00303
1.00535
1.00798
1.01099
1.01434
1.0187
1.02207
1.26165
1.538
1.00096
1.00303
1.00535
1.00798
1.01099
1.01434
1.0187
1.02206
1.26936
1.54085
1.00096
1.00303
1.00535
1.00798
1.01099
1.01434
1.0187
1.02206
1.27761
1.54391
1.00096
1.00303
1.00535
1.00798
1.01098
1.01434
1.0187
1.02206
1.28647
1.54742
1.00096
1.00303
1.00535
1.00798
1.01098
1.01435
1.01871
1.02206
1.29596
1.5514
1.00096
1.00303
1.00535
1.00799
1.01098
1.01435
1.01871
1.02206
1.30586
1.55558
1.00096
1.00303
1.00535
1.00799
1.01098
1.01435
1.01871
1.02205
1.31597
1.55983
1.51778
1.51368
1.51176
1.50937
1.50689
1.50418
1.50139
1.49838
1.49492
1.49035
1.51787
1.51376
1.51183
1.50944
1.50696
1.50428
1.5015
1.49849
1.49499
1.49035
1.51811
1.51403
1.51211
1.50975
1.50731
1.50469
1.50197
1.49898
1.49537
1.49051
1.51851
1.51449
1.51262
1.51033
1.50798
1.50548
1.50288
1.49987
1.49603
1.49077
1.51915
1.51522
1.51342
1.51123
1.50903
1.50672
1.5042
1.50105
1.4968
1.49104
1.52003
1.5162
1.51453
1.51251
1.51052
1.50836
1.50577
1.50226
1.49745
1.49117
1.52118
1.5175
1.51602
1.51425
1.51245
1.51028
1.50737
1.50328
1.49788
1.49121
1.52268
1.51921
1.51799
1.51645
1.51468
1.51222
1.50872
1.50401
1.49814
1.4912
1.52462
1.52146
1.52047
1.51898
1.5169
1.51386
1.5097
1.5045
1.49833
1.4912
1.52707
1.52426
1.52323
1.52141
1.51873
1.51504
1.5104
1.50491
1.49856
1.49122
1.52991
1.52731
1.5258
1.52332
1.52002
1.51592
1.51104
1.50541
1.49886
1.49125
1.53273
1.52993
1.52776
1.52473
1.52109
1.51682
1.51182
1.50603
1.49922
1.49126
1.53485
1.5318
1.52934
1.52615
1.52242
1.51801
1.51282
1.50677
1.4996
1.4912
1.53665
1.53375
1.53127
1.52797
1.52413
1.5195
1.51402
1.5076
1.49996
1.49103
1.5397
1.53663
1.53384
1.53026
1.52617
1.52124
1.51538
1.50851
1.50031
1.49072
1.54332
1.54004
1.53708
1.53309
1.52855
1.52315
1.51685
1.50945
1.50062
1.49026
1.54696
1.54313
1.53994
1.53576
1.53108
1.52536
1.51857
1.51047
1.50087
1.4896
1.55077
1.54641
1.54298
1.5385
1.53352
1.52739
1.5202
1.51153
1.50112
1.4888
1.55464
1.54998
1.54638
1.54164
1.53636
1.52973
1.52202
1.51254
1.5011
1.48753
1.55854
1.55374
1.54997
1.54497
1.5394
1.53232
1.52411
1.51369
1.50105
1.48581
)
;

boundaryField
{
    inlet
    {
        type            fixedValue;
        value           uniform 1;
    }
    outlet
    {
        type            inletOutlet;
        inletValue      uniform 1;
        value           nonuniform List<scalar> 
100
(
1.19113
1.18385
1.17605
1.16644
1.15391
1.13913
1.12194
1.10304
1.08342
1.06529
1.04774
1.03324
1.02328
1.01604
1.01093
1.007
1.00418
1.00228
1.00113
1.00045
1.22368
1.22246
1.22165
1.22119
1.22119
1.22121
1.22016
1.21838
1.21645
1.21455
1.21248
1.21015
1.20783
1.20556
1.20355
1.2022
1.20016
1.19868
1.19694
1.19521
1.22159
1.2269
1.2372
1.25188
1.27608
1.31878
1.36471
1.40545
1.42872
1.43622
1.43891
1.42683
1.40052
1.36102
1.31178
1.27413
1.25
1.23378
1.22695
1.2251
1.195
1.19667
1.19817
1.19945
1.20114
1.20313
1.20557
1.20749
1.20967
1.21207
1.21457
1.21701
1.21842
1.21862
1.21889
1.21975
1.22116
1.22171
1.22117
1.22023
1.0004
1.00108
1.00223
1.00411
1.00692
1.01081
1.01587
1.02302
1.03285
1.04722
1.06482
1.08323
1.10324
1.12264
1.14006
1.15489
1.16713
1.17647
1.18386
1.1911
)
;
    }
    triangle
    {
        type            zeroGradient;
    }
    top
    {
        type            symmetryPlane;
    }
    bottom
    {
        type            symmetryPlane;
    }
    defaultFaces
    {
        type            empty;
    }
}


// ************************************************************************* //
