/*--------------------------------*- C++ -*----------------------------------*\
  =========                 |
  \\      /  F ield         | OpenFOAM: The Open Source CFD Toolbox
   \\    /   O peration     | Website:  https://openfoam.org
    \\  /    A nd           | Version:  8
     \\/     M anipulation  |
\*---------------------------------------------------------------------------*/
FoamFile
{
    version     2.0;
    format      ascii;
    class       volVectorField;
    location    "3";
    object      U;
}
// * * * * * * * * * * * * * * * * * * * * * * * * * * * * * * * * * * * * * //

dimensions      [0 1 -1 0 0 0 0];

internalField   nonuniform List<vector> 
2600
(
(0.756963 0.0726422 0)
(1.32149 0.182335 0)
(1.58396 0.2889 0)
(1.66406 0.301724 0)
(1.65691 0.295677 0)
(1.5046 0.185662 0)
(1.36621 0.0917282 0)
(1.38136 0.040739 0)
(1.41563 0.0280016 0)
(1.46016 0.0107544 0)
(0.261196 -0.117588 0)
(0.930225 0.133102 0)
(1.41494 0.263989 0)
(1.61108 0.278059 0)
(1.64702 0.271006 0)
(1.50686 0.172837 0)
(1.36595 0.0910778 0)
(1.37956 0.0341303 0)
(1.41426 0.0249628 0)
(1.45849 0.00622904 0)
(0.0339936 -0.111128 0)
(0.513217 0.0619783 0)
(1.12573 0.214524 0)
(1.49017 0.254069 0)
(1.60948 0.253227 0)
(1.5047 0.160274 0)
(1.36673 0.0955335 0)
(1.3741 0.0347609 0)
(1.4111 0.0220993 0)
(1.45468 -0.000280355 0)
(-0.0564117 -0.141758 0)
(0.201924 0.0131385 0)
(0.761187 0.137471 0)
(1.26124 0.205783 0)
(1.52267 0.225481 0)
(1.49273 0.159967 0)
(1.3567 0.0909382 0)
(1.35407 0.0418255 0)
(1.39665 0.0291506 0)
(1.44081 0.00417005 0)
(-0.11328 -0.136056 0)
(-0.00569811 -0.024796 0)
(0.384824 0.085386 0)
(0.920686 0.131745 0)
(1.34982 0.17556 0)
(1.45226 0.151573 0)
(1.32334 0.0680151 0)
(1.29443 0.0291955 0)
(1.34823 0.0236005 0)
(1.4042 0.0153998 0)
(-0.157304 -0.133513 0)
(-0.159633 -0.0363093 0)
(0.04206 0.0312526 0)
(0.496591 0.0786598 0)
(1.05747 0.110561 0)
(1.347 0.151262 0)
(1.22972 0.0888355 0)
(1.17081 0.0217372 0)
(1.24512 0.0119643 0)
(1.33261 0.0100422 0)
(-0.192035 -0.111165 0)
(-0.287329 -0.0357935 0)
(-0.247173 0.0151325 0)
(0.062156 0.00524636 0)
(0.652147 0.0403343 0)
(1.12855 0.109207 0)
(1.04367 0.0835573 0)
(0.984254 0.0475229 0)
(1.09293 0.0308832 0)
(1.22997 0.00552566 0)
(-0.216569 -0.0771726 0)
(-0.392993 -0.0185856 0)
(-0.446872 0.0144235 0)
(-0.277962 -0.0109818 0)
(0.227498 0.0292238 0)
(0.778592 0.126875 0)
(0.785793 0.0991371 0)
(0.790067 0.0123312 0)
(0.945821 0.00434665 0)
(1.1234 0.0119005 0)
(-0.23772 -0.0395143 0)
(-0.462167 3.76216e-05 0)
(-0.547653 0.0339214 0)
(-0.459372 -0.016342 0)
(-0.071445 -0.0286422 0)
(0.410517 0.0601501 0)
(0.546516 0.065866 0)
(0.668278 0.0322043 0)
(0.860955 0.00209397 0)
(1.05071 0.00145921 0)
(-0.250251 7.82884e-05 0)
(-0.487188 0.0220075 0)
(-0.578657 0.0252596 0)
(-0.510109 -0.0483245 0)
(-0.197604 -0.0733853 0)
(0.172671 0.0677835 0)
(0.418232 0.076687 0)
(0.63561 0.00592571 0)
(0.842046 -0.0265762 0)
(1.02465 -0.00660093 0)
(-0.245378 0.0374311 0)
(-0.480456 0.0441757 0)
(-0.575883 0.0176132 0)
(-0.489997 -0.0851038 0)
(-0.19669 -0.139788 0)
(0.109113 0.0218287 0)
(0.394805 0.0468071 0)
(0.655143 -0.0174762 0)
(0.856349 -0.048582 0)
(1.02327 -0.0134208 0)
(-0.22933 0.0697737 0)
(-0.442332 0.0593999 0)
(-0.520146 0.0294722 0)
(-0.355691 -0.0736244 0)
(-0.0689639 -0.168892 0)
(0.138064 -0.0238716 0)
(0.4416 0.0115988 0)
(0.762314 -0.0126797 0)
(0.925897 -0.0286274 0)
(1.04352 -0.00685397 0)
(-0.215936 0.104779 0)
(-0.362119 0.0749511 0)
(-0.36348 0.0302109 0)
(-0.0447209 -0.0810783 0)
(0.246768 -0.143692 0)
(0.309617 -0.0222399 0)
(0.620721 0.0142265 0)
(0.953886 -0.062988 0)
(1.05798 -0.0475101 0)
(1.10611 -0.00456418 0)
(-0.187891 0.13427 0)
(-0.252798 0.0806769 0)
(-0.110028 0.0288894 0)
(0.390988 -0.112842 0)
(0.682502 -0.163856 0)
(0.637693 -0.0481097 0)
(0.90593 -0.0516093 0)
(1.16299 -0.0544605 0)
(1.20086 -0.0265898 0)
(1.20561 -0.0110076 0)
(-0.151066 0.154525 0)
(-0.126995 0.0793247 0)
(0.195839 -0.0411418 0)
(0.823005 -0.194529 0)
(1.07049 -0.154044 0)
(1.00353 -0.032302 0)
(1.18784 -0.0534081 0)
(1.30602 -0.0611084 0)
(1.30899 -0.0473586 0)
(1.30583 -0.00972016 0)
(-0.107297 0.157321 0)
(0.0218401 0.0562605 0)
(0.528478 -0.100099 0)
(1.17795 -0.24926 0)
(1.31945 -0.208914 0)
(1.27205 -0.0721046 0)
(1.36415 -0.0754017 0)
(1.37203 -0.070247 0)
(1.37296 -0.0545048 0)
(1.3775 -0.00392261 0)
(-0.052675 0.159399 0)
(0.215848 0.0108915 0)
(0.872626 -0.186435 0)
(1.42617 -0.31989 0)
(1.45657 -0.222326 0)
(1.41545 -0.063009 0)
(1.43689 -0.0874907 0)
(1.39394 -0.0692374 0)
(1.39588 -0.0358278 0)
(1.41785 0.00209619 0)
(0.0296694 0.127272 0)
(0.509673 -0.0423299 0)
(1.21019 -0.248885 0)
(1.58469 -0.349144 0)
(1.52497 -0.232461 0)
(1.47526 -0.0822575 0)
(1.45492 -0.0817297 0)
(1.39702 -0.0587103 0)
(1.40091 -0.0276378 0)
(1.43571 -0.00444628 0)
(0.239851 0.12408 0)
(0.922277 -0.11411 0)
(1.4733 -0.309984 0)
(1.6636 -0.388383 0)
(1.5554 -0.252834 0)
(1.49596 -0.104631 0)
(1.45472 -0.0817256 0)
(1.39704 -0.0598676 0)
(1.40274 -0.0326753 0)
(1.44279 -0.00316695 0)
(0.709083 -0.0533312 0)
(1.33432 -0.167765 0)
(1.62531 -0.337435 0)
(1.69765 -0.405951 0)
(1.56896 -0.274361 0)
(1.49687 -0.127028 0)
(1.45177 -0.086894 0)
(1.39625 -0.0630857 0)
(1.40449 -0.0391861 0)
(1.44657 0.000352479 0)
(1.28704 0.00629868 0)
(1.59887 -0.202516 0)
(1.68905 -0.356404 0)
(1.70523 -0.426626 0)
(1.58418 -0.294573 0)
(1.49387 -0.143718 0)
(1.44662 -0.0916392 0)
(1.39647 -0.0677806 0)
(1.4089 -0.0416771 0)
(1.45016 0.00139146 0)
(1.43163 0.119424 0)
(1.69074 -0.188451 0)
(1.7142 -0.345674 0)
(1.71047 -0.428841 0)
(1.60433 -0.318489 0)
(1.50082 -0.158852 0)
(1.44548 -0.0979002 0)
(1.39953 -0.0697514 0)
(1.41593 -0.0367488 0)
(1.45509 0.0011129 0)
(1.44339 0.155294 0)
(1.68501 -0.17035 0)
(1.71941 -0.348652 0)
(1.69818 -0.432078 0)
(1.61994 -0.346532 0)
(1.51318 -0.176515 0)
(1.45192 -0.102323 0)
(1.40651 -0.0688029 0)
(1.42328 -0.0318774 0)
(1.46073 0.000328904 0)
(1.40815 0.184857 0)
(1.64739 -0.126887 0)
(1.71463 -0.32569 0)
(1.68451 -0.424097 0)
(1.63861 -0.375337 0)
(1.53295 -0.211847 0)
(1.46355 -0.107178 0)
(1.41574 -0.0667373 0)
(1.43092 -0.0315419 0)
(1.46554 0.000528186 0)
(1.37217 0.195619 0)
(1.61116 -0.103257 0)
(1.69801 -0.307432 0)
(1.68057 -0.418 0)
(1.65126 -0.394995 0)
(1.55106 -0.245015 0)
(1.48024 -0.118739 0)
(1.42424 -0.0681999 0)
(1.43801 -0.0340241 0)
(1.46964 0.0021462 0)
(1.34005 0.200317 0)
(1.57521 -0.0726395 0)
(1.67275 -0.275416 0)
(1.67863 -0.401464 0)
(1.65818 -0.404058 0)
(1.57731 -0.277704 0)
(1.50536 -0.130979 0)
(1.43028 -0.0714271 0)
(1.44157 -0.0352907 0)
(1.47254 0.00428509 0)
(1.31478 0.200954 0)
(1.54654 -0.0515526 0)
(1.65671 -0.263876 0)
(1.67297 -0.387865 0)
(1.66147 -0.410039 0)
(1.59855 -0.302219 0)
(1.52724 -0.146595 0)
(1.43178 -0.0742564 0)
(1.44321 -0.0330185 0)
(1.47438 0.00542068 0)
(1.29404 0.199178 0)
(1.51784 -0.0235164 0)
(1.63847 -0.237104 0)
(1.66657 -0.379884 0)
(1.66425 -0.410534 0)
(1.62042 -0.33161 0)
(1.54567 -0.164839 0)
(1.42916 -0.0756941 0)
(1.44365 -0.0302198 0)
(1.47406 0.00546296 0)
(1.276 0.196678 0)
(1.4922 -0.0020826 0)
(1.6206 -0.208616 0)
(1.66213 -0.373832 0)
(1.66438 -0.414899 0)
(1.63544 -0.358871 0)
(1.55861 -0.184389 0)
(1.42613 -0.0778521 0)
(1.4437 -0.0311398 0)
(1.47259 0.00587676 0)
(1.25939 0.194541 0)
(1.46912 0.0133722 0)
(1.59495 -0.175024 0)
(1.65599 -0.351545 0)
(1.66434 -0.416579 0)
(1.64546 -0.38169 0)
(1.5693 -0.207959 0)
(1.42824 -0.0800667 0)
(1.44424 -0.0325964 0)
(1.47185 0.00722178 0)
(1.24405 0.19186 0)
(1.44602 0.0278746 0)
(1.57614 -0.157493 0)
(1.64515 -0.321903 0)
(1.66268 -0.413974 0)
(1.65135 -0.395809 0)
(1.58076 -0.234841 0)
(1.43829 -0.0864834 0)
(1.44548 -0.033367 0)
(1.47308 0.00899252 0)
(1.23015 0.188292 0)
(1.42532 0.0381819 0)
(1.55538 -0.13776 0)
(1.62874 -0.294454 0)
(1.66099 -0.403075 0)
(1.65256 -0.402306 0)
(1.59495 -0.264151 0)
(1.45275 -0.0945615 0)
(1.44811 -0.0334663 0)
(1.47656 0.0106624 0)
(1.21752 0.183784 0)
(1.40339 0.0488631 0)
(1.53663 -0.119931 0)
(1.61606 -0.280699 0)
(1.65429 -0.388288 0)
(1.65288 -0.403244 0)
(1.60957 -0.29162 0)
(1.47108 -0.105357 0)
(1.45308 -0.0343073 0)
(1.48202 0.0119429 0)
(1.20588 0.179182 0)
(1.38508 0.054273 0)
(1.51612 -0.099617 0)
(1.60229 -0.259521 0)
(1.64762 -0.378113 0)
(1.65192 -0.403597 0)
(1.62291 -0.316948 0)
(1.48844 -0.116782 0)
(1.46026 -0.0359726 0)
(1.48839 0.0132984 0)
(1.19522 0.174559 0)
(1.36678 0.0608313 0)
(1.49761 -0.0848557 0)
(1.58756 -0.235893 0)
(1.63929 -0.367997 0)
(1.65203 -0.403428 0)
(1.63303 -0.338605 0)
(1.51191 -0.135001 0)
(1.46897 -0.0377546 0)
(1.49366 0.0151501 0)
(1.18531 0.169974 0)
(1.35038 0.0653419 0)
(1.47986 -0.0720016 0)
(1.56994 -0.212861 0)
(1.63049 -0.348024 0)
(1.65168 -0.40397 0)
(1.64127 -0.355902 0)
(1.53229 -0.155193 0)
(1.47728 -0.0407559 0)
(1.49971 0.017114 0)
(1.17594 0.165247 0)
(1.3342 0.0699042 0)
(1.46286 -0.0600093 0)
(1.5555 -0.198194 0)
(1.61802 -0.32365 0)
(1.65055 -0.401087 0)
(1.64772 -0.367033 0)
(1.55516 -0.180129 0)
(1.48495 -0.0445138 0)
(1.50414 0.0197137 0)
(1.16729 0.160577 0)
(1.31952 0.0724647 0)
(1.44623 -0.0491844 0)
(1.54043 -0.182015 0)
(1.60589 -0.304585 0)
(1.64796 -0.391801 0)
(1.65249 -0.373989 0)
(1.57459 -0.204129 0)
(1.49117 -0.0481469 0)
(1.50602 0.0210528 0)
(1.15919 0.155826 0)
(1.30555 0.0744523 0)
(1.43007 -0.0399779 0)
(1.52592 -0.166982 0)
(1.59472 -0.287821 0)
(1.646 -0.384189 0)
(1.65418 -0.375003 0)
(1.59178 -0.22875 0)
(1.49823 -0.054675 0)
(1.50859 0.0216624 0)
(1.15172 0.151141 0)
(1.29263 0.0756116 0)
(1.41522 -0.0324788 0)
(1.51088 -0.151915 0)
(1.58311 -0.269215 0)
(1.64135 -0.371578 0)
(1.65416 -0.376117 0)
(1.60675 -0.252243 0)
(1.50829 -0.061415 0)
(1.51425 0.0228524 0)
(0.362387 0.0861205 0)
(0.452208 0.134157 0)
(0.503677 0.205747 0)
(0.55855 0.25799 0)
(0.603402 0.300555 0)
(0.647501 0.332861 0)
(0.694605 0.362776 0)
(0.753714 0.391931 0)
(0.83468 0.432044 0)
(0.980534 0.471865 0)
(0.397214 0.122799 0)
(0.464576 0.153551 0)
(0.49745 0.211131 0)
(0.547241 0.257855 0)
(0.591985 0.298974 0)
(0.639903 0.330532 0)
(0.691076 0.360971 0)
(0.75354 0.391173 0)
(0.836993 0.431097 0)
(0.978286 0.459859 0)
(0.454597 0.105032 0)
(0.50374 0.132194 0)
(0.52071 0.181358 0)
(0.560923 0.2246 0)
(0.600515 0.268007 0)
(0.64985 0.303139 0)
(0.70345 0.337977 0)
(0.768597 0.369537 0)
(0.856044 0.409614 0)
(1.00303 0.424073 0)
(0.511581 0.118758 0)
(0.545836 0.14532 0)
(0.557438 0.184799 0)
(0.592817 0.214831 0)
(0.62354 0.249822 0)
(0.665374 0.280664 0)
(0.712492 0.314531 0)
(0.775037 0.344835 0)
(0.863248 0.382049 0)
(1.00981 0.388243 0)
(0.564435 0.118156 0)
(0.589672 0.138877 0)
(0.597503 0.174036 0)
(0.628324 0.204763 0)
(0.65303 0.240146 0)
(0.692055 0.269147 0)
(0.736344 0.301012 0)
(0.798003 0.327527 0)
(0.885374 0.360714 0)
(1.02634 0.360261 0)
(0.616864 0.129193 0)
(0.635754 0.149934 0)
(0.641036 0.181159 0)
(0.667315 0.205781 0)
(0.687164 0.235572 0)
(0.722696 0.260144 0)
(0.763049 0.289178 0)
(0.821344 0.311312 0)
(0.903787 0.339501 0)
(1.03679 0.3371 0)
(0.665731 0.138897 0)
(0.679631 0.157311 0)
(0.682902 0.18418 0)
(0.7054 0.206822 0)
(0.722518 0.235024 0)
(0.756061 0.256907 0)
(0.793857 0.283381 0)
(0.849758 0.301391 0)
(0.927273 0.323358 0)
(1.0512 0.318781 0)
(0.709853 0.151875 0)
(0.718399 0.166766 0)
(0.720284 0.188416 0)
(0.739159 0.206875 0)
(0.754355 0.231148 0)
(0.785816 0.250103 0)
(0.82159 0.274528 0)
(0.875517 0.290277 0)
(0.948244 0.307668 0)
(1.05944 0.30129 0)
(0.74475 0.162483 0)
(0.749709 0.174238 0)
(0.751786 0.191625 0)
(0.768014 0.207278 0)
(0.782486 0.2287 0)
(0.812084 0.244461 0)
(0.845776 0.26554 0)
(0.89678 0.278205 0)
(0.964293 0.29253 0)
(1.06418 0.28636 0)
(0.768577 0.171132 0)
(0.773301 0.180167 0)
(0.777065 0.193765 0)
(0.791925 0.206278 0)
(0.806377 0.224494 0)
(0.834354 0.237793 0)
(0.866384 0.256423 0)
(0.914469 0.266874 0)
(0.976105 0.277044 0)
(1.06661 0.271869 0)
(0.785935 0.174864 0)
(0.792669 0.181826 0)
(0.798006 0.193163 0)
(0.812404 0.203948 0)
(0.827158 0.219925 0)
(0.853682 0.231212 0)
(0.884137 0.24738 0)
(0.929504 0.256397 0)
(0.98625 0.263863 0)
(1.06725 0.258437 0)
(0.801282 0.175784 0)
(0.810209 0.18129 0)
(0.816398 0.191161 0)
(0.830505 0.200478 0)
(0.845346 0.214423 0)
(0.870495 0.224113 0)
(0.899493 0.23828 0)
(0.941973 0.245994 0)
(0.994981 0.25216 0)
(1.06825 0.246596 0)
(0.815844 0.174952 0)
(0.826365 0.179562 0)
(0.832964 0.188386 0)
(0.846767 0.196475 0)
(0.861467 0.208675 0)
(0.885247 0.217005 0)
(0.912781 0.229287 0)
(0.952555 0.236042 0)
(1.00164 0.240601 0)
(1.06821 0.235511 0)
(0.829058 0.173147 0)
(0.840566 0.177072 0)
(0.847493 0.185039 0)
(0.861003 0.192025 0)
(0.875439 0.202666 0)
(0.897907 0.209862 0)
(0.924032 0.220476 0)
(0.961185 0.226367 0)
(1.0066 0.229881 0)
(1.06724 0.225251 0)
(0.840607 0.17023 0)
(0.852583 0.173646 0)
(0.859786 0.180924 0)
(0.873007 0.187017 0)
(0.887145 0.19636 0)
(0.908395 0.202648 0)
(0.933184 0.211807 0)
(0.967871 0.21699 0)
(1.01001 0.219769 0)
(1.06563 0.21575 0)
(0.850739 0.166785 0)
(0.86278 0.169742 0)
(0.870151 0.176363 0)
(0.883032 0.18168 0)
(0.896844 0.189901 0)
(0.916979 0.195464 0)
(0.940532 0.203366 0)
(0.972969 0.207986 0)
(1.01226 0.210186 0)
(1.06359 0.206745 0)
(0.859638 0.162923 0)
(0.871491 0.165456 0)
(0.878907 0.171439 0)
(0.891371 0.176082 0)
(0.904806 0.183317 0)
(0.92391 0.188296 0)
(0.946317 0.195124 0)
(0.976713 0.199309 0)
(1.01341 0.20104 0)
(1.06076 0.198125 0)
(0.867695 0.158903 0)
(0.879275 0.161056 0)
(0.88668 0.166455 0)
(0.898697 0.170507 0)
(0.911732 0.176839 0)
(0.929866 0.181286 0)
(0.951232 0.187157 0)
(0.979845 0.190965 0)
(1.01449 0.192444 0)
(1.05864 0.190052 0)
(0.875089 0.15467 0)
(0.88639 0.156484 0)
(0.893765 0.161367 0)
(0.90537 0.164942 0)
(0.918074 0.170507 0)
(0.935382 0.174531 0)
(0.955773 0.179561 0)
(0.982621 0.182983 0)
(1.01499 0.184154 0)
(1.05593 0.182242 0)
(0.882125 0.150241 0)
(0.893152 0.151724 0)
(0.900447 0.156108 0)
(0.911616 0.159249 0)
(0.923932 0.164095 0)
(0.94043 0.167742 0)
(0.960004 0.172122 0)
(0.985489 0.175305 0)
(1.01625 0.176517 0)
(1.05465 0.1751 0)
(2.04508 -1.60927e-07 0)
(2.03467 3.55269e-07 0)
(2.02317 -2.45232e-07 0)
(2.01045 -1.12082e-06 0)
(1.99626 5.05399e-06 0)
(1.98065 -1.05899e-05 0)
(1.96123 1.64669e-05 0)
(1.94832 -2.07173e-05 0)
(1.03574 0.00913458 0)
(0.411914 0.0191276 0)
(2.04508 -4.34383e-07 0)
(2.03467 9.2364e-07 0)
(2.02317 -3.37823e-07 0)
(2.01045 -3.52765e-06 0)
(1.99626 1.50873e-05 0)
(1.98065 -2.94177e-05 0)
(1.96124 4.9974e-05 0)
(1.94833 -7.85143e-05 0)
(1.04211 0.0273103 0)
(0.446599 0.0452151 0)
(2.04508 -7.05545e-07 0)
(2.03467 1.49227e-06 0)
(2.02317 -4.55999e-07 0)
(2.01045 -6.00746e-06 0)
(1.99626 2.48574e-05 0)
(1.98065 -4.83423e-05 0)
(1.96125 7.99833e-05 0)
(1.94836 -0.000125386 0)
(1.05334 0.0439167 0)
(0.494735 0.0671436 0)
(2.04508 -9.6114e-07 0)
(2.03467 2.01998e-06 0)
(2.02317 -5.06362e-07 0)
(2.01045 -8.54185e-06 0)
(1.99626 3.40504e-05 0)
(1.98066 -6.6334e-05 0)
(1.96126 0.000108134 0)
(1.94838 -0.000190806 0)
(1.06845 0.0583338 0)
(0.548734 0.0853189 0)
(2.04508 -1.19492e-06 0)
(2.03467 2.49489e-06 0)
(2.02317 -4.88902e-07 0)
(2.01045 -1.11382e-05 0)
(1.99626 4.25767e-05 0)
(1.98066 -8.33029e-05 0)
(1.96127 0.000132733 0)
(1.9484 -0.000249604 0)
(1.08535 0.0700978 0)
(0.601407 0.101686 0)
(2.04508 -1.40092e-06 0)
(2.03467 2.90064e-06 0)
(2.02317 -3.74559e-07 0)
(2.01045 -1.37662e-05 0)
(1.99627 5.02466e-05 0)
(1.98067 -9.90744e-05 0)
(1.96128 0.000155742 0)
(1.94837 -0.000358332 0)
(1.10203 0.0798633 0)
(0.647344 0.114382 0)
(2.04508 -1.57405e-06 0)
(2.03467 3.21986e-06 0)
(2.02318 -1.31834e-07 0)
(2.01045 -1.6394e-05 0)
(1.99627 5.68984e-05 0)
(1.98068 -0.000113459 0)
(1.96129 0.000175769 0)
(1.94829 -0.000457505 0)
(1.1171 0.0872544 0)
(0.686325 0.124503 0)
(2.04508 -1.71104e-06 0)
(2.03467 3.43923e-06 0)
(2.02318 2.56617e-07 0)
(2.01045 -1.90078e-05 0)
(1.99627 6.25479e-05 0)
(1.98068 -0.000126903 0)
(1.96129 0.000195648 0)
(1.94817 -0.000510176 0)
(1.13058 0.0945764 0)
(0.718706 0.131131 0)
(2.04508 -1.81075e-06 0)
(2.03467 3.55447e-06 0)
(2.02318 7.85217e-07 0)
(2.01045 -2.16051e-05 0)
(1.99627 6.72574e-05 0)
(1.98069 -0.000139112 0)
(1.9613 0.000216148 0)
(1.94808 -0.000579766 0)
(1.14527 0.101257 0)
(0.745831 0.134785 0)
(2.04508 -1.87291e-06 0)
(2.03467 3.56472e-06 0)
(2.02318 1.43623e-06 0)
(2.01045 -2.41708e-05 0)
(1.99628 7.12075e-05 0)
(1.9807 -0.000150081 0)
(1.9613 0.00023525 0)
(1.94798 -0.000623934 0)
(1.16222 0.107279 0)
(0.769041 0.136717 0)
(2.04508 -1.89622e-06 0)
(2.03467 3.46701e-06 0)
(2.02318 2.19151e-06 0)
(2.01045 -2.66686e-05 0)
(1.99628 7.46512e-05 0)
(1.9807 -0.000160017 0)
(1.9613 0.000254245 0)
(1.94789 -0.000664293 0)
(1.1812 0.112201 0)
(0.788836 0.137799 0)
(2.04508 -1.87944e-06 0)
(2.03467 3.26188e-06 0)
(2.02318 3.0359e-06 0)
(2.01044 -2.9061e-05 0)
(1.99628 7.75984e-05 0)
(1.98071 -0.000169016 0)
(1.96131 0.000272152 0)
(1.9478 -0.000693222 0)
(1.2011 0.116014 0)
(0.805117 0.138763 0)
(2.04508 -1.82586e-06 0)
(2.03467 2.95456e-06 0)
(2.02319 3.96623e-06 0)
(2.01044 -3.13691e-05 0)
(1.99628 7.99845e-05 0)
(1.98072 -0.000177372 0)
(1.96131 0.000288893 0)
(1.94773 -0.000711697 0)
(1.22066 0.118739 0)
(0.818291 0.139148 0)
(2.04508 -1.73877e-06 0)
(2.03466 2.54911e-06 0)
(2.02319 4.98444e-06 0)
(2.01044 -3.36364e-05 0)
(1.99628 8.2207e-05 0)
(1.98072 -0.000184938 0)
(1.96131 0.000304183 0)
(1.94767 -0.000724926 0)
(1.23922 0.120524 0)
(0.829057 0.139147 0)
(2.04508 -1.62022e-06 0)
(2.03466 2.04961e-06 0)
(2.02319 6.08673e-06 0)
(2.01044 -3.58682e-05 0)
(1.99627 8.44701e-05 0)
(1.98073 -0.000191558 0)
(1.96131 0.000318299 0)
(1.94763 -0.000732759 0)
(1.25661 0.121541 0)
(0.838153 0.138573 0)
(2.04508 -1.47297e-06 0)
(2.03466 1.46258e-06 0)
(2.02319 7.26711e-06 0)
(2.01044 -3.80617e-05 0)
(1.99627 8.66841e-05 0)
(1.98074 -0.000197427 0)
(1.96132 0.000330907 0)
(1.94758 -0.00073566 0)
(1.27297 0.121914 0)
(0.846197 0.137708 0)
(2.04508 -1.3003e-06 0)
(2.03466 7.9734e-07 0)
(2.02319 8.51686e-06 0)
(2.01044 -4.02162e-05 0)
(1.99627 8.89565e-05 0)
(1.98074 -0.000202501 0)
(1.96132 0.000342064 0)
(1.94754 -0.000734705 0)
(1.28853 0.121721 0)
(0.853571 0.136456 0)
(2.04508 -1.10701e-06 0)
(2.03466 6.80195e-08 0)
(2.02319 9.82711e-06 0)
(2.01044 -4.23835e-05 0)
(1.99627 9.1326e-05 0)
(1.98075 -0.000206494 0)
(1.96132 0.000351999 0)
(1.9475 -0.000731218 0)
(1.3037 0.121086 0)
(0.860563 0.135003 0)
(2.04508 -8.97397e-07 0)
(2.03466 -7.06896e-07 0)
(2.02319 1.11977e-05 0)
(2.01044 -4.44536e-05 0)
(1.99626 9.36833e-05 0)
(1.98075 -0.00020961 0)
(1.96133 0.000360901 0)
(1.94745 -0.000726133 0)
(1.31882 0.12022 0)
(0.867357 0.133209 0)
(2.04508 -6.80674e-07 0)
(2.03466 -1.49699e-06 0)
(2.02319 1.26259e-05 0)
(2.01044 -4.64514e-05 0)
(1.99626 9.60608e-05 0)
(1.98075 -0.00021183 0)
(1.96134 0.000368759 0)
(1.94741 -0.000719329 0)
(1.33419 0.11916 0)
(0.874219 0.13107 0)
(2.04508 6.80471e-07 0)
(2.03466 1.49779e-06 0)
(2.02319 -1.2626e-05 0)
(2.01044 4.64491e-05 0)
(1.99626 -9.60521e-05 0)
(1.98075 0.000211825 0)
(1.96134 -0.000368775 0)
(1.94741 0.000719341 0)
(1.33415 -0.119163 0)
(0.874235 -0.131077 0)
(2.04508 8.97268e-07 0)
(2.03466 7.07288e-07 0)
(2.02319 -1.1197e-05 0)
(2.01044 4.44481e-05 0)
(1.99626 -9.36704e-05 0)
(1.98075 0.000209609 0)
(1.96133 -0.00036093 0)
(1.94745 0.000726119 0)
(1.31879 -0.12022 0)
(0.86737 -0.133217 0)
(2.04508 1.10703e-06 0)
(2.03466 -6.84756e-08 0)
(2.02319 -9.82377e-06 0)
(2.01044 4.23756e-05 0)
(1.99627 -9.13098e-05 0)
(1.98075 0.000206492 0)
(1.96132 -0.000352034 0)
(1.9475 0.000731193 0)
(1.30367 -0.121084 0)
(0.860573 -0.135012 0)
(2.04508 1.30056e-06 0)
(2.03466 -7.98982e-07 0)
(2.02319 -8.51059e-06 0)
(2.01044 4.0201e-05 0)
(1.99627 -8.89326e-05 0)
(1.98074 0.000202497 0)
(1.96132 -0.000342087 0)
(1.94754 0.000734685 0)
(1.2885 -0.121716 0)
(0.853578 -0.136465 0)
(2.04508 1.47351e-06 0)
(2.03466 -1.46557e-06 0)
(2.02319 -7.25764e-06 0)
(2.01044 3.80404e-05 0)
(1.99627 -8.66462e-05 0)
(1.98074 0.000197411 0)
(1.96131 -0.000330912 0)
(1.94758 0.00073568 0)
(1.27295 -0.121905 0)
(0.846201 -0.137717 0)
(2.04508 1.62107e-06 0)
(2.03466 -2.05393e-06 0)
(2.02319 -6.07383e-06 0)
(2.01044 3.58393e-05 0)
(1.99627 -8.44141e-05 0)
(1.98073 0.000191519 0)
(1.96131 -0.000318296 0)
(1.94763 0.000732803 0)
(1.25659 -0.121528 0)
(0.838156 -0.138579 0)
(2.04508 1.73992e-06 0)
(2.03466 -2.55476e-06 0)
(2.02319 -4.96779e-06 0)
(2.01044 3.35981e-05 0)
(1.99628 -8.21291e-05 0)
(1.98072 0.000184872 0)
(1.96131 -0.000304181 0)
(1.94767 0.00072495 0)
(1.23921 -0.120509 0)
(0.829059 -0.139151 0)
(2.04508 1.82734e-06 0)
(2.03467 -2.96169e-06 0)
(2.02319 -3.94523e-06 0)
(2.01044 3.13201e-05 0)
(1.99628 -7.98828e-05 0)
(1.98072 0.00017729 0)
(1.96131 -0.000288889 0)
(1.94773 0.000711711 0)
(1.22066 -0.118722 0)
(0.818293 -0.139149 0)
(2.04508 1.88129e-06 0)
(2.03467 -3.27068e-06 0)
(2.02318 -3.01033e-06 0)
(2.01044 2.90035e-05 0)
(1.99628 -7.7497e-05 0)
(1.98071 0.00016893 0)
(1.96131 -0.000272088 0)
(1.9478 0.000693248 0)
(1.2011 -0.115997 0)
(0.805114 -0.138764 0)
(2.04508 1.89847e-06 0)
(2.03467 -3.47736e-06 0)
(2.02318 -2.16243e-06 0)
(2.01045 2.66099e-05 0)
(1.99628 -7.45765e-05 0)
(1.9807 0.000159945 0)
(1.9613 -0.000254068 0)
(1.94789 0.000664447 0)
(1.18122 -0.112184 0)
(0.788825 -0.137801 0)
(2.04508 1.87551e-06 0)
(2.03467 -3.57611e-06 0)
(2.02318 -1.40604e-06 0)
(2.01045 2.41188e-05 0)
(1.99628 -7.11515e-05 0)
(1.9807 0.000150041 0)
(1.9613 -0.000234994 0)
(1.94798 0.000624203 0)
(1.16225 -0.107264 0)
(0.769028 -0.136724 0)
(2.04508 1.81364e-06 0)
(2.03467 -3.56658e-06 0)
(2.02318 -7.55333e-07 0)
(2.01045 2.15611e-05 0)
(1.99627 -6.72228e-05 0)
(1.98069 0.000139092 0)
(1.9613 -0.000215957 0)
(1.94808 0.000580048 0)
(1.1453 -0.101242 0)
(0.745823 -0.134794 0)
(2.04508 1.71422e-06 0)
(2.03467 -3.45222e-06 0)
(2.02318 -2.25034e-07 0)
(2.01045 1.89622e-05 0)
(1.99627 -6.25187e-05 0)
(1.98068 0.00012689 0)
(1.96129 -0.000195632 0)
(1.94817 0.000510401 0)
(1.13062 -0.0945618 0)
(0.718712 -0.131138 0)
(2.04508 1.57752e-06 0)
(2.03467 -3.234e-06 0)
(2.02318 1.68566e-07 0)
(2.01045 1.63339e-05 0)
(1.99627 -5.68326e-05 0)
(1.98068 0.000113448 0)
(1.96129 -0.000175931 0)
(1.94829 0.000457501 0)
(1.11715 -0.0872427 0)
(0.686352 -0.124504 0)
(2.04508 1.40465e-06 0)
(2.03467 -2.91581e-06 0)
(2.02317 4.16283e-07 0)
(2.01045 1.36907e-05 0)
(1.99627 -5.01583e-05 0)
(1.98067 9.90701e-05 0)
(1.96128 -0.000155979 0)
(1.94837 0.000358563 0)
(1.10209 -0.0798572 0)
(0.647399 -0.114384 0)
(2.04508 1.19888e-06 0)
(2.03467 -2.51076e-06 0)
(2.02317 5.32969e-07 0)
(2.01045 1.10588e-05 0)
(1.99626 -4.24933e-05 0)
(1.98066 8.3305e-05 0)
(1.96127 -0.000132993 0)
(1.9484 0.000249566 0)
(1.08542 -0.0700981 0)
(0.601489 -0.101688 0)
(2.04508 9.65255e-07 0)
(2.03467 -2.03614e-06 0)
(2.02317 5.50572e-07 0)
(2.01045 8.46584e-06 0)
(1.99626 -3.39755e-05 0)
(1.98066 6.63194e-05 0)
(1.96126 -0.000108345 0)
(1.94838 0.000190205 0)
(1.06851 -0.0583464 0)
(0.54883 -0.085324 0)
(2.04508 7.09764e-07 0)
(2.03467 -1.50854e-06 0)
(2.02317 5.00016e-07 0)
(2.01045 5.93301e-06 0)
(1.99626 -2.47865e-05 0)
(1.98065 4.83738e-05 0)
(1.96125 -8.025e-05 0)
(1.94835 0.000125999 0)
(1.0534 -0.0439431 0)
(0.494826 -0.0671537 0)
(2.04508 4.3867e-07 0)
(2.03467 -9.40022e-07 0)
(2.02317 3.82457e-07 0)
(2.01045 3.45247e-06 0)
(1.99626 -1.50158e-05 0)
(1.98065 2.93708e-05 0)
(1.96124 -4.98698e-05 0)
(1.94833 7.87278e-05 0)
(1.04217 -0.0273499 0)
(0.446663 -0.0452259 0)
(2.04508 1.65285e-07 0)
(2.03467 -3.71906e-07 0)
(2.02317 2.90937e-07 0)
(2.01045 1.04315e-06 0)
(1.99626 -4.98139e-06 0)
(1.98065 1.0589e-05 0)
(1.96124 -1.71278e-05 0)
(1.94833 2.29211e-05 0)
(1.03578 -0.00919103 0)
(0.411934 -0.0191475 0)
(0.88216 -0.150159 0)
(0.893201 -0.151639 0)
(0.900502 -0.156023 0)
(0.911668 -0.159172 0)
(0.923965 -0.164038 0)
(0.940437 -0.167707 0)
(0.959957 -0.172152 0)
(0.98537 -0.175372 0)
(1.01604 -0.176688 0)
(1.05434 -0.175364 0)
(0.875114 -0.154608 0)
(0.886427 -0.156418 0)
(0.893805 -0.161301 0)
(0.905405 -0.164885 0)
(0.918084 -0.17047 0)
(0.935355 -0.174513 0)
(0.955678 -0.179605 0)
(0.982451 -0.183065 0)
(1.01469 -0.184328 0)
(1.05557 -0.182521 0)
(0.867713 -0.15886 0)
(0.879299 -0.161008 0)
(0.886703 -0.166407 0)
(0.898707 -0.170467 0)
(0.911713 -0.176819 0)
(0.929809 -0.181287 0)
(0.95111 -0.187222 0)
(0.97965 -0.191066 0)
(1.01417 -0.192631 0)
(1.05825 -0.19034 0)
(0.859647 -0.162897 0)
(0.871499 -0.165424 0)
(0.878908 -0.171407 0)
(0.891354 -0.176058 0)
(0.904753 -0.183312 0)
(0.923814 -0.188309 0)
(0.946149 -0.195201 0)
(0.97646 -0.199415 0)
(1.01304 -0.201238 0)
(1.06035 -0.198418 0)
(0.850741 -0.166773 0)
(0.862774 -0.169727 0)
(0.870133 -0.176346 0)
(0.882991 -0.181671 0)
(0.896761 -0.18991 0)
(0.916851 -0.195488 0)
(0.940324 -0.203453 0)
(0.972677 -0.208106 0)
(1.01186 -0.210388 0)
(1.06312 -0.207034 0)
(0.840599 -0.170226 0)
(0.85256 -0.17364 0)
(0.859745 -0.180916 0)
(0.872941 -0.187016 0)
(0.887033 -0.196375 0)
(0.908233 -0.202679 0)
(0.932933 -0.211899 0)
(0.967532 -0.217115 0)
(1.00957 -0.219969 0)
(1.06513 -0.216041 0)
(0.829045 -0.173147 0)
(0.840529 -0.177072 0)
(0.847434 -0.185038 0)
(0.860917 -0.192032 0)
(0.875303 -0.202686 0)
(0.897715 -0.209897 0)
(0.923745 -0.220571 0)
(0.960805 -0.226486 0)
(1.00612 -0.23009 0)
(1.06669 -0.225526 0)
(0.815828 -0.17495 0)
(0.826317 -0.179563 0)
(0.832891 -0.188388 0)
(0.846663 -0.196485 0)
(0.861309 -0.208698 0)
(0.885029 -0.217043 0)
(0.912462 -0.22938 0)
(0.952139 -0.236149 0)
(1.0011 -0.240808 0)
(1.06766 -0.235767 0)
(0.801273 -0.175777 0)
(0.810162 -0.18129 0)
(0.816319 -0.191164 0)
(0.830388 -0.20049 0)
(0.84517 -0.214446 0)
(0.870255 -0.224148 0)
(0.899148 -0.238366 0)
(0.941519 -0.246073 0)
(0.994423 -0.252365 0)
(1.06769 -0.246775 0)
(0.785942 -0.174839 0)
(0.79263 -0.181818 0)
(0.797925 -0.193159 0)
(0.812276 -0.203958 0)
(0.826967 -0.219945 0)
(0.853424 -0.231239 0)
(0.883768 -0.247451 0)
(0.929028 -0.256457 0)
(0.985661 -0.264018 0)
(1.06673 -0.258553 0)
(0.768578 -0.171077 0)
(0.773261 -0.18013 0)
(0.77698 -0.19374 0)
(0.791787 -0.206277 0)
(0.806175 -0.224504 0)
(0.834084 -0.237804 0)
(0.865999 -0.256479 0)
(0.91397 -0.266894 0)
(0.975537 -0.277145 0)
(1.06611 -0.271923 0)
(0.744719 -0.162413 0)
(0.749655 -0.174184 0)
(0.751695 -0.191586 0)
(0.767875 -0.207269 0)
(0.782283 -0.228706 0)
(0.811813 -0.244463 0)
(0.845384 -0.265566 0)
(0.896292 -0.278208 0)
(0.963723 -0.292529 0)
(1.06374 -0.2864 0)
(0.709804 -0.151821 0)
(0.718337 -0.166721 0)
(0.720198 -0.188377 0)
(0.739031 -0.206859 0)
(0.754164 -0.23114 0)
(0.785555 -0.250083 0)
(0.821211 -0.274527 0)
(0.87505 -0.290234 0)
(0.947716 -0.307641 0)
(1.05896 -0.301304 0)
(0.665707 -0.138879 0)
(0.679589 -0.15729 0)
(0.682839 -0.184152 0)
(0.705301 -0.206807 0)
(0.722354 -0.235023 0)
(0.755834 -0.256887 0)
(0.793517 -0.283363 0)
(0.849333 -0.30133 0)
(0.926763 -0.323285 0)
(1.05093 -0.318702 0)
(0.616875 -0.129182 0)
(0.635742 -0.149922 0)
(0.641001 -0.181141 0)
(0.667244 -0.205767 0)
(0.68703 -0.235555 0)
(0.722504 -0.260088 0)
(0.762748 -0.28911 0)
(0.820948 -0.311171 0)
(0.903327 -0.3394 0)
(1.03681 -0.33695 0)
(0.564473 -0.118152 0)
(0.589685 -0.138876 0)
(0.597494 -0.174029 0)
(0.628283 -0.204752 0)
(0.65293 -0.240133 0)
(0.691913 -0.269103 0)
(0.736123 -0.300958 0)
(0.797712 -0.32739 0)
(0.885165 -0.360622 0)
(1.0266 -0.359697 0)
(0.511632 -0.118761 0)
(0.545867 -0.145326 0)
(0.557452 -0.1848 0)
(0.592806 -0.214822 0)
(0.623474 -0.249813 0)
(0.665271 -0.280629 0)
(0.712328 -0.314483 0)
(0.77483 -0.344708 0)
(0.863113 -0.381836 0)
(1.01047 -0.387637 0)
(0.454644 -0.10504 0)
(0.503768 -0.132205 0)
(0.520721 -0.181365 0)
(0.560919 -0.224599 0)
(0.60047 -0.268014 0)
(0.64977 -0.303125 0)
(0.703319 -0.337942 0)
(0.76844 -0.369437 0)
(0.856118 -0.409408 0)
(1.00368 -0.423406 0)
(0.397242 -0.122815 0)
(0.464591 -0.15356 0)
(0.49745 -0.211135 0)
(0.54723 -0.257853 0)
(0.591941 -0.298975 0)
(0.639822 -0.330514 0)
(0.690956 -0.36093 0)
(0.753399 -0.391086 0)
(0.83709 -0.430966 0)
(0.979065 -0.459116 0)
(0.362392 -0.0861255 0)
(0.45221 -0.134158 0)
(0.503671 -0.205748 0)
(0.558543 -0.257986 0)
(0.603369 -0.300556 0)
(0.647426 -0.332849 0)
(0.694487 -0.362742 0)
(0.753572 -0.391858 0)
(0.834818 -0.43202 0)
(0.981538 -0.471457 0)
(1.15137 -0.151467 0)
(1.29227 -0.0758394 0)
(1.41461 0.0321194 0)
(1.51102 0.151338 0)
(1.5848 0.268867 0)
(1.64272 0.373291 0)
(1.65295 0.375373 0)
(1.6032 0.247819 0)
(1.50955 0.0605667 0)
(1.51571 -0.0224715 0)
(1.15885 -0.156111 0)
(1.30527 -0.0743556 0)
(1.42963 0.0401807 0)
(1.52573 0.165885 0)
(1.59634 0.286135 0)
(1.64696 0.38558 0)
(1.65326 0.374917 0)
(1.58778 0.225089 0)
(1.49973 0.0543986 0)
(1.50992 -0.0212341 0)
(1.16702 -0.160837 0)
(1.31927 -0.072161 0)
(1.44552 0.049644 0)
(1.5401 0.180531 0)
(1.60811 0.302896 0)
(1.64902 0.393673 0)
(1.65152 0.374556 0)
(1.57052 0.20157 0)
(1.493 0.048283 0)
(1.50707 -0.020331 0)
(1.17566 -0.165496 0)
(1.33432 -0.0689165 0)
(1.46212 0.060926 0)
(1.55464 0.195214 0)
(1.62031 0.321319 0)
(1.65171 0.403621 0)
(1.64667 0.368705 0)
(1.55045 0.177626 0)
(1.48675 0.0439022 0)
(1.50508 -0.0180332 0)
(1.18515 -0.170213 0)
(1.3504 -0.0645692 0)
(1.47875 0.0724923 0)
(1.56935 0.21011 0)
(1.63306 0.344953 0)
(1.65306 0.408051 0)
(1.64015 0.359578 0)
(1.52675 0.153416 0)
(1.47894 0.0394142 0)
(1.50163 -0.0163682 0)
(1.19507 -0.174772 0)
(1.36744 -0.0591818 0)
(1.49622 0.0851071 0)
(1.5856 0.23079 0)
(1.64283 0.363683 0)
(1.65361 0.408177 0)
(1.63191 0.344978 0)
(1.50545 0.13471 0)
(1.47034 0.0358123 0)
(1.49577 -0.0144717 0)
(1.20585 -0.179217 0)
(1.38523 -0.0536876 0)
(1.51462 0.100461 0)
(1.59975 0.252776 0)
(1.65345 0.374149 0)
(1.65305 0.409778 0)
(1.62192 0.326986 0)
(1.48109 0.118359 0)
(1.46201 0.0338396 0)
(1.49025 -0.0130949 0)
(1.21758 -0.183681 0)
(1.40514 -0.0455823 0)
(1.53407 0.120368 0)
(1.61246 0.268964 0)
(1.66381 0.3864 0)
(1.65316 0.411193 0)
(1.60871 0.304595 0)
(1.4634 0.107194 0)
(1.45599 0.0325272 0)
(1.48447 -0.0114482 0)
(1.23037 -0.18767 0)
(1.42559 -0.0359635 0)
(1.5519 0.138178 0)
(1.62563 0.281897 0)
(1.66857 0.401968 0)
(1.65701 0.411715 0)
(1.59238 0.27891 0)
(1.44301 0.0937936 0)
(1.45233 0.031496 0)
(1.4799 -0.00904062 0)