/*--------------------------------*- C++ -*----------------------------------*\
  =========                 |
  \\      /  F ield         | OpenFOAM: The Open Source CFD Toolbox
   \\    /   O peration     | Website:  https://openfoam.org
    \\  /    A nd           | Version:  7
     \\/     M anipulation  |
\*---------------------------------------------------------------------------*/
FoamFile
{
    version     2.0;
    format      ascii;
    class       volVectorField;
    location    "0.1";
    object      U;
}
// * * * * * * * * * * * * * * * * * * * * * * * * * * * * * * * * * * * * * //

dimensions      [0 1 -1 0 0 0 0];

internalField   nonuniform List<vector> 
3225
(
(1.1 1.60525e-16 0)
(1.1 -2.16576e-16 0)
(1.1 7.53006e-18 0)
(1.1 -1.0298e-17 0)
(1.1 4.51412e-16 0)
(1.1 1.29029e-15 0)
(1.1 1.73631e-15 0)
(1.1 1.29419e-15 0)
(1.1 5.78114e-16 0)
(1.1 3.03848e-16 0)
(1.1 2.73358e-16 0)
(1.1 1.47955e-16 0)
(1.1 -1.58959e-15 0)
(1.1 -1.60976e-15 0)
(1.1 -1.34818e-15 0)
(1.1 -1.36471e-15 0)
(1.1 -1.08903e-15 0)
(1.1 -1.00881e-15 0)
(1.1 -8.77877e-16 0)
(1.1 -8.881e-16 0)
(1.1 -7.34082e-16 0)
(1.1 -3.69374e-16 0)
(1.1 -4.63562e-16 0)
(1.1 -2.98313e-16 0)
(1.1 -3.65276e-16 0)
(1.1 -6.46061e-16 0)
(1.1 -5.0236e-16 0)
(1.1 4.66587e-17 0)
(1.1 -3.2378e-16 0)
(1.1 -2.02912e-16 0)
(1.1 -2.39298e-16 0)
(1.1 1.57544e-16 0)
(1.1 7.24665e-16 0)
(1.1 1.13205e-15 0)
(1.1 1.00995e-15 0)
(1.1 7.96628e-16 0)
(1.1 5.24831e-16 0)
(1.1 2.76062e-16 0)
(1.1 1.40609e-16 0)
(1.1 -1.93898e-15 0)
(1.1 -1.93546e-15 0)
(1.1 -1.68466e-15 0)
(1.1 -1.42908e-15 0)
(1.1 -1.2507e-15 0)
(1.1 -1.45859e-15 0)
(1.1 -1.6416e-15 0)
(1.1 -1.662e-15 0)
(1.1 -1.02357e-15 0)
(1.1 -8.24893e-16 0)
(1.1 -9.91449e-16 0)
(1.1 -1.08178e-15 0)
(1.1 -1.58499e-15 0)
(1.1 -1.24591e-15 0)
(1.1 -3.22261e-16 0)
(1.1 2.32616e-16 0)
(1.1 1.51476e-16 0)
(1.1 -4.40603e-16 0)
(1.1 -6.25762e-16 0)
(1.1 -3.70337e-16 0)
(1.1 -3.67871e-17 0)
(1.1 -1.23182e-16 0)
(1.1 4.26809e-16 0)
(1.1 1.31565e-16 0)
(1.1 3.87278e-17 0)
(1.1 9.67611e-17 0)
(1.1 1.65566e-16 0)
(1.1 -2.99982e-15 0)
(1.1 -2.85399e-15 0)
(1.1 -2.82009e-15 0)
(1.1 -2.09782e-15 0)
(1.1 -2.25017e-15 0)
(1.1 -2.21986e-15 0)
(1.1 -1.42154e-15 0)
(1.1 -1.31644e-15 0)
(1.1 -1.21802e-15 0)
(1.1 -1.0382e-15 0)
(1.1 -1.06996e-15 0)
(1.1 -1.30773e-15 0)
(1.1 -1.85402e-15 0)
(1.1 -1.69913e-15 0)
(1.1 -8.63339e-16 0)
(1.1 -6.94267e-16 0)
(1.1 -2.64367e-16 0)
(1.1 -5.32416e-16 0)
(1.1 -1.53703e-16 0)
(1.1 -5.29741e-16 0)
(1.1 -5.09864e-16 0)
(1.1 -6.47184e-16 0)
(1.1 -5.80079e-16 0)
(1.1 -1.95385e-16 0)
(1.1 2.48315e-17 0)
(1.1 4.71746e-16 0)
(1.1 1.33074e-15 0)
(1.1 -3.1515e-15 0)
(1.1 -2.93318e-15 0)
(1.1 -2.85328e-15 0)
(1.1 -2.7345e-15 0)
(1.1 -2.74182e-15 0)
(1.1 -2.30811e-15 0)
(1.1 -1.88194e-15 0)
(1.1 -1.76339e-15 0)
(1.1 -1.63006e-15 0)
(1.1 -1.65336e-15 0)
(1.1 -1.59583e-15 0)
(1.1 -1.28042e-15 0)
(1.1 -1.30605e-15 0)
(1.1 -1.38346e-15 0)
(1.1 -1.34611e-15 0)
(1.1 -1.41857e-15 0)
(1.1 -8.89401e-16 0)
(1.1 -2.32637e-16 0)
(1.1 3.9303e-16 0)
(1.1 6.34818e-16 0)
(1.1 2.51979e-16 0)
(1.1 -6.87507e-16 0)
(1.1 -1.17696e-15 0)
(1.1 -7.26013e-16 0)
(1.1 9.97042e-17 0)
(1.1 8.63157e-16 0)
(1.1 1.6207e-15 0)
(1.1 -2.57683e-15 0)
(1.1 -2.98535e-15 0)
(1.1 -2.83656e-15 0)
(1.1 -2.74472e-15 0)
(1.1 -2.80811e-15 0)
(1.1 -2.50645e-15 0)
(1.1 -2.67832e-15 0)
(1.1 -2.43565e-15 0)
(1.1 -2.03598e-15 0)
(1.1 -2.01586e-15 0)
(1.1 -1.80149e-15 0)
(1.1 -1.5286e-15 0)
(1.1 -1.02037e-15 0)
(1.1 -1.17947e-15 0)
(1.1 -1.51754e-15 0)
(1.1 -1.23146e-15 0)
(1.1 -6.24048e-16 0)
(1.1 -4.29229e-17 0)
(1.1 5.57e-16 0)
(1.1 1.07063e-15 0)
(1.1 6.30362e-16 0)
(1.1 -2.01588e-16 0)
(1.1 -4.20123e-16 0)
(1.1 -3.24735e-16 0)
(1.1 -4.84409e-17 0)
(1.1 6.71059e-16 0)
(1.1 1.05147e-15 0)
(1.1 -1.88104e-15 0)
(1.1 -1.95854e-15 0)
(1.1 -2.03674e-15 0)
(1.1 -1.94501e-15 0)
(1.1 -2.11068e-15 0)
(1.1 -2.27294e-15 0)
(1.1 -2.32151e-15 0)
(1.1 -1.91701e-15 0)
(1.1 -1.88786e-15 0)
(1.1 -1.73479e-15 0)
(1.1 -1.54976e-15 0)
(1.1 -1.46605e-15 0)
(1.1 -9.65881e-16 0)
(1.1 -6.84893e-16 0)
(1.1 -4.25476e-16 0)
(1.1 -5.25212e-16 0)
(1.1 -5.44963e-16 0)
(1.1 2.70292e-16 0)
(1.1 2.98212e-16 0)
(1.1 4.02544e-16 0)
(1.1 4.23924e-16 0)
(1.1 5.84375e-16 0)
(1.1 4.07252e-16 0)
(1.1 2.79998e-16 0)
(1.1 4.00058e-16 0)
(1.1 2.86727e-16 0)
(1.1 4.86701e-16 0)
(1.1 -1.57557e-15 0)
(1.1 -1.6445e-15 0)
(1.1 -1.64609e-15 0)
(1.1 -1.47708e-15 0)
(1.1 -1.26583e-15 0)
(1.1 -1.42784e-15 0)
(1.1 -1.33495e-15 0)
(1.1 -1.31036e-15 0)
(1.1 -1.46537e-15 0)
(1.1 -1.40221e-15 0)
(1.1 -1.06096e-15 0)
(1.1 -8.6502e-16 0)
(1.1 -5.91401e-16 0)
(1.1 3.97663e-17 0)
(1.1 4.44181e-16 0)
(1.1 2.75191e-16 0)
(1.1 -5.24395e-17 0)
(1.1 1.99374e-16 0)
(1.1 1.87577e-16 0)
(1.1 -1.77955e-16 0)
(1.1 4.69752e-17 0)
(1.1 5.51976e-16 0)
(1.1 6.19549e-16 0)
(1.1 5.00445e-16 0)
(1.1 6.59453e-16 0)
(1.1 3.56452e-16 0)
(1.1 -6.88481e-17 0)
(1.1 -1.26873e-15 0)
(1.1 -9.01073e-16 0)
(1.1 -7.65738e-16 0)
(1.1 -7.49223e-16 0)
(1.1 -6.02075e-16 0)
(1.1 -5.46123e-16 0)
(1.1 -6.0544e-16 0)
(1.1 -1.19305e-15 0)
(1.1 -1.06945e-15 0)
(1.1 -9.63371e-16 0)
(1.1 -6.61571e-16 0)
(1.1 -3.40899e-16 0)
(1.1 -3.65943e-16 0)
(1.1 4.42535e-17 0)
(1.1 8.25172e-17 0)
(1.1 5.14482e-16 0)
(1.1 5.02575e-16 0)
(1.1 4.27128e-16 0)
(1.1 4.16091e-16 0)
(1.1 2.51316e-16 0)
(1.1 1.95058e-16 0)
(1.1 2.48049e-16 0)
(1.1 2.90456e-16 0)
(1.1 6.17552e-16 0)
(1.1 4.0051e-16 0)
(1.1 2.79799e-17 0)
(1.1 -2.00831e-16 0)
(1.1 -3.55289e-16 0)
(1.1 5.92239e-16 0)
(1.1 5.36369e-16 0)
(1.1 2.78809e-16 0)
(1.1 -9.18929e-17 0)
(1.1 -1.30785e-16 0)
(1.1 -2.10284e-16 0)
(1.1 -7.98832e-16 0)
(1.1 -6.06174e-16 0)
(1.1 -3.79157e-16 0)
(1.1 -5.4154e-16 0)
(1.1 -6.11609e-16 0)
(1.1 -5.29417e-16 0)
(1.1 -8.57504e-17 0)
(1.1 -1.68483e-16 0)
(1.1 7.85492e-17 0)
(1.1 4.32463e-16 0)
(1.1 7.20731e-16 0)
(1.1 4.75998e-16 0)
(1.1 7.12278e-16 0)
(1.1 7.80139e-16 0)
(1.1 -1.34808e-16 0)
(1.1 -1.42841e-17 0)
(1.1 5.75989e-16 0)
(1.1 6.34095e-16 0)
(1.1 -6.91957e-18 0)
(1.1 -2.48278e-17 0)
(1.1 6.24059e-16 0)
(1.1 1.07771e-15 0)
(1.1 1.12089e-15 0)
(1.1 7.38602e-16 0)
(1.1 2.88939e-16 0)
(1.1 -4.09659e-16 0)
(1.1 -3.02076e-16 0)
(1.1 3.41518e-18 0)
(1.1 7.48409e-17 0)
(1.1 1.58214e-16 0)
(1.1 2.13827e-16 0)
(1.1 -1.80558e-16 0)
(1.1 1.35868e-16 0)
(1.1 -1.18419e-16 0)
(1.1 1.64013e-16 0)
(1.1 1.33278e-16 0)
(1.1 1.05779e-16 0)
(1.1 -4.1284e-16 0)
(1.1 -4.93939e-16 0)
(1.1 -2.31377e-16 0)
(1.1 4.50489e-16 0)
(1.1 4.56435e-17 0)
(1.1 -2.42793e-16 0)
(1.1 -2.24942e-16 0)
(1.1 -2.17788e-16 0)
(1.1 2.92546e-17 0)
(1.1 4.99878e-17 0)
(1.1 5.5086e-16 0)
(1.1 6.62866e-16 0)
(1.1 6.43732e-16 0)
(1.1 8.62873e-16 0)
(1.1 7.4213e-16 0)
(1.1 7.01503e-16 0)
(1.1 2.38149e-16 0)
(1.1 3.7014e-16 0)
(1.1 -1.26957e-17 0)
(1.1 2.67722e-16 0)
(1.1 3.93038e-16 0)
(1.1 2.70187e-17 0)
(1.1 -2.76389e-16 0)
(1.1 -9.99795e-17 0)
(1.1 1.81052e-17 0)
(1.1 4.84012e-17 0)
(1.1 7.59374e-17 0)
(1.1 -9.98268e-16 0)
(1.1 -7.20792e-16 0)
(1.1 -9.31823e-16 0)
(1.1 -5.93234e-16 0)
(1.1 -5.4613e-16 0)
(1.1 -1.58939e-16 0)
(1.1 -7.58802e-16 0)
(1.1 -9.44052e-16 0)
(1.1 -3.35779e-16 0)
(1.1 -2.99817e-16 0)
(1.1 1.22846e-15 0)
(1.1 8.43732e-16 0)
(1.1 8.28451e-16 0)
(1.1 4.32586e-16 0)
(1.1 4.98008e-16 0)
(1.1 4.6651e-16 0)
(1.1 6.33025e-16 0)
(1.1 5.59962e-16 0)
(1.1 6.00524e-16 0)
(1.1 -7.19872e-17 0)
(1.1 -3.28933e-16 0)
(1.1 -1.56767e-16 0)
(1.1 -1.34693e-16 0)
(1.1 -1.01088e-16 0)
(1.1 -4.89233e-16 0)
(1.1 -8.98894e-16 0)
(1.1 -4.77863e-16 0)
(1.1 -2.47347e-16 0)
(1.1 -4.45716e-16 0)
(1.1 -1.21694e-15 0)
(1.1 -1.28422e-15 0)
(1.1 -7.91864e-16 0)
(1.1 -5.00014e-16 0)
(1.1 -5.94063e-16 0)
(1.1 -6.9282e-16 0)
(1.1 -2.90846e-16 0)
(1.1 -3.525e-16 0)
(1.1 2.8545e-16 0)
(1.1 3.67719e-16 0)
(1.1 2.68798e-16 0)
(1.1 2.79515e-16 0)
(1.1 3.4023e-16 0)
(1.1 1.11536e-16 0)
(1.1 3.02118e-16 0)
(1.1 2.33038e-16 0)
(1.1 1.53204e-16 0)
(1.1 -1.90622e-17 0)
(1.1 -3.37868e-16 0)
(1.1 -2.69109e-16 0)
(1.1 -6.0341e-16 0)
(1.1 -8.29841e-16 0)
(1.1 -5.38354e-16 0)
(1.1 -8.88371e-16 0)
(1.1 -1.07974e-15 0)
(1.1 -9.22563e-16 0)
(1.1 -1.29761e-15 0)
(1.1 -2.02113e-15 0)
(1.1 -1.86763e-15 0)
(1.1 -7.75561e-16 0)
(1.1 -1.20318e-15 0)
(1.1 -1.02468e-15 0)
(1.1 -7.82725e-16 0)
(1.1 -6.20997e-16 0)
(1.1 -2.77286e-16 0)
(1.1 1.35741e-16 0)
(1.1 1.29663e-16 0)
(1.1 1.04969e-16 0)
(1.1 2.51211e-17 0)
(1.1 -9.01629e-17 0)
(1.1 -4.80091e-16 0)
(1.1 -4.96183e-16 0)
(1.1 -4.75437e-16 0)
(1.1 -5.87288e-16 0)
(1.1 -7.71893e-17 0)
(1.1 8.59577e-18 0)
(1.1 1.06744e-16 0)
(1.1 -4.7763e-16 0)
(1.1 -1.00356e-15 0)
(1.1 -7.48186e-16 0)
(1.1 -7.86128e-16 0)
(1.1 -1.30248e-15 0)
(1.1 -9.67285e-16 0)
(1.1 -9.00222e-16 0)
(1.1 -1.57961e-15 0)
(1.1 -1.62621e-15 0)
(1.1 -1.2348e-15 0)
(1.1 -9.0411e-16 0)
(1.1 -8.03897e-16 0)
(1.1 -2.64333e-16 0)
(1.1 -4.17664e-16 0)
(1.1 -6.69467e-17 0)
(1.1 9.1993e-16 0)
(1.1 2.79921e-16 0)
(1.1 1.07337e-16 0)
(1.1 -2.44032e-16 0)
(1.1 -6.62337e-16 0)
(1.1 -7.39077e-16 0)
(1.1 -6.00666e-16 0)
(1.1 -7.12126e-16 0)
(1.1 -6.87486e-16 0)
(1.1 -1.47829e-16 0)
(1.1 3.7366e-16 0)
(1.1 2.29306e-16 0)
(1.1 2.42494e-16 0)
(1.1 -3.0852e-16 0)
(1.1 -8.82071e-16 0)
(1.1 -9.00078e-16 0)
(1.1 -1.05662e-15 0)
(1.1 -8.07366e-16 0)
(1.1 -8.36811e-16 0)
(1.1 -7.19711e-16 0)
(1.1 -9.40138e-16 0)
(1.1 -1.08895e-15 0)
(1.1 -6.40904e-16 0)
(1.1 -4.42771e-16 0)
(1.1 -1.30379e-16 0)
(1.1 -1.0874e-16 0)
(1.1 -5.63471e-17 0)
(1.1 4.49176e-16 0)
(1.1 2.75917e-16 0)
(1.1 -1.56789e-16 0)
(1.1 -5.91543e-16 0)
(1.1 -7.26991e-16 0)
(1.1 -8.27751e-16 0)
(1.1 -8.12723e-16 0)
(1.1 -5.64196e-16 0)
(1.1 -6.07469e-16 0)
(1.1 -5.13709e-16 0)
(1.1 -8.83979e-17 0)
(1.1 -3.5545e-16 0)
(1.1 3.01733e-16 0)
(1.1 -1.14423e-16 0)
(1.1 -2.52872e-16 0)
(1.1 -4.27605e-16 0)
(1.1 -5.14534e-16 0)
(1.1 -1.21992e-15 0)
(1.1 -1.19317e-15 0)
(1.1 -3.55907e-16 0)
(1.1 -7.45188e-16 0)
(1.1 -7.3451e-16 0)
(1.1 -6.81053e-16 0)
(1.1 -2.84158e-16 0)
(1.1 3.46123e-17 0)
(1.1 -6.1059e-17 0)
(1.1 -6.27317e-16 0)
(1.1 -1.50722e-17 0)
(1.1 -1.68626e-16 0)
(1.1 -1.14805e-15 0)
(1.1 -1.0978e-15 0)
(1.1 -1.10681e-15 0)
(1.1 -9.6687e-16 0)
(1.1 -9.69924e-16 0)
(1.1 -7.62542e-16 0)
(1.1 -7.90175e-16 0)
(1.1 -9.99806e-16 0)
(1.1 -9.31042e-16 0)
(1.1 -7.82693e-16 0)
(1.1 -5.82621e-16 0)
(1.1 -4.79198e-16 0)
(1.1 -2.6019e-16 0)
(1.1 -9.1603e-17 0)
(1.1 -2.59124e-16 0)
(1.1 -1.3349e-15 0)
(1.1 -1.43692e-15 0)
(1.1 -9.45389e-16 0)
(1.1 -5.32444e-16 0)
(1.1 -4.41132e-16 0)
(1.1 -5.80721e-16 0)
(1.1 -4.4822e-16 0)
(1.1 -1.33591e-16 0)
(1.1 -3.68015e-16 0)
(1.1 -4.81623e-16 0)
(1.1 -1.31127e-15 0)
(1.1 -2.06123e-15 0)
(1.1 -2.01178e-15 0)
(1.1 -1.85689e-15 0)
(1.1 -1.70659e-15 0)
(1.1 -1.30544e-15 0)
(1.1 -1.00554e-15 0)
(1.1 -1.06723e-15 0)
(1.1 -1.02246e-15 0)
(1.1 -1.15315e-15 0)
(1.1 -1.14364e-15 0)
(1.1 -5.70665e-16 0)
(1.1 -7.42503e-16 0)
(1.1 -7.34787e-16 0)
(1.1 -1.24551e-15 0)
(1.1 -7.01014e-16 0)
(1.1 -5.81318e-16 0)
(1.1 -9.32499e-16 0)
(1.1 -9.19258e-16 0)
(1.1 -7.77424e-16 0)
(1.1 -2.52099e-17 0)
(1.1 -9.42954e-17 0)
(1.1 2.05391e-16 0)
(1.1 2.3781e-16 0)
(1.1 1.02356e-16 0)
(1.1 6.39322e-17 0)
(1.1 1.58788e-16 0)
(1.1 -3.18279e-15 0)
(1.1 -2.97583e-15 0)
(1.1 -2.48483e-15 0)
(1.1 -1.3415e-15 0)
(1.1 -1.21612e-15 0)
(1.1 -9.47305e-16 0)
(1.1 -5.68614e-16 0)
(1.1 -6.62843e-16 0)
(1.1 -6.83822e-16 0)
(1.1 -4.69612e-16 0)
(1.1 -4.14877e-16 0)
(1.1 -5.80912e-16 0)
(1.1 -8.94604e-16 0)
(1.1 -7.64775e-16 0)
(1.1 -7.79749e-16 0)
(1.1 -4.78338e-16 0)
(1.1 3.10453e-16 0)
(1.1 2.67602e-16 0)
(1.1 1.29287e-17 0)
(1.1 -3.84717e-16 0)
(1.1 -1.22489e-16 0)
(1.1 2.4112e-16 0)
(1.1 5.95092e-16 0)
(1.1 1.11305e-15 0)
(1.1 4.07649e-16 0)
(1.1 3.64098e-16 0)
(1.1 2.49607e-16 0)
(1.1 -3.81389e-15 0)
(1.1 -2.79144e-15 0)
(1.1 -2.23198e-15 0)
(1.1 -1.41249e-15 0)
(1.1 -1.22416e-15 0)
(1.1 -1.12642e-16 0)
(1.1 -6.10128e-17 0)
(1.1 1.62278e-16 0)
(1.1 3.41403e-16 0)
(1.1 2.07486e-16 0)
(1.1 7.42369e-17 0)
(1.1 -1.6359e-16 0)
(1.1 -4.03923e-16 0)
(1.1 -2.79309e-16 0)
(1.1 4.32422e-16 0)
(1.1 3.63831e-16 0)
(1.1 7.14434e-16 0)
(1.1 1.4107e-15 0)
(1.1 8.41223e-16 0)
(1.1 2.64915e-16 0)
(1.1 -4.25256e-17 0)
(1.1 2.85816e-16 0)
(1.1 7.71286e-16 0)
(1.1 9.67901e-16 0)
(1.1 2.51615e-16 0)
(1.1 5.57236e-16 0)
(1.1 4.98712e-16 0)
(1.1 -2.96276e-15 0)
(1.1 -2.78049e-15 0)
(1.1 -1.98822e-15 0)
(1.1 -1.92309e-15 0)
(1.1 -1.07323e-15 0)
(1.1 -5.31035e-16 0)
(1.1 -3.29364e-16 0)
(1.1 7.15938e-18 0)
(1.1 4.31384e-16 0)
(1.1 1.29557e-16 0)
(1.1 4.03582e-16 0)
(1.1 4.8644e-16 0)
(1.1 5.7848e-16 0)
(1.1 1.08493e-15 0)
(1.1 1.44028e-15 0)
(1.1 1.18098e-15 0)
(1.1 1.08189e-15 0)
(1.1 1.64086e-15 0)
(1.1 1.49761e-15 0)
(1.1 9.98776e-16 0)
(1.1 5.28098e-16 0)
(1.1 7.31109e-16 0)
(1.1 1.29952e-15 0)
(1.1 5.22376e-16 0)
(1.1 4.37826e-16 0)
(1.1 2.21133e-16 0)
(1.1 5.57141e-16 0)
(1.1 -1.36429e-15 0)
(1.1 -1.36887e-15 0)
(1.1 -1.15903e-15 0)
(1.1 -1.30579e-15 0)
(1.1 -1.21283e-15 0)
(1.1 -9.36802e-16 0)
(1.1 -5.74167e-16 0)
(1.1 -1.03343e-16 0)
(1.1 1.89089e-16 0)
(1.1 1.99707e-16 0)
(1.1 6.22909e-16 0)
(1.1 4.24493e-16 0)
(1.1 1.89577e-15 0)
(1.1 2.1442e-15 0)
(1.1 1.39634e-15 0)
(1.1 4.57304e-16 0)
(1.1 7.33049e-16 0)
(1.1 1.18885e-15 0)
(1.1 1.23011e-15 0)
(1.1 1.3774e-15 0)
(1.1 1.38353e-15 0)
(1.1 1.20382e-15 0)
(1.1 1.15235e-15 0)
(1.1 4.189e-16 0)
(1.1 5.43611e-16 0)
(1.1 6.21368e-17 0)
(1.1 2.80379e-16 0)
(1.1 -6.66345e-16 0)
(1.1 -1.45177e-15 0)
(1.1 -2.05509e-15 0)
(1.1 -2.44962e-15 0)
(1.1 -1.69622e-15 0)
(1.1 -1.72139e-15 0)
(1.1 -1.48689e-15 0)
(1.1 -8.89355e-16 0)
(1.1 -2.29472e-16 0)
(1.1 -1.41401e-17 0)
(1.1 -2.40216e-16 0)
(1.1 -3.56613e-16 0)
(1.1 3.96218e-16 0)
(1.1 8.32256e-16 0)
(1.1 3.7451e-16 0)
(1.1 2.74308e-16 0)
(1.1 1.56483e-16 0)
(1.1 7.78925e-16 0)
(1.1 6.81989e-16 0)
(1.1 9.97536e-16 0)
(1.1 1.58779e-15 0)
(1.1 1.38125e-15 0)
(1.1 5.79207e-16 0)
(1.1 6.73849e-16 0)
(1.1 9.14691e-16 0)
(1.1 5.0054e-16 0)
(1.1 2.27877e-16 0)
(1.1 -2.95357e-16 0)
(1.1 -1.06858e-15 0)
(1.1 -2.04158e-15 0)
(1.1 -2.54955e-15 0)
(1.1 -1.8077e-15 0)
(1.1 -1.1255e-15 0)
(1.1 -4.37308e-16 0)
(1.1 -7.30079e-16 0)
(1.1 -7.58339e-16 0)
(1.1 -6.98269e-17 0)
(1.1 -4.22001e-16 0)
(1.1 -5.71754e-16 0)
(1.1 -1.18021e-15 0)
(1.1 -8.47837e-16 0)
(1.1 -8.96468e-16 0)
(1.1 -3.67684e-16 0)
(1.1 -7.16511e-16 0)
(1.1 -5.1018e-17 0)
(1.1 9.65836e-16 0)
(1.1 1.26584e-15 0)
(1.1 1.14231e-15 0)
(1.1 9.06577e-16 0)
(1.1 5.23402e-16 0)
(1.1 8.10975e-16 0)
(1.1 8.76023e-16 0)
(1.1 3.7776e-16 0)
(1.1 1.83702e-16 0)
(1.1 5.49227e-16 0)
(1.1 4.47799e-16 0)
(1.1 2.89799e-16 0)
(1.1 3.36878e-16 0)
(1.1 -1.41e-16 0)
(1.1 -1.02559e-16 0)
(1.1 -9.15523e-17 0)
(1.1 -1.54732e-17 0)
(1.1 -3.43364e-16 0)
(1.1 -2.49408e-16 0)
(1.1 -1.73994e-16 0)
(1.1 -4.36603e-16 0)
(1.1 -7.45948e-16 0)
(1.1 -7.80083e-16 0)
(1.1 -7.07934e-16 0)
(1.1 -4.53983e-16 0)
(1.1 -4.14444e-16 0)
(1.1 -4.96707e-16 0)
(1.1 4.50901e-16 0)
(1.1 1.02581e-15 0)
(1.1 8.02899e-16 0)
(1.1 7.27399e-16 0)
(1.1 7.82561e-16 0)
(1.1 9.61917e-16 0)
(1.1 6.95513e-16 0)
(1.1 4.87689e-16 0)
(1.1 5.60568e-17 0)
(1.1 -5.79122e-16 0)
(1.1 -2.35659e-16 0)
(1.1 -4.024e-17 0)
(1.1 3.43514e-16 0)
(1.1 3.2421e-16 0)
(1.1 2.28294e-16 0)
(1.1 8.32838e-17 0)
(1.1 1.94683e-16 0)
(1.1 1.04569e-16 0)
(1.1 -5.91254e-17 0)
(1.1 -3.72854e-16 0)
(1.1 -3.13996e-16 0)
(1.1 -3.57594e-16 0)
(1.1 -2.48229e-16 0)
(1.1 3.71551e-17 0)
(1.1 -7.7942e-18 0)
(1.1 -3.59398e-16 0)
(1.1 -8.9455e-16 0)
(1.1 -4.04498e-16 0)
(1.1 -9.37838e-17 0)
(1.1 2.08316e-16 0)
(1.1 4.49337e-16 0)
(1.1 9.19075e-16 0)
(1.1 7.88391e-16 0)
(1.1 8.66633e-16 0)
(1.1 7.93321e-16 0)
(1.1 4.31607e-16 0)
(1.1 -1.10965e-15 0)
(1.1 -6.69847e-16 0)
(1.1 -5.87659e-17 0)
(1.1 1.61579e-16 0)
(1.1 2.51926e-16 0)
(1.1 -3.53706e-17 0)
(1.1 -2.57481e-16 0)
(1.1 -1.85918e-17 0)
(1.1 1.09724e-16 0)
(1.1 6.2491e-17 0)
(1.1 -2.74314e-16 0)
(1.1 1.26484e-16 0)
(1.1 1.8079e-16 0)
(1.1 6.20797e-16 0)
(1.1 5.40694e-16 0)
(1.1 1.90638e-16 0)
(1.1 -8.55859e-17 0)
(1.1 -5.66426e-16 0)
(1.1 -1.05051e-15 0)
(1.1 -7.54979e-16 0)
(1.1 -7.15899e-16 0)
(1.1 -3.46188e-16 0)
(1.1 4.52001e-16 0)
(1.1 1.3523e-16 0)
(1.1 2.08043e-16 0)
(1.1 4.21987e-16 0)
(1.1 2.61246e-16 0)
(1.1 -5.8327e-16 0)
(1.1 -2.72544e-16 0)
(1.1 -2.53635e-17 0)
(1.1 3.12044e-16 0)
(1.1 7.77695e-17 0)
(1.1 -4.77808e-16 0)
(1.1 -5.65972e-16 0)
(1.1 -7.47888e-16 0)
(1.1 -6.88235e-16 0)
(1.1 -9.8295e-16 0)
(1.1 -2.48759e-16 0)
(1.1 2.38227e-16 0)
(1.1 7.75849e-16 0)
(1.1 2.73903e-16 0)
(1.1 -9.57908e-17 0)
(1.1 -4.06896e-16 0)
(1.1 1.5984e-18 0)
(1.1 -3.136e-16 0)
(1.1 -1.15175e-15 0)
(1.1 -9.48182e-16 0)
(1.1 -1.13274e-15 0)
(1.1 -5.65628e-16 0)
(1.1 -5.73642e-16 0)
(1.1 -5.37287e-16 0)
(1.1 -2.03882e-16 0)
(1.1 -1.59827e-16 0)
(1.1 2.32702e-17 0)
(1.1 -3.80552e-16 0)
(1.1 -1.07394e-15 0)
(1.1 -1.47228e-15 0)
(1.1 -1.1092e-15 0)
(1.1 -1.04646e-15 0)
(1.1 -1.05655e-15 0)
(1.1 -1.17995e-15 0)
(1.1 -1.21912e-15 0)
(1.1 -9.48632e-16 0)
(1.1 -8.70801e-16 0)
(1.1 -6.03092e-16 0)
(1.1 -5.50776e-16 0)
(1.1 -2.80423e-16 0)
(1.1 -3.30115e-16 0)
(1.1 -4.10499e-16 0)
(1.1 -6.85167e-16 0)
(1.1 -7.34369e-16 0)
(1.1 -9.68277e-16 0)
(1.1 -5.04778e-16 0)
(1.1 -1.02103e-15 0)
(1.1 -7.4214e-16 0)
(1.1 -6.62431e-16 0)
(1.1 -1.0613e-15 0)
(1.1 -9.87473e-16 0)
(1.1 -9.6389e-16 0)
(1.1 -6.91634e-16 0)
(1.1 8.05904e-19 0)
(1.1 9.64092e-16 0)
(1.1 3.4758e-16 0)
(1.1 -1.84483e-16 0)
(1.1 -5.35213e-16 0)
(1.1 -9.78155e-16 0)
(1.1 -1.40005e-15 0)
(1.1 -1.2958e-15 0)
(1.1 -8.23285e-16 0)
(1.1 -7.12012e-16 0)
(1.1 -3.45869e-16 0)
(1.1 -5.2119e-16 0)
(1.1 -5.51783e-16 0)
(1.1 -5.62469e-16 0)
(1.1 8.24418e-17 0)
(1.1 -1.21841e-16 0)
(1.1 -3.54014e-16 0)
(1.1 -7.41125e-16 0)
(1.1 -4.99842e-16 0)
(1.1 -4.40166e-16 0)
(1.1 -7.68757e-16 0)
(1.1 -5.57132e-16 0)
(1.1 -5.50165e-16 0)
(1.1 -6.75133e-16 0)
(1.1 -8.06022e-16 0)
(1.1 -1.00456e-15 0)
(1.1 -7.91321e-16 0)
(1.1 -5.71977e-16 0)
(1.1 6.2144e-16 0)
(1.1 5.95664e-16 0)
(1.1 2.96064e-16 0)
(1.1 -4.53821e-16 0)
(1.1 -5.85885e-16 0)
(1.1 -5.26299e-16 0)
(1.1 -9.9656e-16 0)
(1.1 -9.33185e-16 0)
(1.1 -7.05195e-16 0)
(1.1 -4.95195e-16 0)
(1.1 -4.9121e-17 0)
(1.1 3.342e-16 0)
(1.1 -2.91832e-16 0)
(1.1 -2.42224e-16 0)
(1.1 -6.05874e-16 0)
(1.1 -7.85217e-16 0)
(1.1 -7.24104e-16 0)
(1.1 -1.33087e-16 0)
(1.1 -4.50898e-16 0)
(1.1 -4.59902e-16 0)
(1.1 -5.73358e-16 0)
(1.1 -8.0782e-16 0)
(1.1 -5.75426e-16 0)
(1.1 -5.136e-16 0)
(1.1 -7.89665e-16 0)
(1.1 -8.18608e-16 0)
(1.1 -9.73933e-16 0)
(1.1 4.12584e-16 0)
(1.1 3.76014e-16 0)
(1.1 -4.56386e-17 0)
(1.1 -1.85058e-16 0)
(1.1 -4.43219e-16 0)
(1.1 -1.76164e-16 0)
(1.1 -1.22378e-16 0)
(1.1 -4.26092e-16 0)
(1.1 -2.41214e-16 0)
(1.1 -9.23344e-17 0)
(1.1 3.02159e-16 0)
(1.1 8.71866e-16 0)
(1.1 4.87595e-16 0)
(1.1 -3.24232e-16 0)
(1.1 -1.50424e-16 0)
(1.1 -2.62094e-16 0)
(1.1 -3.1947e-16 0)
(1.1 -2.51886e-16 0)
(1.1 -2.31369e-16 0)
(1.1 -2.73492e-17 0)
(1.1 -2.6869e-16 0)
(1.1 -9.09834e-16 0)
(1.1 -7.73238e-16 0)
(1.1 -3.16447e-16 0)
(1.1 -6.20005e-16 0)
(1.1 -7.42306e-16 0)
(1.1 -4.52431e-16 0)
(1.1 2.262e-16 0)
(1.1 1.21488e-16 0)
(1.1 -1.86207e-17 0)
(1.1 -2.58197e-16 0)
(1.1 -4.92146e-16 0)
(1.1 -1.51938e-17 0)
(1.1 5.21462e-16 0)
(1.1 3.66414e-16 0)
(1.1 3.0229e-16 0)
(1.1 1.65085e-16 0)
(1.1 1.4189e-16 0)
(1.1 6.20409e-16 0)
(1.1 8.05409e-16 0)
(1.1 1.90737e-16 0)
(1.1 5.07429e-16 0)
(1.1 5.48514e-16 0)
(1.1 5.77688e-16 0)
(1.1 8.70625e-17 0)
(1.1 2.80166e-16 0)
(1.1 9.67583e-17 0)
(1.1 5.00256e-18 0)
(1.1 -5.82661e-16 0)
(1.1 -7.73984e-16 0)
(1.1 -5.15965e-16 0)
(1.1 5.03646e-17 0)
(1.1 -2.14029e-16 0)
(1.1 -7.34688e-17 0)
(1.1 -1.22792e-16 0)
(1.1 2.01317e-17 0)
(1.1 2.58527e-16 0)
(1.1 2.75485e-16 0)
(1.1 2.78305e-16 0)
(1.1 3.99874e-16 0)
(1.1 2.92437e-16 0)
(1.1 2.82788e-16 0)
(1.1 2.40716e-16 0)
(1.1 3.00928e-16 0)
(1.1 3.50869e-16 0)
(1.1 3.31371e-16 0)
(1.1 1.50084e-16 0)
(1.1 -1.28712e-16 0)
(1.1 7.56253e-17 0)
(1.1 7.80399e-16 0)
(1.1 6.5468e-16 0)
(1.1 5.85628e-16 0)
(1.1 9.44385e-16 0)
(1.1 5.71732e-16 0)
(1.1 3.21129e-16 0)
(1.1 -1.41969e-16 0)
(1.1 -3.18864e-16 0)
(1.1 -2.29545e-16 0)
(1.1 2.84436e-16 0)
(1.1 3.70052e-16 0)
(1.1 2.72435e-16 0)
(1.1 1.28527e-16 0)
(1.1 3.71852e-16 0)
(1.1 5.34035e-16 0)
(1.1 8.22676e-16 0)
(1.1 8.94076e-16 0)
(1.1 7.05033e-16 0)
(1.1 7.04043e-16 0)
(1.1 8.02615e-16 0)
(1.1 6.79263e-16 0)
(1.1 7.96718e-16 0)
(1.1 8.30922e-16 0)
(1.1 5.52797e-16 0)
(1.1 3.86052e-16 0)
(1.1 7.35866e-17 0)
(1.1 -2.14918e-16 0)
(1.1 1.88701e-16 0)
(1.1 3.17092e-16 0)
(1.1 5.93248e-16 0)
(1.1 5.63939e-16 0)
(1.1 9.52916e-16 0)
(1.1 1.10625e-15 0)
(1.1 6.90812e-16 0)
(1.1 4.48657e-16 0)
(1.1 7.5593e-16 0)
(1.1 5.53049e-16 0)
(1.1 5.94106e-16 0)
(1.1 5.00447e-16 0)
(1.1 -9.49014e-19 0)
(1.1 1.29472e-16 0)
(1.1 4.2979e-16 0)
(1.1 8.19742e-16 0)
(1.1 1.1862e-15 0)
(1.1 9.80934e-16 0)
(1.1 1.07792e-15 0)
(1.1 1.21616e-15 0)
(1.1 1.00416e-15 0)
(1.1 7.01816e-16 0)
(1.1 5.78068e-16 0)
(1.1 3.73914e-17 0)
(1.1 2.9866e-16 0)
(1.1 6.49333e-17 0)
(1.1 -4.85557e-17 0)
(1.1 2.604e-17 0)
(1.1 4.50563e-16 0)
(1.1 4.11979e-16 0)
(1.1 2.54554e-16 0)
(1.1 6.17944e-16 0)
(1.1 1.54222e-15 0)
(1.1 1.31061e-15 0)
(1.1 1.4109e-15 0)
(1.1 1.72145e-15 0)
(1.1 1.32461e-15 0)
(1.1 7.59589e-16 0)
(1.1 5.28451e-16 0)
(1.1 2.08753e-16 0)
(1.1 6.37514e-16 0)
(1.1 1.5453e-15 0)
(1.1 1.67148e-15 0)
(1.1 1.75783e-15 0)
(1.1 1.2384e-15 0)
(1.1 7.31428e-16 0)
(1.1 6.18657e-16 0)
(1.1 6.57215e-16 0)
(1.1 4.86118e-16 0)
(1.1 1.36695e-16 0)
(1.1 -5.95624e-16 0)
(1.1 -4.79917e-16 0)
(1.1 -5.55836e-16 0)
(1.1 1.73464e-16 0)
(1.1 2.99239e-16 0)
(1.1 2.93038e-16 0)
(1.1 5.31955e-16 0)
(1.1 4.985e-16 0)
(1.1 2.39233e-16 0)
(1.1 5.18522e-16 0)
(1.1 8.74585e-16 0)
(1.1 1.67512e-15 0)
(1.1 1.46448e-15 0)
(1.1 1.56187e-15 0)
(1.1 9.93949e-16 0)
(1.1 6.08054e-16 0)
(1.1 3.65792e-16 0)
(1.1 5.85368e-16 0)
(1.1 6.96101e-16 0)
(1.1 7.22574e-16 0)
(1.1 6.66589e-16 0)
(1.1 8.86473e-16 0)
(1.1 3.80028e-16 0)
(1.1 -4.95071e-16 0)
(1.1 -3.17004e-16 0)
(1.1 -5.92678e-16 0)
(1.1 -9.8191e-16 0)
(1.1 -1.08871e-15 0)
(1.1 -1.35139e-15 0)
(1.1 -6.83655e-16 0)
(1.1 -6.69732e-16 0)
(1.1 -2.01285e-16 0)
(1.1 -1.68378e-16 0)
(1.1 1.66814e-16 0)
(1.1 6.1767e-16 0)
(1.1 4.18759e-16 0)
(1.1 4.59369e-16 0)
(1.1 1.08887e-15 0)
(1.1 1.04671e-15 0)
(1.1 6.7497e-16 0)
(1.1 6.27155e-16 0)
(1.1 7.46392e-16 0)
(1.1 4.37439e-16 0)
(1.1 1.0756e-15 0)
(1.1 9.50682e-16 0)
(1.1 7.50736e-16 0)
(1.1 6.46645e-16 0)
(1.1 1.70743e-16 0)
(1.1 7.66834e-17 0)
(1.1 5.24506e-17 0)
(1.1 -7.12153e-16 0)
(1.1 -7.13439e-16 0)
(1.1 -7.89139e-16 0)
(1.1 -1.36854e-15 0)
(1.1 -9.29134e-16 0)
(1.1 -7.90996e-16 0)
(1.1 -6.94806e-16 0)
(1.1 -7.63534e-16 0)
(1.1 -6.08336e-16 0)
(1.1 -7.04739e-16 0)
(1.1 -1.83916e-16 0)
(1.1 3.92581e-16 0)
(1.1 4.93569e-16 0)
(1.1 3.08555e-16 0)
(1.1 8.03557e-16 0)
(1.1 5.60293e-16 0)
(1.1 6.59742e-17 0)
(1.1 -2.47725e-16 0)
(1.1 3.4414e-16 0)
(1.1 4.11077e-16 0)
(1.1 2.06867e-15 0)
(1.1 1.73053e-15 0)
(1.1 1.40608e-15 0)
(1.1 9.93332e-16 0)
(1.1 5.92939e-16 0)
(1.1 3.9826e-16 0)
(1.1 3.72858e-16 0)
(1.1 4.03076e-16 0)
(1.1 1.89498e-16 0)
(1.1 2.0683e-16 0)
(1.1 1.16627e-16 0)
(1.1 -2.87364e-16 0)
(1.1 -4.26058e-16 0)
(1.1 -4.34392e-16 0)
(1.1 -3.37547e-16 0)
(1.1 -3.7317e-16 0)
(1.1 -5.16705e-16 0)
(1.1 -1.64786e-16 0)
(1.1 3.50175e-18 0)
(1.1 1.63243e-16 0)
(1.1 -4.01773e-16 0)
(1.1 -1.62299e-17 0)
(1.1 -4.50069e-16 0)
(1.1 -3.45251e-16 0)
(1.1 -8.2685e-17 0)
(1.1 3.4878e-16 0)
(1.1 8.14589e-16 0)
(1.1 2.10656e-15 0)
(1.1 1.43112e-15 0)
(1.1 6.75353e-16 0)
(1.1 6.07976e-16 0)
(1.1 5.4246e-17 0)
(1.1 -1.58398e-17 0)
(1.1 1.36176e-16 0)
(1.1 4.15792e-16 0)
(1.1 4.40542e-16 0)
(1.1 5.38354e-16 0)
(1.1 4.95073e-16 0)
(1.1 2.14546e-16 0)
(1.1 -2.66744e-16 0)
(1.1 -2.68074e-18 0)
(1.1 2.74452e-16 0)
(1.1 -9.87003e-17 0)
(1.1 -1.01758e-16 0)
(1.1 -4.85633e-16 0)
(1.1 -2.71751e-16 0)
(1.1 -2.64702e-16 0)
(1.1 -3.24959e-16 0)
(1.1 -3.73993e-16 0)
(1.1 -2.20991e-16 0)
(1.1 -1.74222e-17 0)
(1.1 4.58833e-16 0)
(1.1 2.28986e-16 0)
(1.1 9.81164e-17 0)
(1.1 1.14994e-15 0)
(1.1 1.04894e-15 0)
(1.1 7.29328e-16 0)
(1.1 5.19365e-16 0)
(1.1 5.77911e-16 0)
(1.1 5.31281e-16 0)
(1.1 2.64886e-16 0)
(1.1 6.87659e-16 0)
(1.1 3.23279e-16 0)
(1.1 5.95941e-16 0)
(1.1 3.1625e-16 0)
(1.1 4.58984e-16 0)
(1.1 2.27994e-16 0)
(1.1 4.82675e-16 0)
(1.1 1.46939e-16 0)
(1.1 -2.03263e-16 0)
(1.1 3.85272e-17 0)
(1.1 -1.60516e-16 0)
(1.1 -9.34894e-17 0)
(1.1 -7.27657e-16 0)
(1.1 -6.293e-16 0)
(1.1 -1.62978e-16 0)
(1.1 -9.48353e-18 0)
(1.1 1.10385e-16 0)
(1.1 4.98918e-16 0)
(1.1 6.95335e-17 0)
(1.1 -1.53432e-16 0)
(1.1 3.86001e-16 0)
(1.1 4.6703e-16 0)
(1.1 4.31343e-16 0)
(1.1 3.9315e-16 0)
(1.1 6.71838e-16 0)
(1.1 8.42859e-16 0)
(1.1 1.05939e-15 0)
(1.1 8.36548e-16 0)
(1.1 6.17607e-16 0)
(1.1 5.64858e-16 0)
(1.1 4.83036e-16 0)
(1.1 2.85049e-16 0)
(1.1 8.53309e-16 0)
(1.1 9.63638e-16 0)
(1.1 3.88486e-16 0)
(1.1 2.15457e-16 0)
(1.1 4.89956e-16 0)
(1.1 5.14329e-16 0)
(1.1 2.67693e-17 0)
(1.1 2.86777e-17 0)
(1.1 1.57216e-16 0)
(1.1 4.60695e-17 0)
(1.1 -3.11636e-16 0)
(1.1 -1.50765e-16 0)
(1.1 -3.60741e-16 0)
(1.1 -2.13767e-16 0)
(1.1 -1.73545e-16 0)
(1.1 8.66879e-16 0)
(1.1 9.16767e-16 0)
(1.1 1.28303e-15 0)
(1.1 1.41361e-15 0)
(1.1 1.19823e-15 0)
(1.1 1.30987e-15 0)
(1.1 1.62674e-15 0)
(1.1 1.39226e-15 0)
(1.1 1.60721e-15 0)
(1.1 1.373e-15 0)
(1.1 1.15315e-15 0)
(1.1 1.27512e-15 0)
(1.1 1.0663e-15 0)
(1.1 8.25375e-16 0)
(1.1 6.04684e-16 0)
(1.1 7.95365e-16 0)
(1.1 1.41952e-15 0)
(1.1 1.2196e-15 0)
(1.1 6.5476e-16 0)
(1.1 1.15732e-15 0)
(1.1 1.09684e-15 0)
(1.1 5.42921e-16 0)
(1.1 -4.80851e-17 0)
(1.1 -3.24698e-16 0)
(1.1 -5.96706e-16 0)
(1.1 -7.24903e-16 0)
(1.1 -7.26959e-16 0)
(1.1 7.21487e-16 0)
(1.1 7.2627e-16 0)
(1.1 1.03804e-15 0)
(1.1 1.18118e-15 0)
(1.1 1.44649e-15 0)
(1.1 1.78784e-15 0)
(1.1 1.65197e-15 0)
(1.1 1.69473e-15 0)
(1.1 1.94236e-15 0)
(1.1 1.88434e-15 0)
(1.1 1.50602e-15 0)
(1.1 1.4247e-15 0)
(1.1 1.24848e-15 0)
(1.1 1.07202e-15 0)
(1.1 1.05727e-15 0)
(1.1 1.05984e-15 0)
(1.1 1.02181e-15 0)
(1.1 1.65274e-15 0)
(1.1 1.52684e-15 0)
(1.1 1.53643e-15 0)
(1.1 9.84484e-16 0)
(1.1 1.47341e-16 0)
(1.1 -1.92647e-16 0)
(1.1 -5.79031e-16 0)
(1.1 -8.43705e-16 0)
(1.1 -1.23817e-15 0)
(1.1 -1.07445e-15 0)
(1.1 9.3851e-16 0)
(1.1 7.35493e-16 0)
(1.1 1.05247e-15 0)
(1.1 1.1119e-15 0)
(1.1 1.5129e-15 0)
(1.1 1.74533e-15 0)
(1.1 1.58399e-15 0)
(1.1 1.95756e-15 0)
(1.1 2.06694e-15 0)
(1.1 1.87718e-15 0)
(1.1 1.69881e-15 0)
(1.1 1.33848e-15 0)
(1.1 1.47324e-15 0)
(1.1 1.43792e-15 0)
(1.1 1.54236e-15 0)
(1.1 1.43585e-15 0)
(1.1 9.92844e-16 0)
(1.1 9.69824e-16 0)
(1.1 6.97239e-16 0)
(1.1 4.30614e-16 0)
(1.1 1.76967e-17 0)
(1.1 -6.39211e-16 0)
(1.1 -5.95859e-16 0)
(1.1 -9.33221e-16 0)
(1.1 -1.53286e-15 0)
(1.1 -1.76155e-15 0)
(1.1 -1.43513e-15 0)
(1.1 8.08436e-16 0)
(1.1 1.19935e-15 0)
(1.1 1.13542e-15 0)
(1.1 1.00796e-15 0)
(1.1 4.66962e-16 0)
(1.1 3.07304e-16 0)
(1.1 8.60586e-16 0)
(1.1 1.07317e-15 0)
(1.1 1.3383e-15 0)
(1.1 1.21323e-15 0)
(1.1 1.55191e-15 0)
(1.1 1.54869e-15 0)
(1.1 1.40263e-15 0)
(1.1 1.44567e-15 0)
(1.1 2.07552e-15 0)
(1.1 1.93595e-15 0)
(1.1 1.82035e-15 0)
(1.1 1.06963e-15 0)
(1.1 4.31875e-16 0)
(1.1 -3.6334e-16 0)
(1.1 -3.486e-16 0)
(1.1 -6.71733e-16 0)
(1.1 -1.06689e-15 0)
(1.1 -1.64774e-15 0)
(1.1 -1.54083e-15 0)
(1.1 -1.78221e-15 0)
(1.1 -1.64074e-15 0)
(1.1 1.06428e-15 0)
(1.1 1.17422e-15 0)
(1.1 8.6358e-16 0)
(1.1 9.04721e-16 0)
(1.1 9.16277e-16 0)
(1.1 8.32655e-16 0)
(1.1 8.90074e-16 0)
(1.1 8.98237e-16 0)
(1.1 4.12571e-16 0)
(1.1 6.13328e-16 0)
(1.1 1.18979e-15 0)
(1.1 1.1237e-15 0)
(1.1 8.09992e-16 0)
(1.1 1.25513e-15 0)
(1.1 1.68777e-15 0)
(1.1 1.6856e-15 0)
(1.1 1.52626e-15 0)
(1.1 1.02843e-15 0)
(1.1 7.20049e-16 0)
(1.1 3.8725e-16 0)
(1.1 7.84783e-17 0)
(1.1 -3.30883e-16 0)
(1.1 -8.80361e-16 0)
(1.1 -1.37177e-15 0)
(1.1 -1.21219e-15 0)
(1.1 -9.46804e-16 0)
(1.1 -8.66366e-16 0)
(1.1 1.76201e-15 0)
(1.1 1.94018e-15 0)
(1.1 1.37924e-15 0)
(1.1 1.07881e-15 0)
(1.1 8.48717e-16 0)
(1.1 6.87673e-16 0)
(1.1 7.35997e-16 0)
(1.1 7.38803e-16 0)
(1.1 5.95318e-16 0)
(1.1 6.77415e-16 0)
(1.1 6.35351e-16 0)
(1.1 6.38612e-16 0)
(1.1 5.08254e-16 0)
(1.1 3.95913e-16 0)
(1.1 5.06234e-16 0)
(1.1 6.10531e-16 0)
(1.1 5.78306e-16 0)
(1.1 2.36762e-16 0)
(1.1 1.25183e-16 0)
(1.1 2.66358e-16 0)
(1.1 3.18101e-16 0)
(1.1 5.07969e-17 0)
(1.1 -7.31934e-16 0)
(1.1 -6.67649e-16 0)
(1.1 -7.9442e-16 0)
(1.1 -2.36334e-16 0)
(1.1 1.67439e-16 0)
(1.1 1.94208e-15 0)
(1.1 2.25187e-15 0)
(1.1 2.04002e-15 0)
(1.1 1.82478e-15 0)
(1.1 1.65522e-15 0)
(1.1 1.44406e-15 0)
(1.1 1.36445e-15 0)
(1.1 9.02821e-16 0)
(1.1 9.52649e-16 0)
(1.1 6.14596e-16 0)
(1.1 2.11873e-16 0)
(1.1 1.91919e-16 0)
(1.1 1.52745e-16 0)
(1.1 -1.49018e-16 0)
(1.1 3.51968e-17 0)
(1.1 2.01252e-16 0)
(1.1 -2.92849e-16 0)
(1.1 -4.49444e-17 0)
(1.1 1.26082e-16 0)
(1.1 6.23783e-17 0)
(1.1 -2.77911e-17 0)
(1.1 4.26453e-17 0)
(1.1 -1.84705e-16 0)
(1.1 8.50447e-17 0)
(1.1 4.58891e-16 0)
(1.1 1.27493e-15 0)
(1.1 8.03701e-16 0)
(1.1 1.96756e-15 0)
(1.1 1.71473e-15 0)
(1.1 1.71137e-15 0)
(1.1 1.75866e-15 0)
(1.1 1.87432e-15 0)
(1.1 1.57705e-15 0)
(1.1 1.32124e-15 0)
(1.1 8.75881e-16 0)
(1.1 6.93919e-16 0)
(1.1 2.44409e-16 0)
(1.1 2.74766e-16 0)
(1.1 4.56923e-16 0)
(1.1 1.5083e-16 0)
(1.1 -3.5879e-16 0)
(1.1 -3.29408e-16 0)
(1.1 -2.80886e-16 0)
(1.1 -1.26382e-15 0)
(1.1 -1.21951e-15 0)
(1.1 -8.00897e-16 0)
(1.1 -7.21818e-16 0)
(1.1 -6.99123e-16 0)
(1.1 -2.98129e-16 0)
(1.1 5.02728e-16 0)
(1.1 9.51801e-16 0)
(1.1 1.65204e-15 0)
(1.1 2.28635e-15 0)
(1.1 1.74027e-15 0)
(1.1 7.04692e-16 0)
(1.1 4.13619e-16 0)
(1.1 7.71629e-16 0)
(1.1 8.5636e-16 0)
(1.1 8.44686e-16 0)
(1.1 8.91361e-16 0)
(1.1 6.34636e-16 0)
(1.1 4.96402e-16 0)
(1.1 3.23065e-16 0)
(1.1 -7.20928e-17 0)
(1.1 -2.01732e-17 0)
(1.1 2.5517e-16 0)
(1.1 -2.6732e-17 0)
(1.1 -2.15862e-16 0)
(1.1 -3.09647e-16 0)
(1.1 -5.95566e-16 0)
(1.1 -1.1603e-15 0)
(1.1 -1.95941e-15 0)
(1.1 -2.16504e-15 0)
(1.1 -1.65123e-15 0)
(1.1 -9.38522e-16 0)
(1.1 -5.71523e-16 0)
(1.1 5.49575e-16 0)
(1.1 1.10319e-15 0)
(1.1 1.63657e-15 0)
(1.1 1.36409e-15 0)
(1.1 1.04823e-15 0)
(1.1 -1.68463e-16 0)
(1.1 -4.24559e-16 0)
(1.1 -1.49113e-16 0)
(1.1 2.84188e-17 0)
(1.1 9.69912e-17 0)
(1.1 6.79532e-17 0)
(1.1 2.27106e-16 0)
(1.1 1.00737e-16 0)
(1.1 -8.51042e-18 0)
(1.1 -1.56436e-17 0)
(1.1 -2.69423e-16 0)
(1.1 -4.13857e-16 0)
(1.1 2.0799e-16 0)
(1.1 5.40967e-16 0)
(1.1 1.45666e-16 0)
(1.1 -1.45421e-16 0)
(1.1 -4.70451e-16 0)
(1.1 -1.23855e-15 0)
(1.1 -1.58081e-15 0)
(1.1 -1.45284e-15 0)
(1.1 -6.76725e-16 0)