/*--------------------------------*- C++ -*----------------------------------*\
  =========                 |
  \\      /  F ield         | OpenFOAM: The Open Source CFD Toolbox
   \\    /   O peration     | Website:  https://openfoam.org
    \\  /    A nd           | Version:  7
     \\/     M anipulation  |
\*---------------------------------------------------------------------------*/
FoamFile
{
    version     2.0;
    format      ascii;
    class       volVectorField;
    location    "0.1";
    object      U;
}
// * * * * * * * * * * * * * * * * * * * * * * * * * * * * * * * * * * * * * //

dimensions      [0 1 -1 0 0 0 0];

internalField   nonuniform List<vector> 
3225
(
(0.270947 0.100129 0)
(1.1 -6.04546e-16 0)
(1.1 7.66599e-16 0)
(1.1 -6.65762e-16 0)
(1.1 -5.08221e-16 0)
(1.1 -4.81646e-16 0)
(1.1 -4.73244e-16 0)
(1.1 -1.94249e-16 0)
(1.1 -1.52292e-15 0)
(1.1 -4.55102e-16 0)
(1.1 1.29504e-16 0)
(1.1 -5.93832e-16 0)
(1.1 -3.9134e-17 0)
(1.1 1.59451e-16 0)
(1.1 -6.94138e-16 0)
(1.1 3.29645e-17 0)
(1.1 -9.24594e-17 0)
(1.1 -9.06043e-16 0)
(1.1 -5.98039e-16 0)
(1.1 -5.95081e-16 0)
(1.1 -4.47664e-16 0)
(1.1 -2.19618e-16 0)
(1.1 -3.55532e-17 0)
(1.1 7.46547e-16 0)
(1.05221 0.000962092 0)
(0.666685 0.00912813 0)
(0.319175 0.0142773 0)
(1.1 2.69251e-16 0)
(1.1 3.4458e-16 0)
(1.1 -1.17819e-15 0)
(1.1 -1.34879e-15 0)
(1.1 -3.1688e-16 0)
(1.1 7.77839e-16 0)
(1.1 -5.4411e-16 0)
(1.1 8.29733e-16 0)
(1.1 9.21505e-16 0)
(1.1 1.78017e-16 0)
(1.1 1.87057e-16 0)
(1.1 -6.10238e-16 0)
(1.1 9.92275e-16 0)
(1.1 1.89746e-15 0)
(1.1 1.4277e-15 0)
(1.1 3.47999e-15 0)
(1.1 2.09975e-15 0)
(1.1 6.46341e-16 0)
(1.1 2.79792e-16 0)
(1.1 -1.4038e-15 0)
(1.1 -9.22856e-16 0)
(1.1 1.11576e-15 0)
(1.1 1.09158e-15 0)
(1.1 1.45714e-15 0)
(1.1 -3.51957e-17 0)
(1.1 -1.43813e-15 0)
(1.1 -1.53219e-15 0)
(1.1 -1.08514e-15 0)
(1.1 1.32092e-15 0)
(1.1 -8.92677e-16 0)
(1.1 -7.78512e-16 0)
(1.1 3.37498e-16 0)
(1.1 3.52189e-16 0)
(1.1 5.47521e-16 0)
(1.1 9.33263e-17 0)
(1.1 1.97e-16 0)
(1.1 1.11e-15 0)
(1.1 -7.68903e-16 0)
(1.1 1.92681e-16 0)
(1.1 1.49682e-15 0)
(1.1 1.87529e-15 0)
(1.1 2.64737e-15 0)
(1.1 1.79391e-15 0)
(1.1 8.94661e-16 0)
(1.1 1.8774e-16 0)
(1.1 -8.02376e-16 0)
(1.1 -7.56031e-16 0)
(1.1 1.42798e-15 0)
(1.1 6.22128e-16 0)
(1.1 1.40156e-15 0)
(1.1 9.38123e-16 0)
(1.1 -1.18758e-15 0)
(1.1 -9.77101e-16 0)
(1.1 -7.87311e-16 0)
(1.1 9.68524e-16 0)
(1.1 -6.14607e-16 0)
(1.1 -1.12526e-16 0)
(1.1 1.06607e-15 0)
(1.1 1.48581e-15 0)
(1.1 6.01366e-16 0)
(1.1 4.07714e-16 0)
(1.1 -2.49696e-16 0)
(1.1 4.68096e-16 0)
(1.1 -9.92796e-16 0)
(1.1 8.3386e-17 0)
(1.1 1.34899e-15 0)
(1.1 1.71873e-15 0)
(1.1 2.58094e-15 0)
(1.1 1.07838e-15 0)
(1.1 1.27375e-15 0)
(1.1 1.27847e-16 0)
(1.1 -1.00606e-15 0)
(1.1 -3.30798e-16 0)
(1.1 9.43105e-16 0)
(1.1 1.06556e-15 0)
(1.1 6.91566e-16 0)
(1.1 1.03002e-15 0)
(1.1 -2.42563e-16 0)
(1.1 -5.89678e-16 0)
(1.1 2.14981e-17 0)
(1.1 1.19089e-15 0)
(1.1 -3.66326e-16 0)
(1.1 -2.03407e-16 0)
(1.1 1.24374e-15 0)
(1.1 6.88111e-16 0)
(1.1 4.09003e-16 0)
(1.1 8.80858e-16 0)
(1.1 -3.04823e-16 0)
(1.1 7.52813e-16 0)
(1.1 -1.34814e-15 0)
(1.1 2.39892e-16 0)
(1.1 2.73521e-16 0)
(1.1 1.04316e-15 0)
(1.1 1.59544e-15 0)
(1.1 6.65752e-16 0)
(1.1 1.62434e-15 0)
(1.1 3.64815e-17 0)
(1.1 -2.97248e-16 0)
(1.1 3.12857e-17 0)
(1.1 7.37541e-16 0)
(1.1 1.38077e-15 0)
(1.1 9.90451e-16 0)
(1.1 1.21729e-15 0)
(1.1 -7.05823e-17 0)
(1.1 -5.99001e-16 0)
(1.1 -9.75043e-17 0)
(1.1 5.10103e-16 0)
(1.1 -8.77358e-16 0)
(1.1 -8.0122e-16 0)
(1.1 6.5848e-16 0)
(1.1 -5.69234e-16 0)
(1.1 3.77498e-16 0)
(1.1 8.48518e-16 0)
(1.1 5.88751e-17 0)
(1.1 8.93108e-16 0)
(1.1 -6.89477e-16 0)
(1.1 -5.8446e-17 0)
(1.1 -2.37764e-17 0)
(1.1 1.08058e-16 0)
(1.1 4.47632e-16 0)
(1.1 9.92493e-16 0)
(1.1 1.33271e-15 0)
(1.1 4.94294e-16 0)
(1.1 -8.13159e-16 0)
(1.1 -1.15025e-15 0)
(1.1 2.9065e-16 0)
(1.1 1.22252e-15 0)
(1.1 1.66453e-15 0)
(1.1 8.13145e-16 0)
(1.1 -1.81949e-16 0)
(1.1 -3.08568e-16 0)
(1.1 -4.10502e-16 0)
(1.1 6.98303e-16 0)
(1.1 -1.88466e-15 0)
(1.1 -2.50426e-16 0)
(1.1 7.60177e-16 0)
(1.1 -1.92053e-16 0)
(1.1 9.44555e-16 0)
(1.1 8.73584e-16 0)
(1.1 3.19246e-16 0)
(1.1 9.5084e-16 0)
(1.1 7.13895e-16 0)
(1.1 -1.43814e-16 0)
(1.1 -8.53654e-16 0)
(1.1 2.35042e-16 0)
(1.1 -1.20528e-16 0)
(1.1 1.08801e-15 0)
(1.1 8.48311e-16 0)
(1.1 9.17289e-16 0)
(1.1 -1.10681e-15 0)
(1.1 -1.52046e-15 0)
(1.1 -2.72108e-16 0)
(1.1 1.2758e-15 0)
(1.1 4.81689e-16 0)
(1.1 6.13362e-16 0)
(1.1 3.26006e-16 0)
(1.1 -2.1753e-16 0)
(1.1 -1.06956e-15 0)
(1.1 1.25628e-15 0)
(1.1 -1.85639e-15 0)
(1.1 3.20183e-16 0)
(1.1 5.6739e-16 0)
(1.1 2.19269e-16 0)
(1.1 6.59517e-16 0)
(1.1 7.62249e-16 0)
(1.1 8.26995e-16 0)
(1.1 7.74254e-16 0)
(1.1 6.99267e-16 0)
(1.1 -5.51323e-16 0)
(1.1 -1.38044e-15 0)
(1.1 -8.87051e-17 0)
(1.1 1.35691e-16 0)
(1.1 5.90297e-17 0)
(1.1 3.62409e-16 0)
(1.1 5.92281e-16 0)
(1.1 -3.3304e-16 0)
(1.1 -2.23142e-15 0)
(1.1 -4.96784e-16 0)
(1.1 5.30217e-16 0)
(1.1 2.45187e-16 0)
(1.1 1.36988e-15 0)
(1.1 7.25941e-16 0)
(1.1 -2.5768e-16 0)
(1.1 -1.41267e-15 0)
(1.1 1.09473e-16 0)
(1.1 -8.32976e-16 0)
(1.1 1.25251e-16 0)
(1.1 9.55725e-16 0)
(1.1 3.41072e-16 0)
(1.1 7.00173e-16 0)
(1.1 7.06787e-16 0)
(1.1 3.00673e-16 0)
(1.1 -8.11666e-16 0)
(1.1 1.58019e-17 0)
(1.1 -8.90053e-17 0)
(1.1 -7.37351e-16 0)
(1.1 -1.00233e-15 0)
(1.1 -4.56536e-16 0)
(1.1 2.66236e-17 0)
(1.1 4.34457e-19 0)
(1.1 4.14702e-16 0)
(1.1 -1.33289e-16 0)
(1.1 -1.84357e-15 0)
(1.1 -1.05834e-15 0)
(1.1 -5.93395e-16 0)
(1.1 2.3304e-16 0)
(1.1 8.4661e-16 0)
(1.1 3.32095e-16 0)
(1.1 1.48143e-16 0)
(1.1 -4.2031e-16 0)
(1.1 1.30069e-16 0)
(1.1 -9.04412e-16 0)
(1.1 5.52041e-17 0)
(1.1 2.79274e-16 0)
(1.1 -3.24063e-16 0)
(1.1 6.96498e-16 0)
(1.1 1.1087e-15 0)
(1.1 -3.9934e-16 0)
(1.1 -3.90198e-16 0)
(1.1 6.29201e-16 0)
(1.1 -9.63535e-17 0)
(1.1 -7.51599e-16 0)
(1.1 -1.82058e-15 0)
(1.1 -6.65817e-16 0)
(1.1 -1.56796e-16 0)
(1.1 4.81207e-17 0)
(1.1 4.01288e-16 0)
(1.1 -6.94464e-16 0)
(1.1 -1.19137e-15 0)
(1.1 -1.5872e-15 0)
(1.1 -9.10108e-16 0)
(1.1 -1.59217e-16 0)
(1.1 8.1686e-16 0)
(1.1 -8.09826e-16 0)
(1.1 7.564e-16 0)
(1.1 -8.64107e-18 0)
(1.1 -1.02233e-16 0)
(1.1 -1.79712e-15 0)
(1.1 -8.87742e-17 0)
(1.1 -6.45567e-16 0)
(1.1 -4.08826e-16 0)
(1.1 1.23194e-15 0)
(1.1 5.71366e-16 0)
(1.1 6.58825e-16 0)
(1.1 7.59211e-16 0)
(1.1 1.2963e-15 0)
(1.1 -6.28947e-16 0)
(1.1 -1.9554e-15 0)
(1.1 -1.85826e-15 0)
(1.1 1.07126e-16 0)
(1.1 5.31397e-16 0)
(1.1 1.59572e-16 0)
(1.1 1.79863e-17 0)
(1.1 -2.61844e-16 0)
(1.1 -1.36405e-15 0)
(1.1 -1.21509e-15 0)
(1.1 -6.52316e-16 0)
(1.1 -4.77616e-17 0)
(1.1 1.37093e-15 0)
(1.1 -4.78979e-16 0)
(1.1 8.66362e-16 0)
(1.1 -1.50945e-16 0)
(1.1 -4.31901e-16 0)
(1.1 -2.01493e-15 0)
(1.1 -2.70326e-16 0)
(1.1 -6.42367e-16 0)
(1.1 -1.39312e-16 0)
(1.1 8.84182e-16 0)
(1.1 -4.96425e-16 0)
(1.1 1.56983e-16 0)
(1.1 5.52904e-16 0)
(1.1 6.7825e-16 0)
(1.1 -3.52522e-16 0)
(1.1 -2.43764e-15 0)
(1.1 -7.88409e-16 0)
(1.1 -3.81865e-16 0)
(1.1 5.39456e-16 0)
(1.1 -3.78723e-16 0)
(1.1 -1.8681e-16 0)
(1.1 4.75191e-16 0)
(1.1 -1.83433e-15 0)
(1.1 -1.05366e-15 0)
(1.1 -6.92522e-16 0)
(1.1 -5.77694e-17 0)
(1.1 1.04872e-15 0)
(1.1 -5.06577e-16 0)
(1.1 9.48206e-16 0)
(1.1 4.94377e-16 0)
(1.1 -4.10016e-16 0)
(1.1 -2.36981e-15 0)
(1.1 -1.14594e-15 0)
(1.1 -1.34131e-15 0)
(1.1 8.6016e-18 0)
(1.1 7.06894e-16 0)
(1.1 -4.91668e-16 0)
(1.1 -8.45522e-16 0)
(1.1 6.84977e-16 0)
(1.1 -4.16878e-16 0)
(1.1 -9.71375e-16 0)
(1.1 -2.14614e-15 0)
(1.1 -1.41001e-15 0)
(1.1 -1.81426e-15 0)
(1.1 -6.6115e-17 0)
(1.1 -4.3676e-16 0)
(1.1 6.16934e-18 0)
(1.1 7.06806e-16 0)
(1.1 -1.41235e-15 0)
(1.1 -8.2406e-16 0)
(1.1 -8.70275e-16 0)
(1.1 -1.37252e-16 0)
(1.1 6.11554e-16 0)
(1.1 -7.61602e-16 0)
(1.1 4.75418e-16 0)
(1.1 6.35826e-16 0)
(1.1 -1.1016e-16 0)
(1.1 -1.82672e-15 0)
(1.1 -1.51937e-15 0)
(1.1 -1.45206e-15 0)
(1.1 4.43232e-16 0)
(1.1 9.0468e-16 0)
(1.1 -7.46231e-16 0)
(1.1 -3.77232e-16 0)
(1.1 7.68921e-16 0)
(1.1 7.18781e-17 0)
(1.1 -1.25768e-15 0)
(1.1 -1.27793e-15 0)
(1.1 -2.72849e-15 0)
(1.1 -1.03984e-15 0)
(1.1 3.2904e-16 0)
(1.1 5.92208e-17 0)
(1.1 -1.42797e-16 0)
(1.1 2.63631e-16 0)
(1.1 2.29487e-17 0)
(1.1 -1.39405e-15 0)
(1.1 -9.16706e-16 0)
(1.1 -4.33595e-16 0)
(1.1 3.89589e-16 0)
(1.1 -1.75537e-16 0)
(1.1 1.44453e-16 0)
(1.1 5.94404e-16 0)
(1.1 2.35469e-17 0)
(1.1 -9.41989e-16 0)
(1.1 -1.0982e-15 0)
(1.1 -9.45571e-16 0)
(1.1 9.39579e-16 0)
(1.1 1.24654e-15 0)
(1.1 -7.98089e-16 0)
(1.1 1.09794e-16 0)
(1.1 -5.71277e-17 0)
(1.1 4.23957e-16 0)
(1.1 -9.16641e-16 0)
(1.1 -1.67172e-15 0)
(1.1 -2.47929e-15 0)
(1.1 -2.96911e-16 0)
(1.1 -1.38134e-16 0)
(1.1 -4.96856e-16 0)
(1.1 -8.64338e-16 0)
(1.1 -7.83834e-16 0)
(1.1 -1.05128e-16 0)
(1.1 -1.52045e-15 0)
(1.1 -1.06704e-15 0)
(1.1 -1.25049e-15 0)
(1.1 -3.89408e-16 0)
(1.1 -3.45313e-16 0)
(1.1 -1.23229e-16 0)
(1.1 2.79859e-16 0)
(1.1 -2.1088e-16 0)
(1.1 -7.37724e-16 0)
(1.1 -1.63335e-15 0)
(1.1 -6.55212e-16 0)
(1.1 1.29252e-15 0)
(1.1 7.94791e-16 0)
(1.1 -4.22674e-16 0)
(1.1 7.66908e-16 0)
(1.1 -6.73339e-16 0)
(1.1 -6.70177e-17 0)
(1.1 -7.61143e-16 0)
(1.1 -1.85845e-15 0)
(1.1 -1.96003e-15 0)
(1.1 -7.59737e-16 0)
(1.1 -9.09047e-16 0)
(1.1 -1.39531e-15 0)
(1.1 -1.36419e-15 0)
(1.1 -1.58814e-15 0)
(1.1 -6.09578e-16 0)
(1.1 -9.16681e-16 0)
(1.1 -1.3036e-15 0)
(1.1 -1.82709e-15 0)
(1.1 -1.22824e-15 0)
(1.1 -9.55144e-16 0)
(1.1 -3.89794e-16 0)
(1.1 -5.11545e-17 0)
(1.1 -8.02159e-16 0)
(1.1 -1.51176e-15 0)
(1.1 -1.32354e-15 0)
(1.1 2.17088e-17 0)
(1.1 1.02647e-15 0)
(1.1 1.51302e-16 0)
(1.1 4.3779e-16 0)
(1.1 1.03139e-15 0)
(1.1 -1.38629e-15 0)
(1.1 -1.46115e-15 0)
(1.1 -2.3972e-17 0)
(1.1 -1.6678e-15 0)
(1.1 -1.92022e-15 0)
(1.1 -1.21073e-15 0)
(1.1 -1.02758e-15 0)
(1.1 -1.8175e-15 0)
(1.1 -1.62461e-15 0)
(1.1 -1.45643e-15 0)
(1.1 -9.64659e-16 0)
(1.1 -6.34489e-16 0)
(1.1 -1.69847e-15 0)
(1.1 -1.66994e-15 0)
(1.1 -1.03425e-15 0)
(1.1 -1.14881e-15 0)
(1.1 -3.63721e-17 0)
(1.1 8.12605e-16 0)
(1.1 -5.04056e-17 0)
(1.1 -2.00683e-15 0)
(1.1 -1.46885e-15 0)
(1.1 4.21615e-16 0)
(1.1 8.04599e-16 0)
(1.1 7.84289e-16 0)
(1.1 5.77083e-16 0)
(1.1 7.92593e-16 0)
(1.1 -1.07736e-15 0)
(1.1 -1.83364e-15 0)
(1.1 -3.80061e-16 0)
(1.1 -1.68795e-15 0)
(1.1 -1.51186e-15 0)
(1.1 -1.09262e-15 0)
(1.1 -8.85312e-16 0)
(1.1 -1.30563e-15 0)
(1.1 -9.17957e-16 0)
(1.1 -1.44197e-15 0)
(1.1 -1.37803e-15 0)
(1.1 -2.98039e-16 0)
(1.1 -1.57844e-15 0)
(1.1 -7.04279e-16 0)
(1.1 -1.17996e-15 0)
(1.1 -4.85551e-16 0)
(1.1 2.71996e-17 0)
(1.1 6.84211e-16 0)
(1.1 6.85069e-16 0)
(1.1 -4.71425e-16 0)
(1.1 -8.29295e-16 0)
(1.1 -1.1231e-16 0)
(1.1 1.92105e-16 0)
(1.1 6.36242e-16 0)
(1.1 3.33086e-16 0)
(1.1 -8.33527e-17 0)
(1.1 -7.76669e-16 0)
(1.1 -9.29412e-16 0)
(1.1 -1.06005e-15 0)
(1.1 -1.93109e-15 0)
(1.1 -2.13597e-15 0)
(1.1 -1.20556e-15 0)
(1.1 -1.04977e-15 0)
(1.1 -1.03321e-15 0)
(1.1 -9.50756e-16 0)
(1.1 -1.40007e-15 0)
(1.1 -1.01418e-15 0)
(1.1 -1.60963e-16 0)
(1.1 -6.88949e-16 0)
(1.1 -1.4015e-15 0)
(1.1 -3.11438e-15 0)
(1.1 -2.31946e-16 0)
(1.1 1.38712e-16 0)
(1.1 1.65783e-16 0)
(1.1 1.88848e-16 0)
(1.1 5.85267e-16 0)
(1.1 -2.53023e-17 0)
(1.1 -3.30508e-16 0)
(1.1 -3.18415e-16 0)
(1.1 5.46636e-16 0)
(1.1 9.76591e-17 0)
(1.1 -2.93575e-16 0)
(1.1 -6.91308e-16 0)
(1.1 -2.82745e-16 0)
(1.1 -9.75088e-16 0)
(1.1 -1.15227e-15 0)
(1.1 -1.49921e-15 0)
(1.1 -1.34799e-15 0)
(1.1 -7.07542e-16 0)
(1.1 -4.53469e-16 0)
(1.1 -8.61139e-16 0)
(1.1 -1.2884e-15 0)
(1.1 -6.53239e-16 0)
(1.1 6.56873e-17 0)
(1.1 2.06799e-16 0)
(1.1 -2.31008e-15 0)
(1.1 -3.57319e-15 0)
(1.1 -9.63732e-16 0)
(1.1 -3.00886e-16 0)
(1.1 -3.85269e-16 0)
(1.1 -1.68632e-17 0)
(1.1 -8.01882e-16 0)
(1.1 1.11811e-16 0)
(1.1 3.00142e-16 0)
(1.1 -3.24932e-16 0)
(1.1 5.56902e-16 0)
(1.1 -5.19935e-16 0)
(1.1 -1.11662e-16 0)
(1.1 -7.31673e-16 0)
(1.1 2.05344e-16 0)
(1.1 -9.23861e-16 0)
(1.1 -6.1836e-16 0)
(1.1 -1.28072e-15 0)
(1.1 -9.96654e-16 0)
(1.1 -6.44082e-16 0)
(1.1 3.71878e-16 0)
(1.1 -2.407e-16 0)
(1.1 -1.09693e-15 0)
(1.1 -4.25462e-16 0)
(1.1 9.23019e-17 0)
(1.1 -4.2519e-17 0)
(1.1 -1.42124e-15 0)
(1.1 -3.07035e-15 0)
(1.1 -1.28465e-15 0)
(1.1 -5.4526e-16 0)
(1.1 3.00684e-16 0)
(1.1 2.01504e-16 0)
(1.1 -1.58695e-15 0)
(1.1 -1.34327e-16 0)
(1.1 6.32597e-16 0)
(1.1 6.51865e-16 0)
(1.1 3.12536e-16 0)
(1.1 8.08802e-17 0)
(1.1 -2.95495e-17 0)
(1.1 -1.24519e-15 0)
(1.1 -3.06063e-16 0)
(1.1 -1.29884e-15 0)
(1.1 -1.18343e-15 0)
(1.1 -1.20165e-15 0)
(1.1 -2.57598e-16 0)
(1.1 -1.43342e-15 0)
(1.1 4.34788e-16 0)
(1.1 -1.0998e-16 0)
(1.1 -7.38744e-16 0)
(1.1 -5.00304e-16 0)
(1.1 4.38487e-16 0)
(1.1 -2.63379e-16 0)
(1.1 -6.9193e-16 0)
(1.1 -2.73825e-15 0)
(1.1 -1.58431e-15 0)
(1.1 -3.9809e-17 0)
(1.1 1.17025e-15 0)
(1.1 -4.58688e-16 0)
(1.1 -9.91145e-16 0)
(1.1 -6.68463e-16 0)
(1.1 2.29781e-16 0)
(1.1 1.22288e-15 0)
(1.1 2.44249e-16 0)
(1.1 3.77695e-16 0)
(1.1 3.88033e-17 0)
(1.1 -7.02795e-16 0)
(1.1 -4.38802e-16 0)
(1.1 -1.96317e-15 0)
(1.1 -6.97187e-16 0)
(1.1 -5.72007e-16 0)
(1.1 -6.28552e-16 0)
(1.1 -1.70017e-15 0)
(1.1 1.22682e-16 0)
(1.1 -3.15182e-16 0)
(1.1 3.59834e-16 0)
(1.1 -4.98286e-16 0)
(1.1 6.61205e-16 0)
(1.1 -3.28082e-16 0)
(1.1 -3.15371e-16 0)
(1.1 -1.89746e-15 0)
(1.1 -7.31488e-16 0)
(1.1 3.66672e-16 0)
(1.1 1.11525e-15 0)
(1.1 -3.51723e-16 0)
(1.1 -5.35934e-16 0)
(1.1 -4.69093e-16 0)
(1.1 5.58182e-16 0)
(1.1 8.51951e-16 0)
(1.1 3.98882e-16 0)
(1.1 -5.41371e-16 0)
(1.1 2.0213e-17 0)
(1.1 -2.13132e-16 0)
(1.1 2.22903e-16 0)
(1.1 -2.3058e-15 0)
(1.1 -1.05435e-15 0)
(1.1 -1.65638e-16 0)
(1.1 -1.14191e-15 0)
(1.1 -7.36808e-16 0)
(1.1 4.99751e-16 0)
(1.1 2.62771e-16 0)
(1.1 1.77469e-16 0)
(1.1 4.36892e-16 0)
(1.1 1.00217e-15 0)
(1.1 -2.50771e-16 0)
(1.1 -2.10053e-16 0)
(1.1 -8.6848e-16 0)
(1.1 2.76634e-16 0)
(1.1 3.1617e-16 0)
(1.1 7.64618e-16 0)
(1.1 2.45729e-16 0)
(1.1 -3.83302e-16 0)
(1.1 1.55318e-16 0)
(1.1 8.25796e-16 0)
(1.1 6.89903e-16 0)
(1.1 3.46052e-16 0)
(1.1 -2.71394e-16 0)
(1.1 1.23511e-16 0)
(1.1 -1.57769e-16 0)
(1.1 -2.28629e-16 0)
(1.1 -1.28592e-15 0)
(1.1 -1.63542e-15 0)
(1.1 -2.39883e-16 0)
(1.1 -1.12306e-15 0)
(1.1 -1.33143e-15 0)
(1.1 5.56024e-17 0)
(1.1 1.10336e-15 0)
(1.1 -6.92369e-17 0)
(1.1 9.94363e-16 0)
(1.1 9.5892e-16 0)
(1.1 5.12751e-17 0)
(1.1 -1.71824e-16 0)
(1.1 -1.04977e-16 0)
(1.1 4.38744e-16 0)
(1.1 1.40527e-16 0)
(1.1 7.13212e-16 0)
(1.1 8.35646e-16 0)
(1.1 -4.18146e-18 0)
(1.1 3.3116e-16 0)
(1.1 7.55204e-16 0)
(1.1 -5.14176e-17 0)
(1.1 7.84459e-17 0)
(1.1 1.47828e-16 0)
(1.1 -5.70018e-16 0)
(1.1 -3.16331e-16 0)
(1.1 -6.55607e-16 0)
(1.1 -3.78665e-16 0)
(1.1 -9.18686e-16 0)
(1.1 -5.17944e-16 0)
(1.1 -1.68634e-15 0)
(1.1 -1.60488e-15 0)
(1.1 -2.3297e-16 0)
(1.1 1.1438e-15 0)
(1.1 7.6662e-16 0)
(1.1 9.33037e-16 0)
(1.1 4.79032e-16 0)
(1.1 3.05355e-16 0)
(1.1 4.41702e-16 0)
(1.1 -1.09879e-17 0)
(1.1 -1.12006e-16 0)
(1.1 -5.36676e-16 0)
(1.1 9.74884e-16 0)
(1.1 1.66125e-15 0)
(1.1 5.01741e-16 0)
(1.1 6.4985e-16 0)
(1.1 7.62237e-16 0)
(1.1 -2.00424e-16 0)
(1.1 1.16906e-16 0)
(1.1 -1.3598e-16 0)
(1.1 -4.36798e-17 0)
(1.1 3.40518e-16 0)
(1.1 -2.72352e-16 0)
(1.1 -5.35985e-16 0)
(1.1 -3.86179e-16 0)
(1.1 -2.3994e-16 0)
(1.1 -1.43849e-15 0)
(1.1 -1.20652e-15 0)
(1.1 3.82214e-16 0)
(1.1 1.35407e-15 0)
(1.1 1.03026e-15 0)
(1.1 8.94944e-16 0)
(1.1 -6.35732e-16 0)
(1.1 1.21753e-16 0)
(1.1 4.93353e-16 0)
(1.1 2.35508e-16 0)
(1.1 4.26743e-17 0)
(1.1 -5.59428e-16 0)
(1.1 9.36993e-16 0)
(1.1 2.29136e-15 0)
(1.1 2.13537e-16 0)
(1.1 1.67899e-15 0)
(1.1 1.59964e-15 0)
(1.1 -1.51085e-16 0)
(1.1 -9.25173e-16 0)
(1.1 6.01268e-16 0)
(1.1 -5.91744e-16 0)
(1.1 6.40743e-16 0)
(1.1 -6.80088e-16 0)
(1.1 1.20178e-16 0)
(1.1 -2.70869e-16 0)
(1.1 -5.0363e-16 0)
(1.1 -9.43632e-16 0)
(1.1 -1.3877e-15 0)
(1.1 6.75956e-16 0)
(1.1 1.49768e-15 0)
(1.1 2.53541e-16 0)
(1.1 -2.25211e-16 0)
(1.1 -1.07085e-15 0)
(1.1 -6.0869e-16 0)
(1.1 3.77428e-16 0)
(1.1 -2.71754e-18 0)
(1.1 3.24702e-16 0)
(1.1 1.26302e-16 0)
(1.1 1.00163e-15 0)
(1.1 1.97673e-15 0)
(1.1 5.61598e-16 0)
(1.1 2.11493e-15 0)
(1.1 2.037e-15 0)
(1.1 -5.29505e-16 0)
(1.1 -6.20392e-16 0)
(1.1 1.76852e-15 0)
(1.1 -2.07429e-16 0)
(1.1 2.79208e-16 0)
(1.1 -9.50124e-16 0)
(1.1 -2.00335e-16 0)
(1.1 -5.33569e-16 0)
(1.1 -1.39997e-15 0)
(1.1 -4.4718e-16 0)
(1.1 -4.25419e-16 0)
(1.1 2.11465e-16 0)
(1.1 7.62235e-16 0)
(1.1 2.6295e-16 0)
(1.1 -1.00808e-15 0)
(1.1 -8.17975e-16 0)
(1.1 -7.57563e-16 0)
(1.1 6.07723e-16 0)
(1.1 5.89107e-16 0)
(1.1 3.08229e-16 0)
(1.1 4.79559e-16 0)
(1.1 1.45217e-15 0)
(1.1 1.30893e-15 0)
(1.1 1.72822e-15 0)
(1.1 1.17105e-15 0)
(1.1 1.11827e-15 0)
(1.1 -1.00691e-15 0)
(1.1 -2.73199e-17 0)
(1.1 1.28582e-15 0)
(1.1 9.12775e-17 0)
(1.1 -1.67747e-16 0)
(1.1 -4.25803e-16 0)
(1.1 -9.42216e-16 0)
(1.1 -8.87935e-16 0)
(1.1 -7.43586e-16 0)
(1.1 -4.02997e-16 0)
(1.1 7.89687e-16 0)
(1.1 2.2232e-16 0)
(1.1 1.09482e-15 0)
(1.1 1.2016e-15 0)
(1.1 -5.82064e-16 0)
(1.1 -1.57303e-15 0)
(1.1 -1.16359e-15 0)
(1.1 1.20376e-16 0)
(1.1 1.71859e-15 0)
(1.1 6.82951e-16 0)
(1.1 9.83001e-16 0)
(1.1 7.67498e-16 0)
(1.1 8.44035e-16 0)
(1.1 1.72125e-15 0)
(1.1 1.17366e-15 0)
(1.1 6.30023e-16 0)
(1.1 -8.87859e-16 0)
(1.1 4.50065e-16 0)
(1.1 7.71922e-16 0)
(1.1 -3.25156e-16 0)
(1.1 4.51111e-16 0)
(1.1 3.67213e-17 0)
(1.1 -1.36258e-15 0)
(1.1 -7.94843e-16 0)
(1.1 -6.79637e-16 0)
(1.1 -3.91815e-16 0)
(1.1 6.89306e-16 0)
(1.1 6.32015e-16 0)
(1.1 9.39134e-16 0)
(1.1 8.86723e-16 0)
(1.1 -2.10011e-16 0)
(1.1 -1.71538e-15 0)
(1.1 -1.7096e-15 0)
(1.1 -3.42919e-16 0)
(1.1 7.57303e-16 0)
(1.1 5.10222e-16 0)
(1.1 1.45616e-15 0)
(1.1 6.53857e-16 0)
(1.1 1.38287e-16 0)
(1.1 1.22724e-15 0)
(1.1 1.8859e-15 0)
(1.1 6.73391e-16 0)
(1.1 9.14439e-17 0)
(1.1 1.85597e-15 0)
(1.1 1.49694e-16 0)
(1.1 6.54271e-17 0)
(1.1 4.02976e-16 0)
(1.1 2.72845e-16 0)
(1.1 -8.2149e-16 0)
(1.1 -2.75176e-16 0)
(1.1 -1.71835e-15 0)
(1.1 -8.98479e-16 0)
(1.1 -2.1367e-16 0)
(1.1 2.91296e-16 0)
(1.1 6.66704e-16 0)
(1.1 3.92144e-16 0)
(1.1 -5.45529e-16 0)
(1.1 -6.28363e-16 0)
(1.1 -1.78003e-15 0)
(1.1 -7.23493e-16 0)
(1.1 9.35705e-16 0)
(1.1 4.90741e-16 0)
(1.1 1.33596e-15 0)
(1.1 1.07526e-15 0)
(1.1 -3.22101e-16 0)
(1.1 9.60884e-16 0)
(1.1 2.01519e-15 0)
(1.1 7.33884e-16 0)
(1.1 4.58805e-16 0)
(1.1 1.73677e-15 0)
(1.1 -7.6433e-16 0)
(1.1 2.35596e-16 0)
(1.1 -5.57476e-16 0)
(1.1 -1.77755e-16 0)
(1.1 -4.01842e-16 0)
(1.1 -3.7656e-16 0)
(1.1 -1.89576e-15 0)
(1.1 -1.32221e-15 0)
(1.1 7.84885e-16 0)
(1.1 1.43746e-16 0)
(1.1 6.2903e-16 0)
(1.1 1.4209e-15 0)
(1.1 8.13521e-16 0)
(1.1 -5.98529e-16 0)
(1.1 -1.95749e-15 0)
(1.1 -1.11241e-15 0)
(1.1 4.38078e-16 0)
(1.1 3.77793e-16 0)
(1.1 9.30137e-16 0)
(1.1 7.10641e-16 0)
(1.1 1.16765e-16 0)
(1.1 6.44643e-16 0)
(1.1 1.91194e-15 0)
(1.1 1.37269e-15 0)
(1.1 7.36181e-16 0)
(1.1 5.78711e-16 0)
(1.1 -1.12759e-15 0)
(1.1 -2.49881e-16 0)
(1.1 -9.24212e-16 0)
(1.1 -1.45438e-15 0)
(1.1 -6.83051e-16 0)
(1.1 2.24029e-16 0)
(1.1 -1.05152e-15 0)
(1.1 -1.40223e-15 0)
(1.1 1.86306e-15 0)
(1.1 -3.74927e-17 0)
(1.1 2.3099e-16 0)
(1.1 9.77095e-16 0)
(1.1 2.65231e-16 0)
(1.1 -2.9438e-16 0)
(1.1 -2.18604e-15 0)
(1.1 -1.45661e-15 0)
(1.1 6.33162e-16 0)
(1.1 -2.239e-16 0)
(1.1 7.63802e-16 0)
(1.1 2.75969e-17 0)
(1.1 7.30933e-16 0)
(1.1 5.25589e-16 0)
(1.1 8.14345e-16 0)
(1.1 1.20503e-15 0)
(1.1 1.20712e-15 0)
(1.1 -6.89786e-16 0)
(1.1 -9.34832e-16 0)
(1.1 -7.32573e-16 0)
(1.1 -1.65069e-15 0)
(1.1 -1.27126e-15 0)
(1.1 -1.39797e-15 0)
(1.1 -9.50148e-17 0)
(1.1 -4.83993e-16 0)
(1.1 -8.05122e-16 0)
(1.1 1.61919e-15 0)
(1.1 7.39454e-16 0)
(1.1 -8.12662e-16 0)
(1.1 6.49487e-16 0)
(1.1 2.16118e-16 0)
(1.1 -5.94543e-16 0)
(1.1 -1.83548e-15 0)
(1.1 -1.62431e-15 0)
(1.1 6.48444e-16 0)
(1.1 -8.45125e-16 0)
(1.1 7.50022e-16 0)
(1.1 1.63165e-16 0)
(1.1 5.33751e-16 0)
(1.1 6.40744e-16 0)
(1.1 -1.57713e-17 0)
(1.1 -7.67756e-17 0)
(1.1 1.38234e-15 0)
(1.1 -1.00844e-16 0)
(1.1 -4.34092e-16 0)
(1.1 -1.31376e-15 0)
(1.1 -1.56136e-15 0)
(1.1 -9.10259e-16 0)
(1.1 -1.16703e-15 0)
(1.1 -4.92463e-16 0)
(1.1 -4.49908e-16 0)
(1.1 1.68982e-16 0)
(1.1 1.26147e-15 0)
(1.1 5.67765e-16 0)
(1.1 -5.17338e-16 0)
(1.1 3.64651e-16 0)
(1.1 8.4973e-16 0)
(1.1 -1.41294e-16 0)
(1.1 -1.63838e-15 0)
(1.1 -6.97816e-16 0)
(1.1 -3.57032e-16 0)
(1.1 -1.28953e-15 0)
(1.1 4.31784e-16 0)
(1.1 -1.5503e-16 0)
(1.1 2.6315e-16 0)
(1.1 8.11028e-16 0)
(1.1 -1.95486e-16 0)
(1.1 -3.97597e-16 0)
(1.1 1.78968e-15 0)
(1.1 -6.89715e-16 0)
(1.1 1.2398e-17 0)
(1.1 -1.51299e-15 0)
(1.1 -1.92965e-15 0)
(1.1 -1.2676e-15 0)
(1.1 -4.4241e-16 0)
(1.1 -2.4622e-18 0)
(1.1 -2.62639e-16 0)
(1.1 -8.85363e-17 0)
(1.1 7.31933e-16 0)
(1.1 -2.80392e-16 0)
(1.1 -2.63984e-16 0)
(1.1 7.80849e-16 0)
(1.1 4.68221e-16 0)
(1.1 -1.10103e-17 0)
(1.1 -1.93128e-15 0)
(1.1 1.44956e-17 0)
(1.1 -7.57821e-16 0)
(1.1 -1.99721e-15 0)
(1.1 4.40407e-16 0)
(1.1 -3.20197e-16 0)
(1.1 -3.46984e-16 0)
(1.1 5.4282e-16 0)
(1.1 -7.88406e-16 0)
(1.1 -1.95863e-16 0)
(1.1 1.33161e-15 0)
(1.1 -7.50161e-16 0)
(1.1 3.8598e-17 0)
(1.1 -6.60974e-16 0)
(1.1 -2.04492e-15 0)
(1.1 -1.11702e-15 0)
(1.1 -6.49547e-17 0)
(1.1 -6.3062e-17 0)
(1.1 -7.53563e-16 0)
(1.1 -1.59674e-16 0)
(1.1 -2.2049e-16 0)
(1.1 5.45086e-16 0)
(1.1 -4.87865e-16 0)
(1.1 8.14402e-16 0)
(1.1 4.0541e-16 0)
(1.1 1.24418e-16 0)
(1.1 -9.50697e-16 0)
(1.1 -3.7997e-16 0)
(1.1 -1.44875e-15 0)
(1.1 -1.10476e-15 0)
(1.1 4.82449e-16 0)
(1.1 1.61801e-15 0)
(1.1 -8.6913e-16 0)
(1.1 3.48507e-16 0)
(1.1 -1.17215e-15 0)
(1.1 -7.04299e-16 0)
(1.1 1.43134e-15 0)
(1.1 -1.47389e-17 0)
(1.1 -6.26227e-16 0)
(1.1 -6.78531e-16 0)
(1.1 -1.38054e-15 0)
(1.1 -1.06814e-15 0)
(1.1 2.84251e-16 0)
(1.1 -6.68096e-16 0)
(1.1 -4.11988e-16 0)
(1.1 2.44748e-16 0)
(1.1 -3.14224e-16 0)
(1.1 2.43273e-16 0)
(1.1 -2.31943e-16 0)
(1.1 -1.06626e-16 0)
(1.1 7.69397e-16 0)
(1.1 5.88442e-16 0)
(1.1 2.63528e-17 0)
(1.1 -2.46227e-16 0)
(1.1 -1.41154e-15 0)
(1.1 -2.96926e-16 0)
(1.1 5.70372e-16 0)
(1.1 1.03587e-15 0)
(1.1 -3.8226e-16 0)
(1.1 -4.25579e-16 0)
(1.1 -6.05305e-16 0)
(1.1 -6.84466e-16 0)
(1.1 6.27095e-16 0)
(1.1 1.2651e-16 0)
(1.1 -8.39528e-16 0)
(1.1 -6.5825e-16 0)
(1.1 -1.25468e-15 0)
(1.1 -1.13326e-15 0)
(1.1 4.90651e-16 0)
(1.1 -8.51704e-16 0)
(1.1 5.16869e-16 0)
(1.1 8.54102e-16 0)
(1.1 -3.17121e-16 0)
(1.1 -7.91175e-16 0)
(1.1 5.23296e-17 0)
(1.1 2.61616e-16 0)
(1.1 1.74721e-15 0)
(1.1 1.77812e-16 0)
(1.1 2.97836e-16 0)
(1.1 -4.18503e-16 0)
(1.1 -6.65897e-16 0)
(1.1 -2.66352e-16 0)
(1.1 2.75203e-16 0)
(1.1 1.38861e-16 0)
(1.1 -4.78502e-16 0)
(1.1 -8.00494e-16 0)
(1.1 6.25943e-16 0)
(1.1 -6.74472e-17 0)
(1.1 -6.23333e-17 0)
(1.1 1.68542e-16 0)
(1.1 -4.39011e-16 0)
(1.1 1.88665e-16 0)
(1.1 -1.26663e-15 0)
(1.1 -8.93988e-16 0)
(1.1 7.84401e-16 0)
(1.1 -2.30977e-16 0)
(1.1 5.8198e-16 0)
(1.1 6.67856e-16 0)
(1.1 -2.53513e-16 0)
(1.1 -9.4128e-16 0)
(1.1 -4.57993e-16 0)
(1.1 -3.54299e-16 0)
(1.1 1.56544e-15 0)
(1.1 -3.08868e-16 0)
(1.1 7.4107e-16 0)
(1.1 -1.20938e-15 0)
(1.1 -1.83933e-15 0)
(1.1 -6.55931e-16 0)
(1.1 -4.24123e-16 0)
(1.1 4.76324e-16 0)
(1.1 -1.39727e-15 0)
(1.1 -1.7514e-16 0)
(1.1 1.71881e-17 0)
(1.1 2.78396e-16 0)
(1.1 5.25279e-17 0)
(1.1 -3.09429e-16 0)
(1.1 -3.43239e-16 0)
(1.1 -6.58077e-16 0)
(1.1 -1.36011e-15 0)
(1.1 -4.79139e-16 0)
(1.1 2.9177e-16 0)
(1.1 2.70025e-16 0)
(1.1 7.37113e-16 0)
(1.1 6.35802e-16 0)
(1.1 -1.67164e-17 0)
(1.1 -8.33682e-16 0)
(1.1 -5.32273e-16 0)
(1.1 -3.13102e-16 0)
(1.1 6.47662e-16 0)
(1.1 4.89888e-16 0)
(1.1 7.26104e-16 0)
(1.1 -1.35412e-15 0)
(1.1 -1.0831e-15 0)
(1.1 -8.51495e-16 0)
(1.1 -3.57912e-16 0)
(1.1 1.50739e-16 0)
(1.1 -7.12168e-16 0)
(1.1 3.73049e-16 0)
(1.1 -3.65096e-16 0)
(1.1 -6.17395e-16 0)
(1.1 -1.42495e-16 0)
(1.1 -6.50259e-16 0)
(1.1 -2.45953e-16 0)
(1.1 -3.81283e-16 0)
(1.1 -1.85041e-15 0)
(1.1 -4.66658e-16 0)
(1.1 2.31788e-16 0)
(1.1 9.09297e-16 0)
(1.1 1.51428e-15 0)
(1.1 4.22745e-16 0)
(1.1 3.16815e-16 0)
(1.1 -1.58115e-15 0)
(1.1 -8.0619e-16 0)
(1.1 2.40706e-16 0)
(1.1 6.16811e-16 0)
(1.1 2.04042e-16 0)
(1.1 5.15835e-16 0)
(1.1 -1.13557e-15 0)
(1.1 2.92275e-16 0)
(1.1 -4.95279e-16 0)
(1.1 -4.59226e-16 0)
(1.1 -2.86495e-16 0)
(1.1 2.77221e-16 0)
(1.1 9.93237e-17 0)
(1.1 -1.82786e-16 0)
(1.1 -2.92903e-16 0)
(1.1 -3.49882e-16 0)
(1.1 -2.89651e-16 0)
(1.1 7.09409e-16 0)
(1.1 -1.40493e-16 0)
(1.1 -1.04563e-15 0)
(1.1 -1.06689e-15 0)
(1.1 3.5639e-16 0)
(1.1 1.08953e-15 0)
(1.1 1.02541e-15 0)
(1.1 7.14526e-16 0)
(1.1 8.01931e-16 0)
(1.1 -1.95873e-15 0)
(1.1 -9.90464e-16 0)
(1.1 1.34492e-15 0)
(1.1 1.07602e-15 0)
(1.1 2.83532e-16 0)
(1.1 1.10353e-15 0)
(1.1 -2.06364e-15 0)
(1.1 5.49254e-16 0)
(1.1 3.14452e-16 0)
(1.1 -4.88946e-16 0)
(1.1 -5.20333e-16 0)
(1.1 -2.88327e-16 0)
(1.1 8.09761e-16 0)
(1.1 1.19777e-16 0)
(1.1 9.70418e-16 0)
(1.1 -2.42543e-16 0)
(1.1 -1.80174e-16 0)
(1.1 7.60103e-16 0)
(1.1 -9.80526e-16 0)
(1.1 1.08358e-16 0)
(1.1 -1.87008e-15 0)
(1.1 -7.49415e-16 0)
(1.1 5.38999e-16 0)
(1.1 3.93756e-16 0)
(1.1 5.5023e-16 0)
(1.1 7.43314e-17 0)
(1.1 -1.05457e-15 0)
(1.1 -4.81921e-16 0)
(1.1 9.95187e-16 0)
(1.1 4.84463e-16 0)
(1.1 2.97991e-16 0)
(1.1 1.14312e-15 0)
(1.1 -9.01805e-16 0)
(1.1 2.72863e-16 0)
(1.1 7.20977e-16 0)
(1.1 1.48084e-16 0)
(1.1 6.51468e-16 0)
(1.1 -1.03909e-15 0)
(1.1 1.14076e-15 0)
(1.1 8.00907e-16 0)
(1.1 -1.5674e-16 0)
(1.1 -1.47294e-16 0)
(1.1 3.01574e-16 0)
(1.1 1.19796e-16 0)
(1.1 4.75293e-16 0)
(1.1 2.79958e-16 0)
(1.1 -1.45639e-15 0)
(1.1 -1.61686e-15 0)
(1.1 7.89144e-16 0)
(1.1 1.00419e-15 0)
(1.1 9.61021e-16 0)
(1.1 1.19124e-16 0)
(1.1 -1.00877e-15 0)
(1.1 1.35639e-16 0)
(1.1 7.50704e-18 0)
(1.1 -1.15288e-16 0)
(1.1 -6.24616e-17 0)
(1.1 1.26658e-15 0)
(1.1 -5.00292e-17 0)
(1.1 6.66517e-16 0)
(1.1 8.31712e-16 0)
(1.1 1.08231e-15 0)
(1.1 9.59311e-16 0)
(1.1 -7.26898e-16 0)
(1.1 5.45509e-16 0)
(1.1 3.77645e-16 0)
(1.1 -7.00404e-16 0)
(1.1 -6.54883e-17 0)
(1.1 7.74656e-16 0)
(1.1 -1.18945e-16 0)
(1.1 1.52209e-16 0)
(1.1 -9.76138e-17 0)
(1.1 -9.1639e-16 0)
(1.1 1.25242e-18 0)
(1.1 1.23347e-15 0)
(1.1 1.17931e-15 0)
(1.1 1.21203e-15 0)
(1.1 1.6118e-16 0)
(1.1 -8.03518e-16 0)
(1.1 1.60943e-16 0)
(1.1 -8.15852e-17 0)
(1.1 -3.8704e-16 0)
(1.1 -1.1087e-16 0)
(1.1 1.76752e-15 0)
(1.1 -4.97162e-16 0)
(1.1 1.37874e-15 0)
(1.1 9.49339e-16 0)
(1.1 1.03823e-15 0)
(1.1 4.68978e-16 0)
(1.1 -7.79322e-16 0)
(1.1 9.86791e-16 0)
(1.1 8.51485e-17 0)
(1.1 -7.75145e-16 0)
(1.1 -2.04462e-16 0)
(1.1 1.18662e-16 0)
(1.1 -4.16358e-16 0)
(1.1 -9.98503e-16 0)
(1.1 8.85257e-17 0)
(1.1 -4.56229e-16 0)
(1.1 8.11829e-16 0)
(1.1 9.8456e-16 0)
(1.1 1.0736e-15 0)
(1.1 1.26153e-15 0)
(1.1 5.28008e-16 0)
(1.1 1.80983e-16 0)
(1.1 4.33066e-16 0)
(1.1 2.17194e-17 0)
(1.1 -6.2217e-16 0)
(1.1 -1.10665e-16 0)
(1.1 1.06275e-15 0)
(1.1 -7.66453e-17 0)
(1.1 1.67736e-15 0)
(1.1 1.71954e-15 0)
(1.1 7.48425e-16 0)
(1.1 -6.30149e-16 0)
(1.1 -1.02643e-15 0)
(1.1 1.21212e-15 0)
(1.1 -5.98944e-16 0)
(1.1 -1.90679e-15 0)
(1.1 -9.43791e-16 0)
(1.1 -6.82318e-17 0)
(1.1 -2.3294e-16 0)
(1.1 -2.36484e-16 0)
(1.1 9.41242e-16 0)
(1.1 -2.64488e-16 0)
(1.1 4.58174e-16 0)
(1.1 6.33497e-16 0)
(1.1 5.12008e-16 0)
(1.1 1.21665e-15 0)
(1.1 3.00793e-16 0)
(1.1 2.10724e-16 0)
(1.1 8.69282e-16 0)
(1.1 2.95432e-16 0)
(1.1 -1.36627e-16 0)
(1.1 5.3072e-16 0)
(1.1 1.67192e-15 0)
(1.1 6.604e-16 0)
(1.1 1.41287e-15 0)
(1.1 1.32733e-15 0)
(1.1 5.89187e-16 0)
(1.1 -1.25004e-15 0)
(1.1 -1.16041e-15 0)
(1.1 2.72815e-16 0)
(1.1 -2.26909e-16 0)
(1.1 -7.26348e-16 0)
(1.1 -1.15103e-15 0)
(1.1 -5.98251e-16 0)
(1.1 -7.54897e-16 0)
(1.1 4.12996e-16 0)
(1.1 1.11036e-15 0)
(1.1 6.45716e-16 0)
(1.1 2.36515e-16 0)
(1.1 9.88949e-16 0)
(1.1 7.94609e-16 0)
(1.1 1.15066e-15 0)
(1.1 3.07492e-16 0)
(1.1 3.81136e-16 0)
(1.1 2.50036e-16 0)
(1.1 1.20966e-15 0)
(1.1 2.64169e-16 0)
(1.1 3.25227e-16 0)
(1.1 1.03369e-15 0)
(1.1 5.5981e-16 0)
(1.1 1.9192e-15 0)
(1.1 1.13015e-15 0)
(1.1 6.02628e-16 0)
(1.1 -1.64568e-15 0)
(1.1 -9.15491e-16 0)
(1.1 4.71162e-17 0)
(1.1 -3.47145e-16 0)
(1.1 -2.45986e-16 0)
(1.1 -8.23715e-16 0)
(1.1 -4.23396e-16 0)
(1.1 -8.05179e-16 0)
(1.1 2.4904e-16 0)
(1.1 8.37128e-16 0)
(1.1 3.72076e-16 0)
(1.1 1.06071e-15 0)
(1.1 1.16014e-15 0)
(1.1 1.04709e-15 0)
(1.1 7.62086e-16 0)
(1.1 5.76525e-16 0)
(1.1 -2.3996e-16 0)
(1.1 5.72082e-16 0)
(1.1 3.94744e-16 0)
(1.1 -2.51858e-16 0)
(1.1 -1.88665e-16 0)
(1.1 8.66341e-17 0)
(1.1 3.40247e-16 0)
(1.1 1.05301e-15 0)
(1.1 1.0052e-15 0)
(1.1 4.86234e-16 0)
(1.1 -1.35317e-15 0)
(1.1 -6.46382e-16 0)
(1.1 1.91301e-16 0)
(1.1 -4.49696e-16 0)
(1.1 -8.43026e-16 0)
(1.1 -5.83644e-16 0)
(1.1 -8.22634e-16 0)
(1.1 -4.63488e-16 0)
(1.1 3.23469e-16 0)
(1.1 1.04572e-15 0)
(1.1 -5.28589e-17 0)
(1.1 2.01938e-15 0)
(1.1 6.34951e-16 0)
(1.1 7.0568e-16 0)
(1.1 4.05091e-16 0)
(1.1 -6.23832e-16 0)
(1.1 -2.89978e-16 0)
(1.1 9.05721e-16 0)
(1.1 -4.97462e-16 0)
(1.1 -3.87293e-16 0)
(1.1 -1.3072e-16 0)
(1.1 -3.69478e-16 0)
(1.1 -1.21746e-16 0)
(1.1 3.40386e-17 0)
(1.1 5.737e-16 0)
(1.1 6.25051e-16 0)
(1.1 -9.65269e-16 0)
(1.1 -8.84889e-16 0)
(1.1 2.76773e-16 0)
(1.1 4.4376e-16 0)
(1.1 -5.52417e-17 0)
(1.1 -9.26128e-17 0)
(1.1 -7.7261e-16 0)
(1.1 -4.72872e-16 0)
(1.1 1.36564e-15 0)
(1.1 1.44473e-15 0)
(1.1 -4.73937e-16 0)
(1.1 2.01053e-15 0)
(1.1 6.17037e-16 0)
(1.1 3.4935e-16 0)
(1.1 1.03336e-17 0)
(1.1 2.43566e-16 0)
(1.1 4.45036e-17 0)
(1.1 6.65594e-16 0)
(1.1 -2.52556e-17 0)
(1.1 -3.167e-16 0)
(1.1 -4.60673e-16 0)
(1.1 -3.7835e-16 0)
(1.1 -2.11614e-16 0)
(1.1 2.47689e-16 0)
(1.1 1.02655e-15 0)
(1.1 3.40906e-16 0)
(1.1 -9.2698e-16 0)
(1.1 -8.28058e-16 0)
(1.1 3.91074e-16 0)
(1.1 8.59277e-16 0)
(1.1 6.40913e-16 0)
(1.1 -1.22839e-16 0)
(1.1 -1.92746e-16 0)
(1.1 3.06985e-16 0)
(1.1 1.23517e-15 0)
(1.1 1.17704e-15 0)
(1.1 2.62078e-16 0)
(1.1 9.96583e-16 0)
(1.1 8.41149e-16 0)
(1.1 5.9464e-16 0)
(1.1 -3.26914e-16 0)
(1.1 1.47407e-15 0)
(1.1 2.3277e-16 0)
(1.1 6.03921e-16 0)
(1.1 -3.00261e-16 0)
(1.1 -1.08696e-15 0)
(1.1 -5.32007e-16 0)
(1.1 -9.98704e-16 0)
(1.1 9.49116e-16 0)
(1.1 6.54589e-17 0)
(1.1 8.74934e-16 0)
(1.1 7.01699e-17 0)
(1.1 -1.26627e-15 0)
(1.1 -4.5206e-16 0)
(1.1 8.67499e-16 0)
(1.1 4.27374e-16 0)
(1.1 -7.3206e-16 0)
(1.1 -1.74751e-16 0)
(1.1 -6.22508e-16 0)
(1.1 1.43252e-15 0)
(1.1 8.80554e-16 0)
(1.1 1.22837e-15 0)
(1.1 1.63976e-15 0)
(1.1 1.35481e-15 0)
(1.1 6.02824e-16 0)
(1.1 -2.39995e-16 0)
(1.1 8.12533e-17 0)
(1.1 2.14807e-15 0)
(1.1 8.1195e-16 0)
(1.1 5.85488e-16 0)
(1.1 -7.06621e-16 0)
(1.1 -1.22182e-15 0)
(1.1 2.91171e-16 0)
(1.1 -7.58992e-16 0)
(1.1 1.62304e-15 0)
(1.1 -9.46337e-16 0)
(1.1 4.01706e-16 0)
(1.1 -4.23936e-16 0)
(1.1 -1.62798e-15 0)
(1.1 -8.42669e-16 0)
(1.1 1.06592e-15 0)