/*--------------------------------*- C++ -*----------------------------------*\
  =========                 |
  \\      /  F ield         | OpenFOAM: The Open Source CFD Toolbox
   \\    /   O peration     | Website:  https://openfoam.org
    \\  /    A nd           | Version:  7
     \\/     M anipulation  |
\*---------------------------------------------------------------------------*/
FoamFile
{
    version     2.0;
    format      ascii;
    class       volVectorField;
    location    "0.4";
    object      U;
}
// * * * * * * * * * * * * * * * * * * * * * * * * * * * * * * * * * * * * * //

dimensions      [0 1 -1 0 0 0 0];

internalField   nonuniform List<vector> 
325
(
(2.04035 0.849741 0)
(2.33416 1.01486 0)
(2.54029 1.02311 0)
(1.94254 0.615299 0)
(2.38141 0.749883 0)
(2.55598 0.661059 0)
(1.60427 0.335466 0)
(2.21487 0.564571 0)
(2.50963 0.297626 0)
(1.02945 0.269299 0)
(1.98405 0.495782 0)
(2.35567 0.229969 0)
(0.467267 0.17353 0)
(1.5367 0.493635 0)
(2.11766 0.220549 0)
(0.109358 0.1103 0)
(0.999505 0.361753 0)
(1.60077 0.195766 0)
(-0.100345 0.0313176 0)
(0.441336 0.251237 0)
(0.881276 0.0378734 0)
(-0.22991 -0.00334718 0)
(-0.0340874 0.147506 0)
(0.190859 0.0169035 0)
(-0.303938 0.00053698 0)
(-0.321186 0.0994623 0)
(-0.214059 -0.0355856 0)
(-0.336354 0.0142856 0)
(-0.428745 0.0478027 0)
(-0.345721 -0.0253163 0)
(-0.336354 -0.0142863 0)
(-0.428745 -0.0478031 0)
(-0.345721 0.0253167 0)
(0.105738 0.00399123 0)
(-0.303938 -0.000537259 0)
(-0.321185 -0.0994626 0)
(-0.214058 0.0355854 0)
(0.30984 0.0254434 0)
(-0.229909 0.00334759 0)
(-0.0340862 -0.147506 0)
(0.19086 -0.0169035 0)
(0.89481 -0.0402955 0)
(-0.100344 -0.0313172 0)
(0.441338 -0.251237 0)
(0.881278 -0.0378734 0)
(2.03361 -0.0340493 0)
(2.02022 -0.0570552 0)
(1.79386 -0.307828 0)
(1.54265 -0.492432 0)
(2.02745 -0.0429202 0)
(1.95364 -0.15833 0)
(1.56566 -0.474452 0)
(1.51291 -0.516538 0)
(2.00492 -0.0753736 0)
(1.74051 -0.341165 0)
(1.44662 -0.538135 0)
(1.47509 -0.535105 0)
(1.90192 -0.201748 0)
(1.47879 -0.4684 0)
(1.42378 -0.549469 0)
(1.46316 -0.549609 0)
(1.61882 -0.40601 0)
(1.38776 -0.508256 0)
(1.40188 -0.555284 0)
(1.44652 -0.558284 0)
(1.4042 -0.496673 0)
(1.35577 -0.534961 0)
(1.37633 -0.559502 0)
(1.42544 -0.565366 0)
(1.35007 -0.516807 0)
(1.35316 -0.539761 0)
(1.36536 -0.568269 0)
(1.40752 -0.573078 0)
(1.31213 -0.527316 0)
(1.33585 -0.544225 0)
(1.35185 -0.570964 0)
(1.39396 -0.576557 0)
(1.30099 -0.541031 0)
(1.31556 -0.552757 0)
(1.33948 -0.574252 0)
(1.38651 -0.581307 0)
(1.28227 -0.550467 0)
(1.29297 -0.562505 0)
(1.32382 -0.577047 0)
(1.37844 -0.582928 0)
(1.27032 -0.557584 0)
(1.28246 -0.570738 0)
(1.3152 -0.579977 0)
(1.37639 -0.584369 0)
(1.25464 -0.557089 0)
(1.26996 -0.570535 0)
(1.30482 -0.579 0)
(1.37415 -0.583104 0)
(1.2375 -0.553693 0)
(1.25675 -0.566665 0)
(1.29424 -0.575771 0)
(1.37171 -0.580199 0)
(1.21535 -0.54485 0)
(1.23912 -0.558914 0)
(1.27982 -0.569538 0)
(1.3674 -0.57555 0)
(1.17896 -0.528242 0)
(1.20574 -0.547513 0)
(1.25105 -0.560788 0)
(1.35446 -0.569301 0)
(1.10728 -0.512449 0)
(1.14328 -0.534325 0)
(1.20224 -0.54428 0)
(1.32631 -0.557859 0)
(1.01794 -0.478166 0)
(1.06552 -0.50608 0)
(1.13847 -0.537434 0)
(1.28187 -0.554595 0)
(0.946871 -0.452394 0)
(1.00302 -0.487992 0)
(1.0853 -0.528326 0)
(1.23605 -0.546223 0)
(0.906145 -0.482392 0)
(0.967476 -0.515523 0)
(1.05106 -0.554419 0)
(1.20527 -0.587686 0)
(0.906119 -0.48173 0)
(0.966203 -0.514908 0)
(1.0503 -0.55943 0)
(1.21183 -0.601141 0)
(1.64962 -0.484445 0)
(1.8465 -0.392162 0)
(2.04212 -0.250723 0)
(1.64188 -0.492398 0)
(1.86326 -0.381841 0)
(2.0747 -0.226586 0)
(1.63341 -0.49974 0)
(1.87581 -0.374667 0)
(2.0995 -0.204473 0)
(1.62748 -0.50567 0)
(1.88297 -0.366443 0)
(2.11934 -0.180946 0)
(1.6247 -0.508494 0)
(1.89144 -0.355243 0)
(2.13485 -0.159368 0)
(1.62501 -0.507809 0)
(1.90305 -0.340024 0)
(2.15267 -0.129405 0)
(1.62965 -0.504857 0)
(1.91916 -0.319951 0)
(2.16759 -0.10326 0)
(1.63791 -0.501539 0)
(1.93949 -0.296529 0)
(2.18991 -0.0636516 0)
(1.65123 -0.494509 0)
(1.96302 -0.269485 0)
(2.20961 -0.0277259 0)
(1.66625 -0.485429 0)
(1.99216 -0.235074 0)
(2.23512 0.0195785 0)
(1.68722 -0.471804 0)
(2.02121 -0.198248 0)
(2.26244 0.0721374 0)
(1.71014 -0.454338 0)
(2.05496 -0.152521 0)
(2.29049 0.125045 0)
(1.73473 -0.433288 0)
(2.0892 -0.100654 0)
(2.32824 0.202696 0)
(1.76309 -0.402922 0)
(2.12462 -0.0359333 0)
(2.36396 0.267127 0)
(1.78563 -0.367615 0)
(2.15574 0.0312506 0)
(2.41394 0.359798 0)
(1.80992 -0.321234 0)
(2.19664 0.13763 0)
(2.46909 0.436264 0)
(1.83808 -0.257836 0)
(2.23271 0.249406 0)
(2.52636 0.576498 0)
(1.87869 -0.168412 0)
(2.26862 0.378653 0)
(2.55949 0.641042 0)
(1.93205 -0.0399265 0)
(2.30661 0.64069 0)
(2.58741 0.800416 0)
(2.01985 0.287447 0)
(2.3257 0.87285 0)
(2.6088 0.915753 0)
(2.04348 8.45436e-05 0)
(2.04498 0.000543673 0)
(2.0459 -0.000489811 0)
(2.04362 0.000405537 0)
(2.0448 0.000888644 0)
(2.04459 -0.00505601 0)
(2.0439 0.000520304 0)
(2.04435 0.000152784 0)
(2.04216 -0.014284 0)
(2.04437 0.000496154 0)
(2.04252 -0.00307065 0)
(2.03695 -0.0304942 0)
(2.04473 0.000313434 0)
(2.03891 -0.00941853 0)
(2.02601 -0.0520562 0)
(2.04453 0.000157167 0)
(2.03341 -0.0187724 0)
(2.00792 -0.0747676 0)
(2.04402 0.000108321 0)
(2.02571 -0.0302801 0)
(1.98522 -0.0964835 0)
(2.0429 0.000310041 0)
(2.0142 -0.0426926 0)
(1.96899 -0.111338 0)
(2.04111 0.000250236 0)
(1.9942 -0.0574476 0)
(1.95637 -0.120264 0)
(2.03714 -0.00367275 0)
(1.96833 -0.0745159 0)
(1.94676 -0.124248 0)
(2.02953 -0.0134194 0)
(1.94215 -0.0959141 0)
(1.93679 -0.123522 0)
(2.01662 -0.0285418 0)
(1.91936 -0.113991 0)
(1.92806 -0.124577 0)
(1.99383 -0.0442212 0)
(1.90174 -0.124713 0)
(1.92359 -0.123062 0)
(1.95867 -0.0572781 0)
(1.88997 -0.130752 0)
(1.92668 -0.123498 0)
(1.92094 -0.0694589 0)
(1.88263 -0.142723 0)
(1.93389 -0.130257 0)
(1.88822 -0.0890803 0)
(1.87187 -0.182681 0)
(1.94078 -0.171574 0)
(1.84264 -0.138503 0)
(1.85791 -0.271957 0)
(1.94278 -0.259658 0)
(1.77362 -0.250731 0)
(1.84459 -0.352675 0)
(1.95922 -0.307818 0)
(1.71362 -0.377269 0)
(1.82694 -0.389266 0)
(1.97666 -0.329406 0)
(1.6829 -0.452629 0)
(1.82726 -0.406068 0)
(2.00616 -0.288858 0)
(2.05292 3.19094e-06 0)
(2.0527 2.0548e-06 0)
(2.05175 6.58906e-06 0)
(2.04923 -2.73279e-05 0)
(2.05295 1.30235e-05 0)
(2.05271 6.91349e-06 0)
(2.05176 3.84002e-05 0)
(2.04924 -0.000163988 0)
(2.05301 2.59773e-05 0)
(2.05276 2.0571e-05 0)
(2.0518 5.99273e-05 0)
(2.04919 -0.000211875 0)
(2.05305 7.1001e-05 0)
(2.05279 6.8782e-05 0)
(2.05182 8.84122e-05 0)
(2.04908 -0.000120795 0)
(2.05303 0.000180322 0)
(2.05277 0.000191603 0)
(2.05179 0.000151109 0)
(2.04895 0.000143619 0)
(2.05286 0.000286274 0)
(2.05265 0.000350088 0)
(2.05169 0.000130652 0)
(2.04903 0.00055525 0)
(2.0526 0.000466416 0)
(2.05246 0.000649312 0)
(2.05157 0.000329901 0)
(2.04928 0.00116483 0)
(2.05256 0.000995633 0)
(2.05245 0.00138709 0)
(2.05167 0.00133632 0)
(2.04983 0.00248564 0)
(2.05321 0.00188503 0)
(2.05279 0.00249001 0)
(2.05218 0.00297231 0)
(2.051 0.00437038 0)
(2.05469 0.00336042 0)
(2.05399 0.00376613 0)
(2.05309 0.00451749 0)
(2.05251 0.00600833 0)
(2.0556 0.00430898 0)
(2.05536 0.00484958 0)
(2.05454 0.00557164 0)
(2.05416 0.00711124 0)
(2.05672 0.00452532 0)
(2.0568 0.00528661 0)
(2.05604 0.00616674 0)
(2.05572 0.00786502 0)
(2.05783 0.00418413 0)
(2.05804 0.00487662 0)
(2.05774 0.00587595 0)
(2.05722 0.00770435 0)
(2.05869 0.00352028 0)
(2.05887 0.00309038 0)
(2.05844 0.00327797 0)
(2.05746 0.00427355 0)
(2.0586 0.00122975 0)
(2.05856 0.000494101 0)
(2.05791 0.000234038 0)
(2.05497 -0.00168204 0)
(2.05605 -0.00299087 0)
(2.05653 -0.00349295 0)
(2.05586 -0.00497281 0)
(2.0487 -0.00994904 0)
(2.05234 -0.00817768 0)
(2.05373 -0.00831812 0)
(2.05218 -0.0114956 0)
(2.03809 -0.0176204 0)
(2.04802 -0.0143714 0)
(2.04987 -0.0140561 0)
(2.04642 -0.0187338 0)
(2.01579 -0.0316394 0)
(2.04382 -0.0209258 0)
(2.0447 -0.0208352 0)
(2.03626 -0.0292125 0)
(1.92206 -0.115619 0)
(2.03814 -0.0277036 0)
(2.03573 -0.0314628 0)
(1.98344 -0.0959776 0)
(1.67693 -0.34932 0)
)
;

boundaryField
{
    inlet
    {
        type            fixedValue;
        value           nonuniform 0();
    }
    outlet
    {
        type            inletOutlet;
        inletValue      nonuniform 0();
        value           nonuniform 0();
    }
    triangle
    {
        type            slip;
    }
    top
    {
        type            symmetryPlane;
    }
    bottom
    {
        type            symmetryPlane;
    }
    defaultFaces
    {
        type            empty;
    }
    procBoundary2to1
    {
        type            processor;
        value           nonuniform List<vector> 
40
(
(2.03285 -0.0316901 0)
(2.02859 -0.0369639 0)
(2.02335 -0.043163 0)
(2.01236 -0.0545348 0)
(1.97028 -0.106432 0)
(1.77395 -0.288781 0)
(1.44539 -0.472839 0)
(1.30951 -0.533683 0)
(1.28872 -0.537931 0)
(1.26976 -0.537871 0)
(1.26072 -0.537565 0)
(1.24701 -0.537057 0)
(1.23121 -0.534376 0)
(1.20783 -0.523195 0)
(1.16349 -0.507786 0)
(1.08242 -0.489584 0)
(0.983037 -0.452684 0)
(0.902058 -0.41806 0)
(0.853492 -0.448676 0)
(0.854894 -0.445739 0)
(2.05277 3.24057e-06 0)
(2.05281 7.86521e-06 0)
(2.05287 1.91798e-05 0)
(2.05291 5.81114e-05 0)
(2.05289 0.000148978 0)
(2.05271 0.000237088 0)
(2.05244 0.000374213 0)
(2.05241 0.000706159 0)
(2.05309 0.00159229 0)
(2.05448 0.00280427 0)
(2.05519 0.00360262 0)
(2.05627 0.00395412 0)
(2.05758 0.00388307 0)
(2.05827 0.00338463 0)
(2.05792 0.00142775 0)
(2.05495 -0.00282893 0)
(2.05081 -0.00756433 0)
(2.04653 -0.0125602 0)
(2.04261 -0.0179838 0)
(2.03731 -0.0251376 0)
)
;
    }
    procBoundary2to3
    {
        type            processor;
        value           nonuniform List<vector> 
47
(
(2.62392 0.829844 0)
(2.61721 0.597593 0)
(2.62348 0.305081 0)
(2.6092 0.183404 0)
(2.52902 0.0880585 0)
(2.30101 0.0806612 0)
(1.70396 0.0441299 0)
(2.20085 -0.0874452 0)
(2.23905 -0.054648 0)
(2.27792 -0.0192299 0)
(2.31434 0.0133477 0)
(2.35173 0.0507213 0)
(2.38436 0.0846859 0)
(2.42022 0.129859 0)
(2.45349 0.165432 0)
(2.49803 0.218232 0)
(2.53905 0.260418 0)
(2.56895 0.318076 0)
(2.57959 0.366981 0)
(2.58401 0.419758 0)
(2.58365 0.469291 0)
(2.57566 0.516647 0)
(2.56375 0.580456 0)
(2.55063 0.632934 0)
(2.55977 0.693239 0)
(2.58818 0.775483 0)
(2.61844 0.825886 0)
(2.02979 -0.00816462 0)
(2.02638 -0.0336849 0)
(2.01285 -0.0588225 0)
(1.99882 -0.0821379 0)
(1.98663 -0.100926 0)
(1.97957 -0.112204 0)
(1.97508 -0.115296 0)
(1.96962 -0.11644 0)
(1.96582 -0.113709 0)
(1.96627 -0.105083 0)
(1.97291 -0.0936885 0)
(1.97883 -0.0815288 0)
(1.98774 -0.069817 0)
(2.00626 -0.0644423 0)
(2.02443 -0.0689637 0)
(2.04424 -0.0981152 0)
(2.0711 -0.170983 0)
(2.10257 -0.206553 0)
(2.1292 -0.21053 0)
(2.16448 -0.145103 0)
)
;
    }
    procBoundary2to6
    {
        type            processor;
        value           nonuniform List<vector> 5((1.70396 -0.0441299 0) (0.109358 -0.1103 0) (0.999506 -0.361753 0) (1.70396 -0.0441299 0) (1.60077 -0.195765 0));
    }
    procBoundary2to7
    {
        type            processor;
        value           nonuniform List<vector> 7((0.894809 0.0402954 0) (0.30984 -0.025443 0) (0.105738 -0.00399118 0) (0.105738 -0.00399118 0) (0.503265 -0.0305219 0) (0.722196 -0.0579205 0) (1.19211 -0.0486926 0));
    }
}


// ************************************************************************* //
