/*--------------------------------*- C++ -*----------------------------------*\
  =========                 |
  \\      /  F ield         | OpenFOAM: The Open Source CFD Toolbox
   \\    /   O peration     | Website:  https://openfoam.org
    \\  /    A nd           | Version:  7
     \\/     M anipulation  |
\*---------------------------------------------------------------------------*/
FoamFile
{
    version     2.0;
    format      ascii;
    class       volVectorField;
    location    "0.3";
    object      U;
}
// * * * * * * * * * * * * * * * * * * * * * * * * * * * * * * * * * * * * * //

dimensions      [0 1 -1 0 0 0 0];

internalField   nonuniform List<vector> 
3225
(
(1.12517 6.01789e-16 0)
(1.12473 -2.10632e-15 0)
(1.1243 1.12268e-15 0)
(1.12385 -2.57482e-15 0)
(1.12341 1.49932e-16 0)
(1.12296 -2.29287e-15 0)
(1.12251 -7.58735e-16 0)
(1.12205 1.16637e-15 0)
(1.12159 -6.05374e-16 0)
(1.12112 -9.57125e-16 0)
(1.12065 -3.19164e-16 0)
(1.12018 -2.28227e-15 0)
(1.1197 6.69812e-16 0)
(1.11921 -2.98568e-16 0)
(1.11872 -1.13429e-15 0)
(1.11823 6.5297e-16 0)
(1.11773 -1.43482e-15 0)
(1.11723 1.41139e-15 0)
(1.11672 -4.19806e-15 0)
(1.11621 9.23487e-16 0)
(1.11569 -3.30081e-16 0)
(1.11517 3.68094e-15 0)
(1.11465 -5.60146e-17 0)
(1.11412 1.58493e-15 0)
(1.11358 -2.88517e-15 0)
(1.11304 3.84143e-15 0)
(1.11249 -7.4493e-15 0)
(1.12517 5.57765e-16 0)
(1.12473 -2.65904e-15 0)
(1.1243 1.41568e-15 0)
(1.12385 -2.36639e-15 0)
(1.12341 2.67621e-16 0)
(1.12296 -2.57957e-15 0)
(1.12251 -8.36944e-16 0)
(1.12205 1.48844e-15 0)
(1.12159 -8.7501e-16 0)
(1.12112 -1.0384e-15 0)
(1.12065 -4.00747e-17 0)
(1.12018 -2.65718e-15 0)
(1.1197 6.1697e-16 0)
(1.11921 -6.77901e-16 0)
(1.11872 -1.09751e-15 0)
(1.11823 7.09015e-16 0)
(1.11773 -1.48588e-15 0)
(1.11723 5.87423e-16 0)
(1.1256 -2.39443e-16 0)
(1.12517 -6.44676e-16 0)
(1.12473 -2.51834e-16 0)
(1.1243 -6.26036e-16 0)
(1.12385 2.6205e-16 0)
(1.12341 -4.64525e-17 0)
(1.12296 2.26013e-16 0)
(1.12251 -2.22121e-16 0)
(1.12205 -3.8568e-16 0)
(1.12159 -1.09822e-18 0)
(1.12112 2.61679e-16 0)
(1.12065 4.23578e-16 0)
(1.12018 -1.02593e-17 0)
(1.1197 6.39391e-17 0)
(1.11921 5.80305e-16 0)
(1.11872 3.39928e-16 0)
(1.11823 -2.04418e-16 0)
(1.11773 3.17653e-16 0)
(1.11723 4.18613e-16 0)
(1.11672 5.13234e-16 0)
(1.11621 4.10554e-16 0)
(1.11569 4.26079e-16 0)
(1.11517 5.67725e-16 0)
(1.11465 9.34203e-17 0)
(1.11412 -3.41795e-16 0)
(1.11358 3.9517e-16 0)
(1.11304 -3.32079e-17 0)
(1.1256 -2.95626e-16 0)
(1.12517 -9.88058e-16 0)
(1.12473 -1.03578e-16 0)
(1.1243 -7.51625e-16 0)
(1.12385 2.35097e-16 0)
(1.12341 -2.64201e-16 0)
(1.12296 5.20492e-16 0)
(1.12251 -7.62404e-16 0)
(1.12205 -8.51172e-16 0)
(1.12159 -3.02919e-16 0)
(1.12112 1.14172e-15 0)
(1.12065 5.18599e-16 0)
(1.12018 -3.70914e-16 0)
(1.1197 1.04305e-16 0)
(1.11921 7.40701e-16 0)
(1.11872 -8.3128e-17 0)
(1.11823 -8.631e-16 0)
(1.11773 1.84923e-16 0)
(1.11723 4.45411e-16 0)
(1.11672 4.68325e-16 0)
(1.11621 2.66007e-16 0)
(1.11569 7.71604e-16 0)
(1.11517 9.13141e-16 0)
(1.11465 4.19189e-16 0)
(1.11412 -2.26681e-16 0)
(1.11358 9.36576e-16 0)
(1.11304 -3.78892e-16 0)
(1.1256 5.71448e-16 0)
(1.12517 -9.10467e-16 0)
(1.12473 4.29679e-16 0)
(1.1243 -1.43979e-15 0)
(1.12385 -1.95203e-16 0)
(1.12341 2.04645e-16 0)
(1.12296 3.25038e-17 0)
(1.12251 -7.5475e-16 0)
(1.12205 -2.256e-16 0)
(1.12159 -4.65083e-16 0)
(1.12112 1.35634e-15 0)
(1.12065 1.95815e-16 0)
(1.12018 -7.3494e-16 0)
(1.1197 -2.04867e-16 0)
(1.11921 7.9258e-16 0)
(1.11872 -4.47537e-17 0)
(1.11823 -9.08012e-16 0)
(1.11773 2.41076e-16 0)
(1.11723 9.3662e-16 0)
(1.11672 1.28794e-15 0)
(1.11621 5.74063e-17 0)
(1.11569 1.04151e-15 0)
(1.11517 1.13744e-15 0)
(1.11465 1.07396e-15 0)
(1.11412 -2.72736e-16 0)
(1.11358 2.08865e-15 0)
(1.11304 -5.03799e-16 0)
(1.1256 7.07871e-16 0)
(1.12517 -7.33747e-16 0)
(1.12473 1.0104e-15 0)
(1.1243 -1.74639e-15 0)
(1.12385 -9.39495e-16 0)
(1.12341 2.72965e-16 0)
(1.12296 -3.1229e-16 0)
(1.12251 4.36068e-17 0)
(1.12205 6.87578e-16 0)
(1.12159 -4.68899e-16 0)
(1.12112 1.27788e-15 0)
(1.12065 -1.07496e-16 0)
(1.12018 -3.00835e-16 0)
(1.1197 -1.50915e-16 0)
(1.11921 8.85883e-16 0)
(1.11872 -9.4424e-16 0)
(1.11823 -4.36883e-16 0)
(1.11773 -2.14635e-16 0)
(1.11723 1.041e-15 0)
(1.11672 1.31133e-15 0)
(1.11621 4.8501e-17 0)
(1.11569 9.59561e-16 0)
(1.11517 1.53785e-15 0)
(1.11465 1.38747e-15 0)
(1.11412 -9.18352e-16 0)
(1.11358 2.2141e-15 0)
(1.11304 -4.54927e-16 0)
(1.1256 1.17477e-15 0)
(1.12517 -5.48248e-16 0)
(1.12473 1.25325e-15 0)
(1.1243 -2.06192e-15 0)
(1.12385 -1.78972e-15 0)
(1.12341 -1.28498e-17 0)
(1.12296 -8.25896e-16 0)
(1.12251 5.52177e-16 0)
(1.12205 5.48187e-16 0)
(1.12159 -2.357e-16 0)
(1.12112 1.51417e-15 0)
(1.12065 1.3988e-16 0)
(1.12018 -3.68082e-16 0)
(1.1197 2.13923e-17 0)
(1.11921 1.57744e-15 0)
(1.11872 -1.40347e-15 0)
(1.11823 -2.00591e-16 0)
(1.11773 -6.40956e-16 0)
(1.11723 1.24724e-15 0)
(1.11672 3.23895e-16 0)
(1.11621 2.4107e-16 0)
(1.11569 1.90121e-16 0)
(1.11517 1.80136e-15 0)
(1.11465 1.44639e-15 0)
(1.11412 -1.48872e-15 0)
(1.11358 2.32043e-15 0)
(1.11304 -7.67422e-16 0)
(1.1256 1.64969e-15 0)
(1.12517 -6.81888e-16 0)
(1.12473 1.20498e-15 0)
(1.1243 -2.27208e-15 0)
(1.12385 -1.26725e-15 0)
(1.12341 1.33913e-16 0)
(1.12296 -1.05017e-15 0)
(1.12251 -3.26284e-16 0)
(1.12205 6.5386e-16 0)
(1.12159 -7.4376e-17 0)
(1.12112 1.08207e-15 0)
(1.12065 8.03873e-16 0)
(1.12018 -7.36682e-16 0)
(1.1197 4.571e-16 0)
(1.11921 1.69948e-15 0)
(1.11872 -7.44279e-16 0)
(1.11823 -1.26726e-16 0)
(1.11773 -6.17092e-16 0)
(1.11723 1.72963e-15 0)
(1.11672 5.82345e-16 0)
(1.11621 -1.01648e-15 0)
(1.11569 -4.00901e-16 0)
(1.11517 1.10329e-15 0)
(1.11465 1.82611e-15 0)
(1.11412 -2.08714e-15 0)
(1.11358 2.90186e-15 0)
(1.11304 -1.24171e-15 0)
(1.1256 1.59953e-15 0)
(1.12517 -1.00888e-15 0)
(1.12473 9.9197e-16 0)
(1.1243 -2.13742e-15 0)
(1.12385 -9.38443e-16 0)
(1.12341 2.59235e-16 0)
(1.12296 -9.36186e-16 0)
(1.12251 -3.59889e-16 0)
(1.12205 6.20084e-16 0)
(1.12159 -1.62341e-16 0)
(1.12112 5.99857e-16 0)
(1.12065 1.0933e-15 0)
(1.12018 -1.29178e-15 0)
(1.1197 6.06461e-16 0)
(1.11921 1.54357e-15 0)
(1.11872 -3.54738e-16 0)
(1.11823 4.72476e-16 0)
(1.11773 -9.42154e-16 0)
(1.11723 1.9193e-15 0)
(1.11672 8.82298e-16 0)
(1.11621 -1.85694e-15 0)
(1.11569 -3.42313e-16 0)
(1.11517 8.34557e-16 0)
(1.11465 1.92828e-15 0)
(1.11412 -2.6162e-15 0)
(1.11358 3.85029e-15 0)
(1.11304 -1.63856e-15 0)
(1.1256 1.48007e-15 0)
(1.12517 -1.36716e-15 0)
(1.12473 9.47067e-16 0)
(1.1243 -2.51318e-15 0)
(1.12385 -6.56242e-16 0)
(1.12341 -1.20098e-16 0)
(1.12296 1.68472e-16 0)
(1.12251 2.89624e-16 0)
(1.12205 5.37916e-16 0)
(1.12159 -1.30421e-16 0)
(1.12112 1.94911e-16 0)
(1.12065 1.44716e-15 0)
(1.12018 -1.37469e-15 0)
(1.1197 -2.92724e-16 0)
(1.11921 1.25689e-15 0)
(1.11872 3.74667e-16 0)
(1.11823 1.2235e-15 0)
(1.11773 -1.49471e-15 0)
(1.11723 8.59944e-16 0)
(1.11672 9.53405e-16 0)
(1.11621 -2.27897e-15 0)
(1.11569 9.38048e-17 0)
(1.11517 3.72588e-16 0)
(1.11465 2.07149e-15 0)
(1.11412 -3.03794e-15 0)
(1.11358 4.08661e-15 0)
(1.11304 -2.36779e-15 0)
(1.1256 1.27435e-15 0)
(1.12517 -1.82687e-15 0)
(1.12473 1.29731e-15 0)
(1.1243 -2.76095e-15 0)
(1.12385 -3.7983e-16 0)
(1.12341 -3.69961e-17 0)
(1.12296 8.0418e-16 0)
(1.12251 6.45004e-16 0)
(1.12205 8.76189e-16 0)
(1.12159 8.50745e-17 0)
(1.12112 4.80546e-16 0)
(1.12065 1.94114e-15 0)
(1.12018 -1.07432e-15 0)
(1.1197 -1.32315e-15 0)
(1.11921 9.65658e-16 0)
(1.11872 7.40093e-16 0)
(1.11823 1.74171e-15 0)
(1.11773 -2.36839e-15 0)
(1.11723 1.17913e-15 0)
(1.11672 7.60918e-16 0)
(1.11621 -3.09656e-15 0)
(1.11569 6.06612e-16 0)
(1.11517 -3.64597e-16 0)
(1.11465 2.6776e-15 0)
(1.11412 -3.465e-15 0)
(1.11358 3.73177e-15 0)
(1.11304 -3.0683e-15 0)
(1.1256 8.47403e-16 0)
(1.12517 -2.22869e-15 0)
(1.12473 9.71997e-16 0)
(1.1243 -2.36867e-15 0)
(1.12385 -1.12759e-16 0)
(1.12341 7.06819e-16 0)
(1.12296 1.17952e-15 0)
(1.12251 5.91232e-16 0)
(1.12205 8.43624e-16 0)
(1.12159 2.26712e-16 0)
(1.12112 6.33112e-16 0)
(1.12065 2.60559e-15 0)
(1.12018 -8.58562e-16 0)
(1.1197 -1.45134e-15 0)
(1.11921 1.20105e-15 0)
(1.11872 5.49534e-16 0)
(1.11823 1.84652e-15 0)
(1.11773 -2.7924e-15 0)
(1.11723 1.4158e-15 0)
(1.11672 5.84399e-16 0)
(1.11621 -3.58238e-15 0)
(1.11569 1.05525e-15 0)
(1.11517 -1.87957e-15 0)
(1.11465 2.53933e-15 0)
(1.11412 -3.52201e-15 0)
(1.11358 3.38731e-15 0)
(1.11304 -3.66197e-15 0)
(1.1256 9.29587e-17 0)
(1.12517 -2.13258e-15 0)
(1.12473 1.93492e-16 0)
(1.1243 -2.27004e-15 0)
(1.12385 6.46996e-16 0)
(1.12341 2.1083e-15 0)
(1.12296 1.58829e-15 0)
(1.12251 6.21466e-16 0)
(1.12205 7.93312e-16 0)
(1.12159 -8.56859e-17 0)
(1.12112 4.5345e-16 0)
(1.12065 2.55926e-15 0)
(1.12018 -3.27908e-16 0)
(1.1197 -9.59865e-16 0)
(1.11921 1.98647e-15 0)
(1.11872 1.61341e-16 0)
(1.11823 2.07172e-15 0)
(1.11773 -3.19904e-15 0)
(1.11723 2.8762e-15 0)
(1.11672 3.28618e-16 0)
(1.11621 -4.08827e-15 0)
(1.11569 1.10976e-15 0)
(1.11517 -3.60396e-15 0)
(1.11465 3.05948e-15 0)
(1.11412 -3.49925e-15 0)
(1.11358 2.72129e-15 0)
(1.11304 -3.65426e-15 0)
(1.1256 -3.38932e-16 0)
(1.12517 -1.89452e-15 0)
(1.12473 -2.91719e-16 0)
(1.1243 -2.36878e-15 0)
(1.12385 5.00534e-16 0)
(1.12341 3.0368e-15 0)
(1.12296 1.17851e-15 0)
(1.12251 1.29416e-15 0)
(1.12205 1.00695e-15 0)
(1.12159 -4.40281e-16 0)
(1.12112 8.36451e-16 0)
(1.12065 2.07936e-15 0)
(1.12018 -5.67684e-16 0)
(1.1197 -6.40213e-16 0)
(1.11921 1.97315e-15 0)
(1.11872 -3.02894e-17 0)
(1.11823 1.69875e-15 0)
(1.11773 -3.59658e-15 0)
(1.11723 4.14857e-15 0)
(1.11672 6.54034e-16 0)
(1.11621 -4.4995e-15 0)
(1.11569 1.16647e-15 0)
(1.11517 -4.00119e-15 0)
(1.11465 4.09762e-15 0)
(1.11412 -3.69216e-15 0)
(1.11358 1.96244e-15 0)
(1.11304 -2.9267e-15 0)
(1.1256 -7.95231e-17 0)
(1.12517 -2.2075e-15 0)
(1.12473 -7.18344e-16 0)
(1.1243 -2.45102e-15 0)
(1.12385 -4.60506e-17 0)
(1.12341 3.13959e-15 0)
(1.12296 7.15248e-16 0)
(1.12251 2.00522e-15 0)
(1.12205 9.1475e-16 0)
(1.12159 -4.39575e-16 0)
(1.12112 1.29989e-15 0)
(1.12065 1.09961e-15 0)
(1.12018 -3.62487e-16 0)
(1.1197 9.75087e-17 0)
(1.11921 1.40051e-15 0)
(1.11872 -2.15947e-16 0)
(1.11823 8.77619e-16 0)
(1.11773 -3.3854e-15 0)
(1.11723 4.84502e-15 0)
(1.11672 6.63653e-16 0)
(1.11621 -4.1229e-15 0)
(1.11569 1.39994e-15 0)
(1.11517 -4.26253e-15 0)
(1.11465 4.03571e-15 0)
(1.11412 -4.07101e-15 0)
(1.11358 1.77332e-15 0)
(1.11304 -2.66763e-15 0)
(1.1256 5.18784e-16 0)
(1.12517 -1.30811e-15 0)
(1.12473 -4.50095e-16 0)
(1.1243 -2.26501e-15 0)
(1.12385 -3.00913e-16 0)
(1.12341 3.43192e-15 0)
(1.12296 9.93847e-16 0)
(1.12251 1.53296e-15 0)
(1.12205 1.23066e-15 0)
(1.12159 -9.75267e-16 0)
(1.12112 1.17834e-15 0)
(1.12065 6.48915e-16 0)
(1.12018 -2.80314e-16 0)
(1.1197 8.24003e-16 0)
(1.11921 1.66661e-15 0)
(1.11872 1.89306e-17 0)
(1.11823 5.8691e-16 0)
(1.11773 -2.4838e-15 0)
(1.11723 5.5578e-15 0)
(1.11672 1.66861e-16 0)
(1.11621 -3.72042e-15 0)
(1.11569 2.07909e-15 0)
(1.11517 -5.14475e-15 0)
(1.11465 4.7109e-15 0)
(1.11412 -4.51132e-15 0)
(1.11358 1.72742e-15 0)
(1.11304 -2.36035e-15 0)
(1.1256 7.24648e-16 0)
(1.12517 -7.45238e-16 0)
(1.12473 1.58257e-16 0)
(1.1243 -1.16771e-15 0)
(1.12385 -1.41417e-16 0)
(1.12341 2.77692e-15 0)
(1.12296 1.43871e-15 0)
(1.12251 6.32516e-16 0)
(1.12205 1.27219e-15 0)
(1.12159 -1.31535e-15 0)
(1.12112 8.66981e-16 0)
(1.12065 4.6814e-16 0)
(1.12018 6.72311e-17 0)
(1.1197 1.41364e-15 0)
(1.11921 1.28768e-15 0)
(1.11872 -5.88318e-17 0)
(1.11823 2.83477e-16 0)
(1.11773 -2.5725e-15 0)
(1.11723 6.20936e-15 0)
(1.11672 -2.10264e-16 0)
(1.11621 -3.07478e-15 0)
(1.11569 2.82514e-15 0)
(1.11517 -5.51451e-15 0)
(1.11465 5.39919e-15 0)
(1.11412 -4.99764e-15 0)
(1.11358 8.60705e-16 0)
(1.11304 -1.70117e-15 0)
(1.1256 9.89437e-16 0)
(1.12517 -6.4617e-16 0)
(1.12473 7.13931e-16 0)
(1.1243 -2.19556e-16 0)
(1.12385 5.39398e-17 0)
(1.12341 1.94817e-15 0)
(1.12296 1.2012e-15 0)
(1.12251 -1.13575e-16 0)
(1.12205 1.34312e-15 0)
(1.12159 -1.31782e-15 0)
(1.12112 7.5192e-16 0)
(1.12065 9.72653e-16 0)
(1.12018 3.18312e-16 0)
(1.1197 1.36029e-15 0)
(1.11921 7.29962e-16 0)
(1.11872 -8.99001e-16 0)
(1.11823 -2.35562e-16 0)
(1.11773 -3.00424e-15 0)
(1.11723 6.23312e-15 0)
(1.11672 -3.04827e-16 0)
(1.11621 -2.37539e-15 0)
(1.11569 3.28544e-15 0)
(1.11517 -6.11716e-15 0)
(1.11465 5.92421e-15 0)
(1.11412 -5.40445e-15 0)
(1.11358 5.94333e-16 0)
(1.11304 -1.27723e-15 0)
(1.1256 7.04827e-16 0)
(1.12517 -2.38899e-16 0)
(1.12473 1.19174e-15 0)
(1.1243 -4.01413e-16 0)
(1.12385 -5.66027e-16 0)
(1.12341 1.42537e-15 0)
(1.12296 1.45843e-15 0)
(1.12251 -2.70491e-16 0)
(1.12205 1.38561e-15 0)
(1.12159 -1.45163e-15 0)
(1.12112 6.10279e-16 0)
(1.12065 1.68131e-15 0)
(1.12018 5.14826e-16 0)
(1.1197 1.37264e-15 0)
(1.11921 1.21891e-15 0)
(1.11872 -1.11512e-15 0)
(1.11823 -4.7985e-16 0)
(1.11773 -3.02173e-15 0)
(1.11723 5.5335e-15 0)
(1.11672 -9.08418e-16 0)
(1.11621 -1.96429e-15 0)
(1.11569 4.06074e-15 0)
(1.11517 -6.17718e-15 0)
(1.11465 6.50024e-15 0)
(1.11412 -5.4313e-15 0)
(1.11358 3.44782e-17 0)
(1.11304 -1.37578e-15 0)
(1.1256 3.47937e-16 0)
(1.12517 5.80979e-17 0)
(1.12473 1.44699e-15 0)
(1.1243 -1.24275e-17 0)
(1.12385 -7.4928e-16 0)
(1.12341 7.2616e-16 0)
(1.12296 1.36292e-15 0)
(1.12251 -8.47888e-16 0)
(1.12205 1.78841e-15 0)
(1.12159 -1.04238e-15 0)
(1.12112 1.11425e-16 0)
(1.12065 1.91003e-15 0)
(1.12018 4.23795e-16 0)
(1.1197 1.31629e-15 0)
(1.11921 1.37795e-15 0)
(1.11872 -4.8156e-16 0)
(1.11823 -4.9745e-16 0)
(1.11773 -2.67864e-15 0)
(1.11723 4.8073e-15 0)
(1.11672 -1.60496e-15 0)
(1.11621 -2.16016e-15 0)
(1.11569 5.01278e-15 0)
(1.11517 -6.01981e-15 0)
(1.11465 6.74351e-15 0)
(1.11412 -5.14622e-15 0)
(1.11358 -9.31306e-16 0)
(1.11304 -1.29382e-15 0)
(1.1256 -1.74233e-16 0)
(1.12517 -4.92945e-16 0)
(1.12473 1.02367e-15 0)
(1.1243 -5.7525e-17 0)
(1.12385 -9.39388e-16 0)
(1.12341 2.97576e-16 0)
(1.12296 6.98727e-16 0)
(1.12251 -9.70866e-16 0)
(1.12205 1.82488e-15 0)
(1.12159 -4.37831e-16 0)
(1.12112 8.29254e-18 0)
(1.12065 1.82824e-15 0)
(1.12018 -5.44662e-16 0)
(1.1197 1.06054e-15 0)
(1.11921 1.68546e-15 0)
(1.11872 -6.94764e-16 0)
(1.11823 -5.76046e-16 0)
(1.11773 -3.05044e-15 0)
(1.11723 4.4723e-15 0)
(1.11672 -2.11639e-15 0)
(1.11621 -2.1409e-15 0)
(1.11569 5.5424e-15 0)
(1.11517 -6.46966e-15 0)
(1.11465 6.24927e-15 0)
(1.11412 -4.27916e-15 0)
(1.11358 -9.57918e-16 0)
(1.11304 -1.90137e-15 0)
(1.1256 -5.26279e-18 0)
(1.12517 -7.76595e-16 0)
(1.12473 9.25341e-16 0)
(1.1243 -2.51274e-17 0)
(1.12385 -1.02882e-15 0)
(1.12341 -1.26765e-16 0)
(1.12296 6.62215e-16 0)
(1.12251 -9.06075e-16 0)
(1.12205 1.17076e-15 0)
(1.12159 3.20472e-16 0)
(1.12112 3.04822e-16 0)
(1.12065 1.69424e-15 0)
(1.12018 -1.5174e-15 0)
(1.1197 1.61081e-15 0)
(1.11921 1.59479e-15 0)
(1.11872 -8.21799e-16 0)
(1.11823 1.96794e-16 0)
(1.11773 -3.73552e-15 0)
(1.11723 3.26819e-15 0)
(1.11672 -2.10398e-15 0)
(1.11621 -2.1176e-15 0)
(1.11569 5.76409e-15 0)
(1.11517 -6.69674e-15 0)
(1.11465 5.98091e-15 0)
(1.11412 -3.65718e-15 0)
(1.11358 -1.07154e-15 0)
(1.11304 -1.89847e-15 0)
(1.1256 -1.89121e-16 0)
(1.12517 -5.98234e-16 0)
(1.12473 1.08774e-15 0)
(1.1243 1.8103e-16 0)
(1.12385 -8.35162e-16 0)
(1.12341 1.05009e-16 0)
(1.12296 1.46641e-15 0)
(1.12251 -1.42972e-15 0)
(1.12205 6.45419e-16 0)
(1.12159 4.00938e-16 0)
(1.12112 -1.00937e-16 0)
(1.12065 1.12881e-15 0)
(1.12018 -2.33335e-15 0)
(1.1197 1.49718e-15 0)
(1.11921 1.71579e-15 0)
(1.11872 -1.35518e-15 0)
(1.11823 1.1837e-15 0)
(1.11773 -3.27171e-15 0)
(1.11723 2.75619e-15 0)
(1.11672 -1.19628e-15 0)
(1.11621 -2.30226e-15 0)
(1.11569 6.06784e-15 0)
(1.11517 -6.84682e-15 0)
(1.11465 6.08628e-15 0)
(1.11412 -2.89423e-15 0)
(1.11358 -1.18396e-15 0)
(1.11304 -1.51668e-15 0)
(1.1256 -7.1259e-17 0)
(1.12517 -6.49822e-16 0)
(1.12473 7.65983e-16 0)
(1.1243 4.5714e-16 0)
(1.12385 -4.1063e-16 0)
(1.12341 1.26312e-16 0)
(1.12296 1.43623e-15 0)
(1.12251 -1.18101e-15 0)
(1.12205 7.80613e-16 0)
(1.12159 3.9989e-16 0)
(1.12112 -4.67552e-16 0)
(1.12065 6.2938e-16 0)
(1.12018 -2.07676e-15 0)
(1.1197 1.58811e-15 0)
(1.11921 2.102e-15 0)
(1.11872 -1.64482e-15 0)
(1.11823 2.30874e-15 0)
(1.11773 -3.11384e-15 0)
(1.11723 2.17913e-15 0)
(1.11672 -8.38677e-16 0)
(1.11621 -2.55394e-15 0)
(1.11569 5.74151e-15 0)
(1.11517 -6.52011e-15 0)
(1.11465 5.66655e-15 0)
(1.11412 -2.80219e-15 0)
(1.11358 -8.11893e-16 0)
(1.11304 -1.35452e-15 0)
(1.1256 6.03174e-17 0)
(1.12517 -8.19082e-16 0)
(1.12473 7.02819e-16 0)
(1.1243 9.55773e-16 0)
(1.12385 -9.02461e-18 0)
(1.12341 -1.54207e-16 0)
(1.12296 1.36762e-15 0)
(1.12251 -1.35107e-15 0)
(1.12205 4.88526e-16 0)
(1.12159 4.52813e-16 0)
(1.12112 -5.74274e-16 0)
(1.12065 6.98467e-16 0)
(1.12018 -1.31594e-15 0)
(1.1197 1.9075e-15 0)
(1.11921 1.81217e-15 0)
(1.11872 -1.48051e-15 0)
(1.11823 3.22483e-15 0)
(1.11773 -3.30656e-15 0)
(1.11723 1.61562e-15 0)
(1.11672 -6.32742e-16 0)
(1.11621 -2.44477e-15 0)
(1.11569 5.68825e-15 0)
(1.11517 -5.7861e-15 0)
(1.11465 4.54319e-15 0)
(1.11412 -2.77787e-15 0)
(1.11358 -5.33011e-16 0)
(1.11304 -8.01257e-16 0)
(1.1256 6.54056e-17 0)
(1.12517 -1.12151e-15 0)
(1.12473 6.76122e-16 0)
(1.1243 1.01141e-15 0)
(1.12385 -1.43548e-17 0)
(1.12341 1.96663e-16 0)
(1.12296 1.40322e-15 0)
(1.12251 -1.3523e-15 0)
(1.12205 -2.74772e-17 0)
(1.12159 5.01223e-16 0)
(1.12112 -1.15482e-15 0)
(1.12065 3.60404e-16 0)
(1.12018 -1.04655e-15 0)
(1.1197 2.10143e-15 0)
(1.11921 1.27888e-15 0)
(1.11872 -1.13396e-15 0)
(1.11823 3.62476e-15 0)
(1.11773 -3.04553e-15 0)
(1.11723 8.85135e-16 0)
(1.11672 -1.2332e-15 0)
(1.11621 -2.08253e-15 0)
(1.11569 5.73441e-15 0)
(1.11517 -5.55067e-15 0)
(1.11465 3.38282e-15 0)
(1.11412 -2.00457e-15 0)
(1.11358 4.4271e-16 0)
(1.11304 -6.03808e-16 0)
(1.1256 2.6824e-16 0)
(1.12517 -4.99237e-16 0)
(1.12473 3.07153e-16 0)
(1.1243 1.21952e-15 0)
(1.12385 3.03743e-16 0)
(1.12341 -1.16106e-16 0)
(1.12296 1.3955e-15 0)
(1.12251 -1.52395e-15 0)
(1.12205 -4.07263e-16 0)
(1.12159 8.63247e-17 0)
(1.12112 -1.39992e-15 0)
(1.12065 2.50759e-16 0)
(1.12018 -1.10829e-15 0)
(1.1197 1.71282e-15 0)
(1.11921 1.76677e-15 0)
(1.11872 -2.18998e-16 0)
(1.11823 3.4989e-15 0)
(1.11773 -2.80323e-15 0)
(1.11723 4.34178e-16 0)
(1.11672 -1.83226e-15 0)
(1.11621 -1.98855e-15 0)
(1.11569 5.03923e-15 0)
(1.11517 -5.93283e-15 0)
(1.11465 2.63022e-15 0)
(1.11412 -1.35699e-15 0)
(1.11358 1.4845e-15 0)
(1.11304 -7.92519e-16 0)
(1.1256 -2.06558e-17 0)
(1.12517 -1.65275e-16 0)
(1.12473 -3.7417e-16 0)
(1.1243 1.29299e-15 0)
(1.12385 7.56626e-16 0)
(1.12341 -5.73388e-16 0)
(1.12296 9.94335e-16 0)
(1.12251 -2.05196e-15 0)
(1.12205 -5.1282e-16 0)
(1.12159 2.09782e-16 0)
(1.12112 -1.4498e-15 0)
(1.12065 2.09896e-17 0)
(1.12018 -1.13423e-15 0)
(1.1197 2.12878e-15 0)
(1.11921 2.43399e-15 0)
(1.11872 -2.73534e-16 0)
(1.11823 3.52782e-15 0)
(1.11773 -3.04733e-15 0)
(1.11723 4.22135e-17 0)
(1.11672 -1.49218e-15 0)
(1.11621 -2.28967e-15 0)
(1.11569 4.76363e-15 0)
(1.11517 -5.51172e-15 0)
(1.11465 1.75956e-15 0)
(1.11412 -1.07972e-15 0)
(1.11358 2.0401e-15 0)
(1.11304 -6.29622e-16 0)
(1.1256 -5.24194e-16 0)
(1.12517 -2.96654e-16 0)
(1.12473 -9.8655e-18 0)
(1.1243 9.6103e-16 0)
(1.12385 9.25627e-16 0)
(1.12341 -5.43329e-16 0)
(1.12296 5.86204e-16 0)
(1.12251 -2.44604e-15 0)
(1.12205 -2.78547e-16 0)
(1.12159 6.38099e-17 0)
(1.12112 -1.52858e-15 0)
(1.12065 1.28331e-16 0)
(1.12018 -7.36551e-16 0)
(1.1197 2.31889e-15 0)
(1.11921 2.96162e-15 0)
(1.11872 -7.17852e-16 0)
(1.11823 4.28529e-15 0)
(1.11773 -3.29168e-15 0)
(1.11723 3.16425e-16 0)
(1.11672 -1.05342e-15 0)
(1.11621 -2.77003e-15 0)
(1.11569 4.69525e-15 0)
(1.11517 -4.99649e-15 0)
(1.11465 1.69091e-15 0)
(1.11412 -1.30879e-15 0)
(1.11358 2.43584e-15 0)
(1.11304 -7.53233e-16 0)
(1.1256 -1.03835e-15 0)
(1.12517 -5.0174e-16 0)
(1.12473 6.30653e-16 0)
(1.1243 5.71204e-16 0)
(1.12385 1.11222e-15 0)
(1.12341 -7.93429e-16 0)
(1.12296 3.08816e-16 0)
(1.12251 -2.68833e-15 0)
(1.12205 8.63522e-17 0)
(1.12159 -1.02538e-18 0)
(1.12112 -1.82162e-15 0)
(1.12065 -3.17578e-16 0)
(1.12018 -7.00458e-17 0)
(1.1197 2.8604e-15 0)
(1.11921 2.80404e-15 0)
(1.11872 -8.5504e-16 0)
(1.11823 4.37704e-15 0)
(1.11773 -3.46684e-15 0)
(1.11723 2.43447e-16 0)
(1.11672 -3.19715e-16 0)
(1.11621 -3.33529e-15 0)
(1.11569 4.57481e-15 0)
(1.11517 -4.59383e-15 0)
(1.11465 1.90691e-15 0)
(1.11412 -1.09479e-15 0)
(1.11358 2.97644e-15 0)
(1.11304 -1.06408e-15 0)
(1.1256 -1.70388e-15 0)
(1.12517 -6.05098e-16 0)
(1.12473 1.08192e-15 0)
(1.1243 5.94278e-16 0)
(1.12385 1.1714e-15 0)
(1.12341 -5.59612e-16 0)
(1.12296 3.52058e-16 0)
(1.12251 -2.85809e-15 0)
(1.12205 6.36108e-16 0)
(1.12159 2.78363e-17 0)
(1.12112 -1.31454e-15 0)
(1.12065 -4.17223e-16 0)
(1.12018 5.18065e-16 0)
(1.1197 2.78754e-15 0)
(1.11921 2.29221e-15 0)
(1.11872 -5.82539e-16 0)
(1.11823 4.05687e-15 0)
(1.11773 -3.5195e-15 0)
(1.11723 -2.6722e-16 0)
(1.11672 2.16846e-16 0)
(1.11621 -3.7769e-15 0)
(1.11569 4.42378e-15 0)
(1.11517 -4.0762e-15 0)
(1.11465 2.13645e-15 0)
(1.11412 -1.31596e-15 0)
(1.11358 2.90419e-15 0)
(1.11304 -1.74251e-15 0)
(1.1256 -2.01682e-15 0)
(1.12517 -3.52865e-16 0)
(1.12473 1.43989e-15 0)
(1.1243 7.29006e-16 0)
(1.12385 7.87105e-16 0)
(1.12341 -7.90222e-16 0)
(1.12296 9.99943e-16 0)
(1.12251 -2.45654e-15 0)
(1.12205 9.6246e-16 0)
(1.12159 -5.3269e-17 0)
(1.12112 -6.17116e-16 0)
(1.12065 -1.44491e-16 0)
(1.12018 4.93595e-16 0)
(1.1197 2.93972e-15 0)
(1.11921 2.84668e-15 0)
(1.11872 -3.80138e-16 0)
(1.11823 3.53516e-15 0)
(1.11773 -3.37178e-15 0)
(1.11723 -1.07094e-15 0)
(1.11672 2.93585e-16 0)
(1.11621 -3.89947e-15 0)
(1.11569 4.39592e-15 0)
(1.11517 -3.76385e-15 0)
(1.11465 2.12022e-15 0)
(1.11412 -1.86403e-15 0)
(1.11358 3.17422e-15 0)
(1.11304 -2.18925e-15 0)
(1.1256 -1.7327e-15 0)
(1.12517 6.222e-17 0)
(1.12473 1.65839e-15 0)
(1.1243 6.18944e-16 0)
(1.12385 2.32837e-16 0)
(1.12341 -1.06103e-15 0)
(1.12296 1.19019e-15 0)
(1.12251 -1.31535e-15 0)
(1.12205 8.70511e-16 0)
(1.12159 1.88296e-16 0)
(1.12112 -2.67471e-16 0)
(1.12065 -3.0221e-16 0)
(1.12018 1.8035e-16 0)
(1.1197 3.14615e-15 0)
(1.11921 2.38887e-15 0)
(1.11872 -1.12536e-15 0)
(1.11823 3.49325e-15 0)
(1.11773 -3.03631e-15 0)
(1.11723 -1.55628e-15 0)
(1.11672 1.59149e-16 0)
(1.11621 -3.86184e-15 0)
(1.11569 4.62844e-15 0)
(1.11517 -3.43084e-15 0)
(1.11465 1.78294e-15 0)
(1.11412 -2.07961e-15 0)
(1.11358 3.6902e-15 0)
(1.11304 -2.41804e-15 0)
(1.1256 -1.68078e-15 0)
(1.12517 3.23062e-17 0)
(1.12473 1.74878e-15 0)
(1.1243 3.12585e-16 0)
(1.12385 -2.97618e-16 0)
(1.12341 -8.35691e-16 0)
(1.12296 1.62141e-15 0)
(1.12251 -4.2324e-16 0)
(1.12205 1.25132e-15 0)
(1.12159 4.92155e-16 0)
(1.12112 2.76299e-16 0)
(1.12065 8.94922e-18 0)
(1.12018 -4.89725e-17 0)
(1.1197 2.72614e-15 0)
(1.11921 2.09529e-15 0)
(1.11872 -1.0097e-15 0)
(1.11823 3.4297e-15 0)
(1.11773 -2.41383e-15 0)
(1.11723 -1.45985e-15 0)
(1.11672 2.4306e-16 0)
(1.11621 -4.04228e-15 0)
(1.11569 4.76303e-15 0)
(1.11517 -1.96758e-15 0)
(1.11465 1.25187e-15 0)
(1.11412 -2.65562e-15 0)
(1.11358 3.68393e-15 0)
(1.11304 -2.02814e-15 0)
(1.1256 -1.76903e-15 0)
(1.12517 -2.13621e-16 0)
(1.12473 1.70111e-15 0)
(1.1243 2.48513e-16 0)
(1.12385 -6.40845e-16 0)
(1.12341 -5.2632e-16 0)
(1.12296 1.69091e-15 0)
(1.12251 -6.36373e-16 0)
(1.12205 1.32947e-15 0)
(1.12159 7.53364e-16 0)
(1.12112 1.33549e-15 0)
(1.12065 8.79534e-17 0)
(1.12018 -3.77365e-17 0)
(1.1197 2.02084e-15 0)
(1.11921 2.14679e-15 0)
(1.11872 -1.23815e-15 0)
(1.11823 3.33103e-15 0)
(1.11773 -1.83176e-15 0)
(1.11723 -1.71397e-15 0)
(1.11672 1.16634e-15 0)
(1.11621 -4.02216e-15 0)
(1.11569 4.49473e-15 0)
(1.11517 -1.76706e-15 0)
(1.11465 3.96511e-16 0)
(1.11412 -3.17027e-15 0)
(1.11358 4.27826e-15 0)
(1.11304 -1.33289e-15 0)
(1.1256 -1.42973e-15 0)
(1.12517 -3.07501e-16 0)
(1.12473 1.39861e-15 0)
(1.1243 4.68832e-16 0)
(1.12385 -5.38999e-16 0)
(1.12341 -5.19573e-16 0)
(1.12296 1.1976e-15 0)
(1.12251 -1.2042e-15 0)
(1.12205 1.29107e-15 0)
(1.12159 9.3095e-16 0)
(1.12112 1.93102e-15 0)
(1.12065 -3.10205e-16 0)
(1.12018 -4.12106e-16 0)
(1.1197 1.45803e-15 0)
(1.11921 2.48209e-15 0)
(1.11872 -1.74192e-15 0)
(1.11823 3.47187e-15 0)
(1.11773 -1.39188e-15 0)
(1.11723 -1.94558e-15 0)
(1.11672 2.75308e-15 0)
(1.11621 -3.95498e-15 0)
(1.11569 4.22314e-15 0)
(1.11517 -1.23489e-15 0)
(1.11465 -5.33426e-16 0)
(1.11412 -3.3037e-15 0)
(1.11358 4.31322e-15 0)
(1.11304 -1.48809e-16 0)
(1.1256 -9.48984e-16 0)
(1.12517 -1.72146e-16 0)
(1.12473 1.15323e-15 0)
(1.1243 2.22035e-16 0)
(1.12385 -9.49481e-16 0)
(1.12341 -9.63915e-16 0)
(1.12296 1.03835e-15 0)
(1.12251 -1.16209e-15 0)
(1.12205 7.12204e-16 0)
(1.12159 1.27095e-15 0)
(1.12112 1.55401e-15 0)
(1.12065 3.02908e-16 0)
(1.12018 -1.07292e-15 0)
(1.1197 7.62981e-16 0)
(1.11921 2.48584e-15 0)
(1.11872 -2.15401e-15 0)
(1.11823 3.14598e-15 0)
(1.11773 -8.84397e-16 0)
(1.11723 -1.91569e-15 0)
(1.11672 4.3152e-15 0)
(1.11621 -3.7851e-15 0)
(1.11569 4.38328e-15 0)
(1.11517 -4.66017e-16 0)
(1.11465 -1.24916e-15 0)
(1.11412 -2.98815e-15 0)
(1.11358 4.95933e-15 0)
(1.11304 1.13327e-15 0)
(1.1256 -3.10999e-16 0)
(1.12517 -4.07893e-16 0)
(1.12473 1.31013e-15 0)
(1.1243 -3.41618e-16 0)
(1.12385 -1.12886e-15 0)
(1.12341 -9.96108e-16 0)
(1.12296 1.13929e-15 0)
(1.12251 -9.06717e-16 0)
(1.12205 1.03528e-16 0)
(1.12159 1.00055e-15 0)
(1.12112 1.92947e-15 0)
(1.12065 6.77474e-16 0)
(1.12018 -1.69399e-15 0)
(1.1197 2.41379e-16 0)
(1.11921 2.48374e-15 0)
(1.11872 -2.24168e-15 0)
(1.11823 3.26178e-15 0)
(1.11773 2.45652e-16 0)
(1.11723 -2.30028e-15 0)
(1.11672 4.80576e-15 0)
(1.11621 -3.55182e-15 0)
(1.11569 4.0665e-15 0)
(1.11517 -7.78782e-16 0)
(1.11465 -1.44953e-15 0)
(1.11412 -3.23053e-15 0)
(1.11358 5.14292e-15 0)
(1.11304 1.95991e-15 0)
(1.1256 -4.59006e-16 0)
(1.12517 -1.16799e-15 0)
(1.12473 1.3039e-15 0)
(1.1243 -9.74895e-16 0)
(1.12385 -1.32192e-15 0)
(1.12341 -1.16891e-15 0)
(1.12296 1.1652e-15 0)
(1.12251 1.73916e-16 0)
(1.12205 -1.31537e-16 0)
(1.12159 6.1737e-16 0)
(1.12112 2.27433e-15 0)
(1.12065 5.19677e-16 0)
(1.12018 -1.52241e-15 0)
(1.1197 1.53193e-16 0)
(1.11921 2.14897e-15 0)
(1.11872 -2.18243e-15 0)
(1.11823 3.03387e-15 0)
(1.11773 1.02124e-15 0)
(1.11723 -2.7913e-15 0)
(1.11672 4.76248e-15 0)
(1.11621 -3.50333e-15 0)
(1.11569 3.13846e-15 0)
(1.11517 -1.62293e-15 0)
(1.11465 -2.05863e-15 0)
(1.11412 -3.16958e-15 0)
(1.11358 5.22299e-15 0)
(1.11304 2.26021e-15 0)
(1.1256 -2.58811e-16 0)
(1.12517 -9.74879e-16 0)
(1.12473 1.36654e-15 0)
(1.1243 -8.67019e-16 0)
(1.12385 -1.54668e-15 0)
(1.12341 -1.4541e-15 0)
(1.12296 9.99658e-16 0)
(1.12251 7.57379e-16 0)
(1.12205 -4.9776e-16 0)
(1.12159 4.86945e-16 0)
(1.12112 2.63871e-15 0)
(1.12065 1.32099e-16 0)
(1.12018 -9.95583e-16 0)
(1.1197 1.76027e-16 0)
(1.11921 2.09834e-15 0)
(1.11872 -2.14512e-15 0)
(1.11823 3.00255e-15 0)
(1.11773 7.15884e-16 0)
(1.11723 -3.55638e-15 0)
(1.11672 4.83166e-15 0)
(1.11621 -3.45347e-15 0)
(1.11569 2.13619e-15 0)
(1.11517 -1.57568e-15 0)
(1.11465 -2.42725e-15 0)
(1.11412 -2.96836e-15 0)
(1.11358 5.45995e-15 0)
(1.11304 1.03192e-15 0)
(1.1256 6.80927e-16 0)
(1.12517 -5.4228e-16 0)
(1.12473 1.28137e-15 0)
(1.1243 1.08105e-17 0)
(1.12385 -1.70803e-15 0)
(1.12341 -1.91433e-15 0)
(1.12296 1.09823e-15 0)
(1.12251 2.20156e-16 0)
(1.12205 -7.52038e-16 0)
(1.12159 6.45852e-16 0)
(1.12112 2.40264e-15 0)
(1.12065 1.23578e-16 0)
(1.12018 -5.37914e-16 0)
(1.1197 4.32665e-16 0)
(1.11921 2.32645e-15 0)
(1.11872 -2.24027e-15 0)
(1.11823 3.15553e-15 0)
(1.11773 7.83393e-16 0)
(1.11723 -4.00753e-15 0)
(1.11672 4.00803e-15 0)
(1.11621 -3.11739e-15 0)
(1.11569 1.76208e-15 0)
(1.11517 -1.26285e-15 0)
(1.11465 -2.24984e-15 0)
(1.11412 -2.84266e-15 0)
(1.11358 5.55662e-15 0)
(1.11304 -4.55186e-16 0)
(1.1256 4.41121e-16 0)
(1.12517 -1.03475e-16 0)
(1.12473 9.77038e-16 0)
(1.1243 2.52922e-16 0)
(1.12385 -9.39414e-16 0)
(1.12341 -2.38566e-15 0)
(1.12296 1.095e-15 0)
(1.12251 9.17267e-16 0)
(1.12205 -2.68039e-16 0)
(1.12159 8.57252e-16 0)
(1.12112 1.85296e-15 0)
(1.12065 1.99208e-17 0)
(1.12018 -2.08576e-16 0)
(1.1197 3.71525e-16 0)
(1.11921 2.2345e-15 0)
(1.11872 -2.54084e-15 0)
(1.11823 2.53647e-15 0)
(1.11773 1.91488e-15 0)
(1.11723 -3.66375e-15 0)
(1.11672 2.96157e-15 0)
(1.11621 -2.68905e-15 0)
(1.11569 1.57854e-15 0)
(1.11517 -1.09342e-15 0)
(1.11465 -1.7135e-15 0)
(1.11412 -2.75582e-15 0)
(1.11358 5.45572e-15 0)
(1.11304 -8.98106e-16 0)
(1.1256 3.43346e-16 0)
(1.12517 -6.03892e-16 0)
(1.12473 8.56601e-16 0)
(1.1243 5.5411e-16 0)
(1.12385 -5.20062e-16 0)
(1.12341 -2.00582e-15 0)
(1.12296 5.78352e-16 0)
(1.12251 7.7068e-16 0)
(1.12205 1.0969e-16 0)
(1.12159 1.14272e-15 0)
(1.12112 1.69339e-15 0)
(1.12065 3.52977e-16 0)
(1.12018 -6.20214e-16 0)
(1.1197 9.90238e-16 0)
(1.11921 1.84581e-15 0)
(1.11872 -2.74233e-15 0)
(1.11823 2.08038e-15 0)
(1.11773 2.1365e-15 0)
(1.11723 -3.44446e-15 0)
(1.11672 2.80567e-15 0)
(1.11621 -2.79072e-15 0)
(1.11569 1.16093e-15 0)
(1.11517 -1.64895e-15 0)
(1.11465 -7.48358e-16 0)
(1.11412 -2.68157e-15 0)
(1.11358 5.35702e-15 0)
(1.11304 -1.21341e-15 0)
(1.1256 8.40733e-16 0)
(1.12517 -8.04805e-16 0)
(1.12473 1.21101e-15 0)
(1.1243 6.11768e-16 0)
(1.12385 -1.00339e-15 0)
(1.12341 -1.75879e-15 0)
(1.12296 8.37931e-16 0)
(1.12251 -3.55378e-16 0)
(1.12205 -3.10557e-16 0)
(1.12159 3.18988e-16 0)
(1.12112 2.28581e-15 0)
(1.12065 6.35325e-16 0)
(1.12018 -2.64985e-16 0)
(1.1197 1.25743e-15 0)
(1.11921 1.07424e-15 0)
(1.11872 -2.59481e-15 0)
(1.11823 2.11808e-15 0)
(1.11773 1.9922e-15 0)
(1.11723 -4.00405e-15 0)
(1.11672 3.11213e-15 0)
(1.11621 -2.84341e-15 0)
(1.11569 7.56816e-16 0)
(1.11517 -1.82296e-15 0)
(1.11465 4.63035e-16 0)
(1.11412 -2.45448e-15 0)
(1.11358 5.2021e-15 0)
(1.11304 -1.73597e-15 0)
(1.1256 1.46071e-15 0)
(1.12517 -9.01603e-16 0)
(1.12473 9.31908e-16 0)
(1.1243 6.73522e-16 0)
(1.12385 -1.30094e-15 0)
(1.12341 -1.0567e-15 0)
(1.12296 1.94953e-15 0)
(1.12251 -1.46795e-15 0)
(1.12205 -8.47209e-16 0)
(1.12159 -5.81739e-16 0)
(1.12112 2.63681e-15 0)
(1.12065 6.57021e-16 0)
(1.12018 -3.82234e-17 0)
(1.1197 1.19477e-15 0)
(1.11921 1.6513e-15 0)
(1.11872 -2.41177e-15 0)
(1.11823 2.33836e-15 0)
(1.11773 2.09401e-15 0)
(1.11723 -4.29936e-15 0)
(1.11672 3.57762e-15 0)
(1.11621 -2.69282e-15 0)
(1.11569 1.42367e-15 0)
(1.11517 -1.25097e-15 0)
(1.11465 1.34644e-15 0)
(1.11412 -2.97841e-15 0)
(1.11358 5.2284e-15 0)
(1.11304 -2.58941e-15 0)
(1.1256 1.97392e-15 0)
(1.12517 -1.0879e-15 0)
(1.12473 1.28044e-15 0)