/*--------------------------------*- C++ -*----------------------------------*\
  =========                 |
  \\      /  F ield         | OpenFOAM: The Open Source CFD Toolbox
   \\    /   O peration     | Website:  https://openfoam.org
    \\  /    A nd           | Version:  8
     \\/     M anipulation  |
\*---------------------------------------------------------------------------*/
FoamFile
{
    version     2.0;
    format      ascii;
    class       volScalarField;
    location    "5.3";
    object      p;
}
// * * * * * * * * * * * * * * * * * * * * * * * * * * * * * * * * * * * * * //

dimensions      [1 -1 -2 0 0 0 0];

internalField   nonuniform List<scalar> 
2600
(
1.36982
1.37984
1.45101
1.5093
1.36742
1.05175
1.28478
2.21461
2.91651
3.1763
1.45141
1.39685
1.43953
1.4972
1.37007
1.04422
1.28672
2.17893
2.88352
3.1672
1.42749
1.39549
1.42564
1.49404
1.36569
1.03833
1.30133
2.1415
2.85427
3.15775
1.444
1.39126
1.40891
1.48239
1.35296
1.03814
1.32109
2.09043
2.8185
3.14857
1.4541
1.39287
1.39271
1.46557
1.33896
1.05053
1.34502
2.04068
2.7807
3.13451
1.45981
1.39727
1.37419
1.44257
1.32114
1.07285
1.37766
1.98967
2.73279
3.12137
1.46668
1.39605
1.35119
1.40859
1.30766
1.10973
1.41446
1.94588
2.6874
3.1023
1.47225
1.39555
1.32704
1.36966
1.30059
1.16282
1.46113
1.90345
2.62306
3.09145
1.47804
1.39355
1.30146
1.32551
1.29591
1.23002
1.5137
1.8702
2.57089
3.07352
1.48322
1.39093
1.27983
1.28749
1.29843
1.3078
1.57406
1.83681
2.5106
3.05801
1.48901
1.3905
1.2575
1.24283
1.29877
1.38745
1.62674
1.80804
2.45344
3.04106
1.49241
1.38946
1.23823
1.20122
1.30261
1.46659
1.67267
1.77954
2.39368
3.02814
1.49669
1.38799
1.2234
1.15926
1.29711
1.5445
1.70936
1.75135
2.33634
3.01802
1.49684
1.38413
1.20914
1.12284
1.30275
1.61173
1.74491
1.72343
2.28091
3.01059
1.49567
1.37817
1.19738
1.09553
1.31464
1.67442
1.77958
1.7107
2.23021
3.00715
1.49288
1.3738
1.18605
1.07703
1.32772
1.73843
1.8156
1.70626
2.18266
3.0052
1.4941
1.37726
1.17529
1.07322
1.34244
1.79679
1.84784
1.70572
2.13915
3.00795
1.49032
1.38184
1.17151
1.07609
1.36009
1.8518
1.87348
1.70911
2.0979
3.01066
1.51896
1.38341
1.17653
1.07923
1.36713
1.89925
1.89666
1.70671
2.05522
3.01247
1.44356
1.36069
1.18518
1.09025
1.37286
1.9305
1.91848
1.69779
2.0117
3.01255
1.85372
1.29855
1.20978
1.11302
1.36394
1.93308
1.94158
1.68386
1.97459
3.0105
2.26206
1.30515
1.26159
1.13879
1.35438
1.91536
1.96019
1.67024
1.94829
3.00495
2.60694
1.35232
1.28917
1.15545
1.34467
1.86311
1.96293
1.66611
1.93942
2.99492
2.87629
1.44984
1.32663
1.17938
1.33549
1.80488
1.97254
1.67803
1.94713
2.9789
3.10917
1.57023
1.36611
1.20296
1.32655
1.73966
1.96584
1.70849
1.97367
2.96238
3.30079
1.70601
1.41485
1.22695
1.3269
1.68513
1.96276
1.76773
2.02133
2.94489
3.47147
1.85345
1.46272
1.23966
1.31325
1.64093
1.95478
1.84521
2.08945
2.91856
3.62002
2.00303
1.52171
1.24995
1.2883
1.59421
1.94851
1.93855
2.17601
2.90259
3.75048
2.15654
1.59596
1.26093
1.27215
1.56091
1.93646
2.03021
2.28198
2.88818
3.86734
2.31474
1.67997
1.26709
1.2691
1.53743
1.9217
2.11404
2.36833
2.87559
3.96399
2.46826
1.77757
1.29106
1.28372
1.52301
1.90546
2.18887
2.39671
2.85646
4.05418
2.6215
1.87485
1.30406
1.30124
1.51657
1.89299
2.26056
2.40956
2.82873
4.13997
2.76805
1.96774
1.32244
1.31876
1.51275
1.89314
2.3295
2.42371
2.79722
4.21949
2.91097
2.05259
1.35562
1.33703
1.50706
1.90028
2.3901
2.44468
2.76831
4.31637
3.04308
2.13142
1.41241
1.35239
1.49977
1.9119
2.44782
2.47626
2.74688
4.3446
3.17856
2.19104
1.48131
1.36413
1.4928
1.9299
2.49868
2.51155
2.73085
4.29969
3.30485
2.26279
1.5555
1.3798
1.48775
1.95521
2.54367
2.55483
2.72377
4.28511
3.40478
2.33895
1.6257
1.39898
1.4979
1.98632
2.5874
2.59949
2.72546
4.10645
3.48058
2.42401
1.7074
1.42207
1.50836
2.0086
2.63135
2.63941
2.73035
3.84973
3.45384
2.51477
1.79647
1.44535
1.52241
2.06811
2.68073
2.67264
2.73251
1.92026
5.41678
9.30439
7.76415
7.03679
6.69153
6.54827
6.459
6.32751
5.97303
1.05091
2.35535
6.54412
6.53057
6.51036
6.53151
6.50909
6.43861
6.28445
5.82631
1.05194
1.06535
4.11901
6.83164
6.69568
6.59038
6.50259
6.41479
6.24565
5.77235
1.05216
1.05306
1.38394
5.65719
6.63717
6.55308
6.47514
6.38112
6.20233
5.71928
1.05239
1.05297
1.05404
2.59873
6.28562
6.53342
6.45736
6.35328
6.15538
5.67428
1.05251
1.05315
1.05393
1.1094
4.5137
6.50619
6.42904
6.307
6.10114
5.63684
1.05264
1.05331
1.05399
1.0551
1.75423
5.84093
6.39099
6.24922
6.05823
5.61684
1.05278
1.05344
1.05419
1.05487
1.06615
3.80382
6.24381
6.19722
6.02086
5.6006
1.05289
1.05354
1.0543
1.05504
1.05626
1.53291
5.46791
6.1994
5.97512
5.58602
1.05295
1.0536
1.05432
1.05513
1.05585
1.06706
3.50139
6.04563
5.92785
5.5785
1.05299
1.05365
1.05435
1.05516
1.05595
1.05727
1.52578
5.28815
5.92995
5.57308
1.05303
1.05367
1.05438
1.05515
1.056
1.05682
1.07369
3.60109
5.8298
5.55704
1.05304
1.05367
1.05438
1.05513
1.05599
1.05682
1.05844
1.72807
5.2557
5.55683
1.05304
1.05367
1.05436
1.05511
1.05596
1.05686
1.05791
1.10336
3.94956
5.45649
1.05304
1.05367
1.05436
1.05512
1.05595
1.05689
1.05776
1.06077
2.2317
5.19637
1.05304
1.05368
1.05437
1.05514
1.05596
1.05691
1.05782
1.05941
1.25931
4.3996
1.05304
1.05368
1.05438
1.05515
1.05597
1.0569
1.05787
1.05887
1.07566
3.24416
1.05303
1.05367
1.05437
1.05513
1.05596
1.05687
1.05788
1.05882
1.06182
2.07122
1.05302
1.05366
1.05435
1.05511
1.05594
1.05683
1.05784
1.05884
1.06058
1.30678
1.05302
1.05365
1.05434
1.05508
1.05591
1.0568
1.0578
1.05885
1.05999
1.08202
1.0016
1.00498
1.00869
1.01278
1.01731
1.02229
1.02784
1.03414
1.0408
1.04771
1.0016
1.00498
1.00869
1.01278
1.01731
1.0223
1.02784
1.03412
1.0408
1.04786
1.0016
1.00498
1.00869
1.01278
1.01731
1.0223
1.02784
1.03411
1.04081
1.04796
1.0016
1.00498
1.00869
1.01278
1.01731
1.0223
1.02784
1.03409
1.04084
1.04807
1.0016
1.00498
1.00869
1.01278
1.01731
1.0223
1.02784
1.03408
1.04087
1.04817
1.0016
1.00498
1.00869
1.01278
1.01731
1.0223
1.02784
1.03407
1.04088
1.04825
1.0016
1.00498
1.00869
1.01278
1.0173
1.0223
1.02783
1.03406
1.04089
1.04836
1.0016
1.00498
1.00869
1.01278
1.0173
1.0223
1.02783
1.03406
1.04087
1.04843
1.0016
1.00498
1.00869
1.01278
1.0173
1.0223
1.02783
1.03407
1.04084
1.04849
1.0016
1.00498
1.00869
1.01278
1.0173
1.02231
1.02782
1.03407
1.04081
1.04855
1.0016
1.00498
1.00869
1.01278
1.0173
1.02231
1.02782
1.03408
1.0408
1.04859
1.0016
1.00498
1.00869
1.01278
1.0173
1.02231
1.02782
1.03409
1.04081
1.04861
1.0016
1.00498
1.00869
1.01278
1.0173
1.02231
1.02782
1.03409
1.04081
1.04862
1.0016
1.00498
1.00869
1.01278
1.0173
1.02231
1.02782
1.03409
1.04082
1.04864
1.0016
1.00498
1.00869
1.01278
1.0173
1.02231
1.02782
1.03409
1.04083
1.04865
1.0016
1.00498
1.00869
1.01278
1.0173
1.02231
1.02782
1.03409
1.04084
1.04865
1.0016
1.00498
1.00869
1.01278
1.0173
1.02231
1.02782
1.03409
1.04085
1.04864
1.0016
1.00498
1.00869
1.01278
1.01729
1.02231
1.02782
1.0341
1.04086
1.04864
1.0016
1.00498
1.00869
1.01278
1.01729
1.02231
1.02782
1.0341
1.04087
1.04864
1.0016
1.00498
1.00869
1.01278
1.01729
1.02231
1.02782
1.0341
1.04088
1.04865
1.0016
1.00498
1.00869
1.01278
1.01729
1.02231
1.02782
1.0341
1.04088
1.04865
1.0016
1.00498
1.00869
1.01278
1.01729
1.02231
1.02782
1.0341
1.04087
1.04864
1.0016
1.00498
1.00869
1.01278
1.01729
1.02231
1.02782
1.0341
1.04086
1.04864
1.0016
1.00498
1.00869
1.01278
1.0173
1.02231
1.02782
1.03409
1.04085
1.04864
1.0016
1.00498
1.00869
1.01278
1.0173
1.02231
1.02782
1.03409
1.04084
1.04865
1.0016
1.00498
1.00869
1.01278
1.0173
1.02231
1.02782
1.03409
1.04083
1.04865
1.0016
1.00498
1.00869
1.01278
1.0173
1.02231
1.02782
1.03409
1.04082
1.04864
1.0016
1.00498
1.00869
1.01278
1.0173
1.02231
1.02782
1.03409
1.04081
1.04862
1.0016
1.00498
1.00869
1.01278
1.0173
1.02231
1.02782
1.03409
1.04081
1.04861
1.0016
1.00498
1.00869
1.01278
1.0173
1.02231
1.02782
1.03408
1.0408
1.04859
1.0016
1.00498
1.00869
1.01278
1.0173
1.02231
1.02782
1.03408
1.04081
1.04855
1.0016
1.00498
1.00869
1.01278
1.0173
1.0223
1.02783
1.03407
1.04084
1.04849
1.0016
1.00498
1.00869
1.01278
1.0173
1.0223
1.02783
1.03406
1.04087
1.04843
1.0016
1.00498
1.00869
1.01278
1.0173
1.0223
1.02783
1.03406
1.04089
1.04836
1.0016
1.00498
1.00869
1.01278
1.01731
1.0223
1.02784
1.03407
1.04088
1.04825
1.0016
1.00498
1.00869
1.01278
1.01731
1.0223
1.02784
1.03408
1.04087
1.04817
1.0016
1.00498
1.00869
1.01278
1.01731
1.0223
1.02784
1.03409
1.04084
1.04807
1.0016
1.00498
1.00869
1.01278
1.01731
1.0223
1.02784
1.03411
1.04081
1.04796
1.0016
1.00498
1.00869
1.01278
1.01731
1.0223
1.02784
1.03412
1.0408
1.04786
1.0016
1.00498
1.00869
1.01278
1.01731
1.02229
1.02784
1.03413
1.0408
1.0477
1.05302
1.05365
1.05434
1.05509
1.05591
1.0568
1.0578
1.05885
1.05999
1.08199
1.05302
1.05366
1.05435
1.05511
1.05594
1.05683
1.05785
1.05884
1.06058
1.30638
1.05303
1.05367
1.05437
1.05513
1.05596
1.05687
1.05788
1.05882
1.06182
2.06967
1.05304
1.05368
1.05438
1.05515
1.05597
1.0569
1.05787
1.05887
1.07559
3.24213
1.05304
1.05368
1.05437
1.05514
1.05596
1.05691
1.05782
1.05941
1.25836
4.39784
1.05304
1.05367
1.05436
1.05512
1.05595
1.05689
1.05776
1.06077
2.22883
5.19544
1.05304
1.05367
1.05436
1.05511
1.05596
1.05686
1.05791
1.10321
3.94649
5.45678
1.05304
1.05367
1.05438
1.05513
1.05599
1.05682
1.05844
1.72685
5.2531
5.55663
1.05303
1.05367
1.05438
1.05515
1.056
1.05682
1.07365
3.599
5.82813
5.55799
1.05299
1.05365
1.05435
1.05516
1.05595
1.05727
1.52476
5.28689
5.92861
5.5749
1.05295
1.0536
1.05432
1.05513
1.05585
1.06704
3.49902
6.04506
5.92647
5.58167
1.05289
1.05354
1.0543
1.05504
1.05626
1.53233
5.4664
6.19896
5.97394
5.58873
1.05278
1.05344
1.05419
1.05487
1.06615
3.8025
6.24291
6.19682
6.01951
5.60289
1.05264
1.05331
1.05399
1.0551
1.7541
5.84022
6.39033
6.24862
6.05709
5.61827
1.05251
1.05315
1.05393
1.10945
4.51339
6.50571
6.42843
6.30641
6.10021
5.63726
1.05239
1.05297
1.05404
2.59918
6.28535
6.53291
6.45678
6.35263
6.15444
5.67351
1.05216
1.05306
1.38439
5.65732
6.6369
6.55273
6.47474
6.38046
6.2013
5.71735
1.05194
1.06544
4.12054
6.83141
6.69529
6.59009
6.50226
6.41424
6.24462
5.76988
1.05092
2.3573
6.54476
6.53005
6.50991
6.5312
6.50855
6.43805
6.28348
5.82262
1.92029
5.4202
9.3034
7.76314
7.03609
6.69107
6.54788
6.4585
6.32689
5.96998
3.85168
3.45367
2.54141
1.93302
1.37865
1.32937
1.87769
2.83128
2.85889
2.73682
4.11349
3.46249
2.43383
1.86856
1.35505
1.29493
1.83054
2.80429
2.84827
2.78388
4.29501
3.39975
2.33145
1.8058
1.33325
1.26562
1.78743
2.77297
2.84581
2.82366
4.31132
3.30048
2.23688
1.75133
1.31738
1.24723
1.75008
2.73705
2.85039
2.85772
4.35538
3.17841
2.14616
1.70133
1.30586
1.23296
1.71755
2.70792
2.8478
2.88594
4.32192
3.05599
2.06737
1.66223
1.30121
1.22208
1.68424
2.68616
2.86694
2.91128
4.20468
2.93974
1.99036
1.62703
1.30079
1.21583
1.65151
2.66297
2.87715
2.93832
4.10854
2.81728
1.91477
1.60029
1.30255
1.21185
1.62223
2.63115
2.891
2.9741
4.00496
2.68276
1.84499
1.57548
1.30111
1.20552
1.59558
2.5928
2.91689
3.01899
3.89906
2.53404
1.77828
1.55105
1.29732
1.19439
1.56815
2.55257
2.9547
3.06566
3.79172
2.37852
1.72017
1.53183
1.29181
1.18029
1.53634
2.52093
2.99257
3.10518
3.67089
2.21425
1.67575
1.51352
1.2884
1.17051
1.50537
2.49637
3.01324
3.13811
3.54251
2.04898
1.64668
1.50341
1.28912
1.16466
1.47898
2.47117
3.01201
3.14816
3.40079
1.88918
1.62799
1.49289
1.28843
1.16241
1.45864
2.44814
3.02301
3.16176
3.24001
1.73649
1.60745
1.48654
1.28554
1.16144
1.43536
2.42702
3.01483
3.17913
3.06122
1.5963
1.56737
1.48229
1.28371
1.15619
1.39829
2.3925
3.00976
3.17965
2.83874
1.48284
1.52062
1.48575
1.29784
1.14642
1.35849
2.35515
2.9994
3.1882
2.57132
1.39565
1.48734
1.50684
1.3237
1.12167
1.32181
2.31777
2.9875
3.19124
2.21959
1.35489
1.47206
1.51577
1.3427
1.09368
1.30137
2.2755
2.96669
3.18806
1.79562
1.34446
1.45479
1.51153
1.35447
1.06502
1.28749
2.24225
2.94364
3.18303
1.06394
1.06897
1.07276
1.08472
3.50235
5.61778
4.80761
3.8655
2.94579
2.14588
1.06388
1.06896
1.07259
1.09422
3.55199
5.59305
4.79129
3.85005
2.9433
2.15271
1.06388
1.0688
1.07244
1.11146
3.59606
5.57105
4.77316
3.82261
2.93488
2.16357
1.06384
1.06861
1.07233
1.15042
3.6534
5.53909
4.72929
3.77002
2.91858
2.17577
1.0638
1.06837
1.07234
1.22936
3.66842
5.48321
4.66713
3.70071
2.89125
2.18493
1.06379
1.06803
1.07383
1.3688
3.64712
5.35197
4.55554
3.60933
2.85859
2.19605
1.06374
1.06764
1.08287
1.55802
3.64946
5.10454
4.3723
3.48756
2.82277
2.21399
1.06369
1.06754
1.12715
1.74737
3.60585
4.77771
4.21591
3.42385
2.80674
2.23818
1.06354
1.06832
1.28201
1.91352
3.4217
4.41681
3.97389
3.26801
2.78368
2.26888
1.06335
1.07203
1.60122
2.16534
3.14502
4.08144
3.74371
3.14995
2.77596
2.30276
1.06316
1.08835
2.02635
2.42458
2.8865
3.69225
3.49961
3.05246
2.77155
2.34392
1.06306
1.15379
2.42345
2.64036
2.67495
3.26578
3.27813
2.98021
2.7809
2.39161
1.06298
1.36156
2.70455
2.79859
2.5232
2.84918
3.06735
2.92433
2.7824
2.43805
1.06325
1.76446
2.91107
2.79048
2.33981
2.48867
2.87937
2.88221
2.79653
2.47926
1.0699
2.26787
3.02096
2.71576
2.13366
2.19309
2.69469
2.84767
2.81507
2.51686
1.14839
2.70984
3.10586
2.62959
1.94699
1.95879
2.51958
2.82496
2.82689
2.54975
1.45855
3.07164
3.12616
2.51459
1.78019
1.77497
2.35121
2.82179
2.83579
2.58005
1.94958
3.31171
3.02305
2.35774
1.63691
1.6221
2.20241
2.81316
2.83919
2.60853
2.48021
3.37472
2.89956
2.20314
1.52139
1.49857
2.07144
2.82475
2.85116
2.63954
3.38672
3.42455
2.70654
2.04313
1.43075
1.39707
1.95617
2.84221
2.86187
2.67818
3.38927
3.41638
2.66977
1.9384
1.4801
1.55679
2.15329
2.72823
2.69428
2.71556
2.47722
3.36191
2.85783
2.13612
1.54502
1.62477
2.29005
2.76105
2.70874
2.6745
1.95152
3.29667
2.98329
2.31034
1.63795
1.73207
2.43258
2.77223
2.71779
2.63722
1.46103
3.05321
3.08873
2.48569
1.76197
1.87026
2.58283
2.78264
2.73866
2.61559
1.14967
2.69113
3.07187
2.60961
1.9188
2.0351
2.7368
2.80281
2.75029
2.59312
1.07012
2.2523
2.9858
2.69608
2.10669
2.22573
2.88703
2.83976
2.75077
2.56323
1.06328
1.75057
2.86648
2.76847
2.32099
2.4715
3.02524
2.88739
2.74486
2.51446
1.06299
1.35101
2.65544
2.77093
2.51151
2.79923
3.16297
2.94551
2.73749
2.45465
1.06306
1.14957
2.37145
2.61444
2.66427
3.23059
3.33128
3.00272
2.72787
2.39477
1.06316
1.08727
1.97393
2.3984
2.8695
3.67548
3.53589
3.07165
2.71379
2.33741
1.06336
1.07181
1.55711
2.12981
3.11329
4.07397
3.77133
3.16311
2.71242
2.28524
1.06355
1.06827
1.25546
1.87693
3.37868
4.40898
3.98987
3.2652
2.71656
2.24089
1.06369
1.06755
1.11789
1.71927
3.54899
4.75542
4.23484
3.40993
2.7293
2.20094
1.06374
1.06767
1.08079
1.53637
3.59948
5.08415
4.35807
3.4517
2.74839
2.17527
1.06379
1.06807
1.07348
1.35436
3.6133
5.32722
4.52297
3.55778
2.77963
2.15667
1.0638
1.06839
1.07228
1.22211
3.64919
5.45934
4.64094
3.66341
2.81769
2.14643
1.06383
1.06862
1.07233
1.14758
3.64379
5.51659
4.71622
3.74814
2.85985
2.14003
1.06388
1.06881
1.07244
1.11044
3.59969
5.55795
4.77428
3.81685
2.89371
2.13266
1.06388
1.06897
1.07259
1.09398
3.56319
5.58732
4.80841
3.85895
2.91671
2.12603
1.06394
1.06896
1.07277
1.08469
3.51559
5.62245
4.83515
3.88547
2.92846
2.12143
1.05301
1.05363
1.05431
1.05505
1.05586
1.05675
1.05771
1.05879
1.05985
1.06181
1.053
1.05362
1.0543
1.05503
1.05583
1.0567
1.05764
1.05867
1.05988
1.06075
1.05301
1.05363
1.0543
1.05502
1.05581
1.05667
1.05761
1.0586
1.05983
1.06069
1.05301
1.05363
1.0543
1.05502
1.05581
1.05666
1.05759
1.05858
1.05978
1.06063
1.05302
1.05363
1.0543
1.05502
1.05581
1.05666
1.05759
1.05858
1.05976
1.06062
1.05303
1.05364
1.05431
1.05503
1.05581
1.05666
1.05759
1.05859
1.05973
1.06071
1.05301
1.05362
1.0543
1.05503
1.05582
1.05667
1.05761
1.05861
1.05972
1.06092
1.053
1.05362
1.0543
1.05503
1.05583
1.05669
1.05763
1.05864
1.05974
1.06103
1.05302
1.05364
1.05432
1.05505
1.05585
1.05671
1.05766
1.05868
1.05976
1.06106
1.05305
1.05367
1.05435
1.05508
1.05588
1.05675
1.05768
1.0587
1.05978
1.06105
1.0531
1.05372
1.05439
1.05513
1.05592
1.05678
1.0577
1.05871
1.05979
1.06103
1.05314
1.05376
1.05443
1.05516
1.05594
1.0568
1.05772
1.05872
1.05978
1.06099
1.05317
1.05379
1.05445
1.05517
1.05594
1.05678
1.05769
1.0587
1.05977
1.06096
1.05318
1.05379
1.05445
1.05516
1.05593
1.05678
1.05769
1.05869
1.05977
1.06096
1.05316
1.05377
1.05444
1.05517
1.05595
1.05681
1.05772
1.05872
1.0598
1.06097
1.05311
1.05374
1.05442
1.05515
1.05595
1.0568
1.05773
1.05874
1.05983
1.061
1.05307
1.0537
1.05437
1.05511
1.05591
1.05678
1.05771
1.05873
1.05983
1.06102
1.05303
1.05365
1.05433
1.05506
1.05586
1.05673
1.05768
1.0587
1.05982
1.06103
1.05301
1.05363
1.0543
1.05504
1.05584
1.05671
1.05766
1.05868
1.05981
1.06103
1.05298
1.0536
1.05428
1.05502
1.05583
1.0567
1.05765
1.05868
1.05981
1.06102
1.0016
1.00498
1.00869
1.01278
1.01729
1.02232
1.02782
1.0341
1.04089
1.04865
1.0016
1.00498
1.00869
1.01278
1.01729
1.02231
1.02783
1.03408
1.04091
1.04866
1.0016
1.00498
1.00869
1.01278
1.01729
1.02231
1.02783
1.03407
1.04093
1.04867
1.0016
1.00498
1.00869
1.01278
1.01729
1.02231
1.02784
1.03405
1.04095
1.04868
1.0016
1.00498
1.00869
1.01278
1.01729
1.02231
1.02784
1.03403
1.04096
1.04869
1.0016
1.00498
1.00869
1.01278
1.0173
1.02231
1.02785
1.03402
1.04097
1.0487
1.0016
1.00498
1.00869
1.01278
1.0173
1.02231
1.02785
1.03402
1.04097
1.04868
1.0016
1.00498
1.00869
1.01278
1.0173
1.02231
1.02786
1.03402
1.04097
1.04867
1.0016
1.00498
1.00869
1.01278
1.0173
1.0223
1.02786
1.03402
1.04096
1.04868
1.0016
1.00498
1.00869
1.01278
1.0173
1.0223
1.02786
1.03402
1.04095
1.0487
1.0016
1.00498
1.00869
1.01278
1.0173
1.0223
1.02786
1.03402
1.04093
1.04872
1.0016
1.00498
1.00869
1.01278
1.0173
1.0223
1.02786
1.03403
1.04091
1.04875
1.0016
1.00498
1.00869
1.01278
1.0173
1.0223
1.02786
1.03404
1.0409
1.04878
1.0016
1.00498
1.00869
1.01278
1.0173
1.0223
1.02785
1.03404
1.04089
1.04879
1.0016
1.00498
1.00869
1.01278
1.0173
1.0223
1.02785
1.03404
1.0409
1.04876
1.0016
1.00498
1.00869
1.01278
1.0173
1.0223
1.02785
1.03404
1.04091
1.04872
1.0016
1.00498
1.00869
1.01278
1.0173
1.0223
1.02785
1.03404
1.04092
1.0487
1.0016
1.00498
1.00869
1.01278
1.0173
1.0223
1.02785
1.03404
1.04093
1.04868
1.0016
1.00498
1.00869
1.01278
1.0173
1.02231
1.02785
1.03404
1.04094
1.04866
1.0016
1.00498
1.00869
1.01278
1.0173
1.02231
1.02785
1.03403
1.04095
1.04864
1.0016
1.00498
1.00869
1.01278
1.0173
1.02231
1.02785
1.03403
1.04095
1.04864
1.0016
1.00498
1.00869
1.01278
1.0173
1.02231
1.02785
1.03404
1.04094
1.04866
1.0016
1.00498
1.00869
1.01278
1.0173
1.0223
1.02785
1.03404
1.04093
1.04868
1.0016
1.00498
1.00869
1.01278
1.0173
1.0223
1.02785
1.03404
1.04092
1.0487
1.0016
1.00498
1.00869
1.01278
1.0173
1.0223
1.02785
1.03404
1.04091
1.04873
1.0016
1.00498
1.00869
1.01278
1.0173
1.0223
1.02785
1.03404
1.0409
1.04876
1.0016
1.00498
1.00869
1.01278
1.0173
1.0223
1.02785
1.03404
1.04089
1.04879
1.0016
1.00498
1.00869
1.01278
1.0173
1.0223
1.02786
1.03404
1.0409
1.04878
1.0016
1.00498
1.00869
1.01278
1.0173
1.0223
1.02786
1.03403
1.04091
1.04875
1.0016
1.00498
1.00869
1.01278
1.0173
1.0223
1.02786
1.03402
1.04093
1.04872
1.0016
1.00498
1.00869
1.01278
1.0173
1.0223
1.02786
1.03402
1.04095
1.04869
1.0016
1.00498
1.00869
1.01278
1.0173
1.0223
1.02786
1.03402
1.04096
1.04868
1.0016
1.00498
1.00869
1.01278
1.0173
1.02231
1.02786
1.03402
1.04097
1.04867
1.0016
1.00498
1.00869
1.01278
1.0173
1.02231
1.02785
1.03402
1.04097
1.04868
1.0016
1.00498
1.00869
1.01278
1.0173
1.02231
1.02785
1.03402
1.04097
1.0487
1.0016
1.00498
1.00869
1.01278
1.01729
1.02231
1.02784
1.03403
1.04096
1.04869
1.0016
1.00498
1.00869
1.01278
1.01729
1.02231
1.02784
1.03405
1.04095
1.04868
1.0016
1.00498
1.00869
1.01278
1.01729
1.02231
1.02783
1.03407
1.04093
1.04867
1.0016
1.00498
1.00869
1.01278
1.01729
1.02231
1.02783
1.03408
1.04091
1.04866
1.0016
1.00498
1.00869
1.01278
1.01729
1.02231
1.02782
1.0341
1.04089
1.04865
1.05298
1.0536
1.05428
1.05502
1.05583
1.0567
1.05765
1.05868
1.05981
1.06102
1.05301
1.05363
1.0543
1.05504
1.05584
1.05671
1.05766
1.05869
1.05981
1.06103
1.05303
1.05365
1.05433
1.05506
1.05586
1.05673
1.05768
1.0587
1.05982
1.06103
1.05307
1.0537
1.05437
1.05511
1.05591
1.05678
1.05771
1.05873
1.05983
1.06102
1.05311
1.05374
1.05442
1.05515
1.05594
1.0568
1.05773
1.05874
1.05983
1.061
1.05316
1.05377
1.05444
1.05517
1.05595
1.05681
1.05772
1.05872
1.05979
1.06097
1.05318
1.05379
1.05445
1.05516
1.05593
1.05678
1.05769
1.05869
1.05977
1.06096
1.05317
1.05379
1.05445
1.05517
1.05594
1.05678
1.05769
1.05869
1.05977
1.06096
1.05314
1.05376
1.05443
1.05516
1.05594
1.0568
1.05771
1.05872
1.05978
1.06099
1.0531
1.05372
1.05439
1.05513
1.05592
1.05678
1.0577
1.05871
1.05979
1.06103
1.05305
1.05367
1.05435
1.05508
1.05588
1.05675
1.05768
1.0587
1.05978
1.06105
1.05302
1.05364
1.05431
1.05505
1.05585
1.05671
1.05766
1.05868
1.05976
1.06106
1.053
1.05362
1.0543
1.05503
1.05583
1.05669
1.05763
1.05864
1.05974
1.06103
1.05301
1.05362
1.0543
1.05503
1.05582
1.05667
1.05761
1.05861
1.05972
1.06092
1.05303
1.05364
1.05431
1.05503
1.05581
1.05666
1.05759
1.05859
1.05973
1.06071
1.05302
1.05363
1.0543
1.05502
1.05581
1.05666
1.05759
1.05858
1.05975
1.06062
1.05302
1.05363
1.0543
1.05502
1.05581
1.05666
1.05759
1.05858
1.05978
1.06063
1.05301
1.05363
1.0543
1.05502
1.05581
1.05667
1.05761
1.0586
1.05983
1.06069
1.053
1.05362
1.0543
1.05503
1.05583
1.0567
1.05764
1.05867
1.05988
1.06075
1.05301
1.05363
1.05431
1.05505
1.05587
1.05675
1.05771
1.05879
1.05985
1.06181
)
;

boundaryField
{
    inlet
    {
        type            fixedValue;
        value           uniform 1;
    }
    outlet
    {
        type            zeroGradient;
    }
    triangle
    {
        type            zeroGradient;
    }
    top
    {
        type            symmetryPlane;
    }
    bottom
    {
        type            symmetryPlane;
    }
    defaultFaces
    {
        type            empty;
    }
}


// ************************************************************************* //
