/*--------------------------------*- C++ -*----------------------------------*\
  =========                 |
  \\      /  F ield         | OpenFOAM: The Open Source CFD Toolbox
   \\    /   O peration     | Website:  https://openfoam.org
    \\  /    A nd           | Version:  8
     \\/     M anipulation  |
\*---------------------------------------------------------------------------*/
FoamFile
{
    version     2.0;
    format      ascii;
    class       volScalarField;
    location    "5.3";
    object      rho;
}
// * * * * * * * * * * * * * * * * * * * * * * * * * * * * * * * * * * * * * //

dimensions      [1 -3 0 0 0 0 0];

internalField   nonuniform List<scalar> 
2600
(
1.14099
1.07652
1.08236
1.09211
1.00803
0.879616
1.08684
1.65917
2.04203
2.26685
1.09396
1.0421
1.05032
1.06561
0.993622
0.843826
1.04378
1.59829
2.02419
2.25911
1.04841
1.02672
1.0346
1.05853
0.987703
0.824249
1.02259
1.55504
2.01488
2.25179
1.05362
1.02257
1.02419
1.05447
0.984738
0.818191
1.01774
1.51905
2.00522
2.24357
1.06082
1.02436
1.01809
1.05397
0.988042
0.825747
1.02465
1.49186
1.99359
2.23146
1.0664
1.02954
1.01464
1.0547
0.992634
0.843436
1.04401
1.4722
1.9736
2.22011
1.07245
1.03333
1.01065
1.04979
0.998752
0.872539
1.07138
1.46066
1.95133
2.20663
1.07708
1.03696
1.00498
1.03833
1.00555
0.913304
1.1064
1.44967
1.91522
2.1979
1.08087
1.03789
0.995164
1.01815
1.00989
0.96389
1.14679
1.44111
1.88206
2.18809
1.08347
1.03657
0.98339
0.996013
1.01444
1.02136
1.1928
1.42858
1.84343
2.18421
1.08575
1.03472
0.968032
0.965356
1.01513
1.07958
1.23467
1.41274
1.80606
2.18469
1.08628
1.03135
0.952295
0.933803
1.01475
1.13422
1.27113
1.39192
1.76861
2.19384
1.08676
1.02681
0.937879
0.90159
1.00523
1.18204
1.29993
1.36832
1.73587
2.21219
1.08455
1.02067
0.923067
0.873218
0.999515
1.21639
1.32515
1.34356
1.70906
2.23836
1.08159
1.01415
0.910865
0.852177
0.99698
1.24139
1.34521
1.32902
1.68896
2.27063
1.07832
1.00991
0.901379
0.840993
0.99721
1.26227
1.36104
1.32309
1.67164
2.30504
1.07809
1.01149
0.895677
0.843065
1.00354
1.27852
1.37102
1.32354
1.65627
2.34156
1.07916
1.01706
0.898594
0.857117
1.01729
1.29653
1.37505
1.32977
1.64258
2.37752
1.12288
1.03374
0.914516
0.887186
1.04038
1.31957
1.376
1.33502
1.63055
2.41269
1.17811
1.06378
0.95091
0.938875
1.08765
1.34215
1.37646
1.33277
1.62263
2.44703
1.61083
1.09437
1.02973
1.01632
1.15713
1.36963
1.38387
1.32218
1.62473
2.48528
2.00604
1.18348
1.15234
1.10606
1.24082
1.41862
1.39697
1.3121
1.64235
2.52759
2.29448
1.30132
1.25271
1.17953
1.31117
1.47335
1.41219
1.31858
1.67852
2.56878
2.49737
1.43575
1.33808
1.24161
1.35939
1.53337
1.45149
1.35734
1.73192
2.60454
2.65821
1.5657
1.4058
1.28993
1.38843
1.57808
1.50545
1.43217
1.80103
2.63395
2.78483
1.69434
1.46905
1.33007
1.41148
1.60706
1.57921
1.54087
1.88361
2.65328
2.89438
1.82408
1.52525
1.35704
1.41775
1.62002
1.65804
1.66541
1.97496
2.65694
2.98833
1.94678
1.587
1.3799
1.41301
1.61539
1.73315
1.79441
2.06994
2.65882
3.07016
2.06503
1.65845
1.40145
1.41236
1.61223
1.78941
1.91054
2.17008
2.65492
3.14318
2.18092
1.73213
1.41561
1.41802
1.61095
1.82847
2.00701
2.24755
2.64723
3.20459
2.28997
1.81145
1.43959
1.43497
1.61233
1.85776
2.08518
2.27921
2.63265
3.26234
2.39562
1.88695
1.45239
1.45267
1.6169
1.88044
2.15564
2.29578
2.61176
3.3177
2.49452
1.95692
1.46865
1.46909
1.62036
1.90183
2.21776
2.31007
2.58876
3.36983
2.58897
2.01907
1.4951
1.48633
1.61987
1.91894
2.26645
2.32546
2.56763
3.44122
2.67483
2.0752
1.53873
1.5
1.61662
1.93344
2.30801
2.34594
2.5517
3.46621
2.76066
2.11627
1.59078
1.50946
1.61232
1.94989
2.34265
2.36894
2.54008
3.44095
2.84128
2.1659
1.64703
1.52144
1.60875
1.96922
2.37251
2.39804
2.53516
3.45063
2.91325
2.22094
1.70139
1.53631
1.6169
1.99085
2.4015
2.4286
2.53675
3.36259
2.97529
2.28497
1.76612
1.55498
1.62586
2.00545
2.43064
2.45585
2.54107
3.19217
2.95868
2.35196
1.83731
1.57446
1.63788
2.04474
2.46351
2.47838
2.54487
2.17414
4.20475
5.90007
5.14674
4.76644
4.57893
4.49179
4.43504
4.35999
4.17449
1.4501
2.34319
4.56139
4.52374
4.49513
4.49315
4.47295
4.42847
4.34333
4.11495
1.45159
1.46296
3.26469
4.61602
4.56192
4.51463
4.46988
4.42295
4.33536
4.1072
1.45178
1.45267
1.69708
4.06243
4.54083
4.50126
4.46337
4.41739
4.32899
4.09661
1.45201
1.45258
1.45362
2.50093
4.42843
4.50696
4.46842
4.41851
4.32239
4.08878
1.45213
1.45276
1.4535
1.50029
3.50263
4.49879
4.46518
4.41031
4.31106
4.08252
1.45226
1.45292
1.45359
1.45469
1.96884
4.22435
4.46539
4.39573
4.30157
4.08151
1.4524
1.45305
1.45379
1.45445
1.46455
3.15843
4.4009
4.37864
4.29123
4.0801
1.45251
1.45315
1.45389
1.45463
1.45583
1.82536
4.04166
4.3892
4.27612
4.07908
1.45257
1.45321
1.45392
1.45472
1.45543
1.46559
3.01396
4.32467
4.26219
4.08276
1.45261
1.45326
1.45395
1.45475
1.45553
1.45682
1.83028
3.97322
4.27277
4.08954
1.45264
1.45328
1.45398
1.45474
1.45558
1.45638
1.47169
3.07312
4.23634
4.09312
1.45266
1.45328
1.45398
1.45471
1.45556
1.45638
1.45797
1.98386
3.9966
4.10305
1.45266
1.45327
1.45396
1.4547
1.45554
1.45642
1.45744
1.49865
3.26475
4.05762
1.45265
1.45328
1.45396
1.45471
1.45553
1.45645
1.4573
1.46025
2.31998
3.96042
1.45266
1.45329
1.45397
1.45473
1.45553
1.45647
1.45737
1.45893
1.63594
3.50443
1.45265
1.45329
1.45397
1.45473
1.45555
1.45646
1.45742
1.4584
1.47451
2.81736
1.45265
1.45328
1.45396
1.45472
1.45553
1.45643
1.45742
1.45834
1.4613
2.1829
1.45264
1.45326
1.45395
1.45469
1.45551
1.45639
1.45739
1.45837
1.46008
1.67958
1.45263
1.45325
1.45393
1.45467
1.45548
1.45636
1.45734
1.45837
1.45949
1.48058
1.40161
1.40498
1.40869
1.41276
1.41728
1.42223
1.42774
1.43398
1.44057
1.44742
1.40161
1.40498
1.40869
1.41276
1.41728
1.42223
1.42774
1.43396
1.44057
1.4476
1.40161
1.40498
1.40869
1.41276
1.41728
1.42223
1.42774
1.43395
1.44059
1.44767
1.40161
1.40498
1.40869
1.41276
1.41727
1.42223
1.42774
1.43393
1.44061
1.44776
1.40161
1.40498
1.40869
1.41276
1.41727
1.42223
1.42774
1.43392
1.44065
1.44785
1.40161
1.40498
1.40869
1.41276
1.41727
1.42223
1.42774
1.43391
1.44066
1.44794
1.40161
1.40498
1.40869
1.41276
1.41727
1.42224
1.42773
1.43391
1.44066
1.44804
1.40161
1.40498
1.40869
1.41276
1.41727
1.42224
1.42773
1.4339
1.44065
1.44812
1.40161
1.40498
1.40869
1.41276
1.41727
1.42224
1.42773
1.43391
1.44062
1.44817
1.40161
1.40498
1.40869
1.41276
1.41726
1.42224
1.42772
1.43392
1.44059
1.44823
1.40161
1.40498
1.40869
1.41276
1.41726
1.42224
1.42772
1.43393
1.44058
1.44827
1.40161
1.40498
1.40869
1.41276
1.41726
1.42224
1.42772
1.43393
1.44058
1.44829
1.40161
1.40498
1.40869
1.41276
1.41726
1.42225
1.42772
1.43393
1.44059
1.44831
1.40161
1.40498
1.40869
1.41276
1.41726
1.42225
1.42772
1.43393
1.44059
1.44832
1.40161
1.40498
1.40868
1.41277
1.41726
1.42225
1.42772
1.43393
1.4406
1.44833
1.40161
1.40498
1.40868
1.41277
1.41726
1.42225
1.42772
1.43393
1.44061
1.44833
1.40161
1.40498
1.40868
1.41277
1.41726
1.42225
1.42772
1.43394
1.44062
1.44832
1.40161
1.40498
1.40868
1.41277
1.41726
1.42225
1.42772
1.43394
1.44063
1.44832
1.40161
1.40498
1.40868
1.41277
1.41726
1.42225
1.42772
1.43394
1.44064
1.44832
1.40161
1.40498
1.40868
1.41277
1.41726
1.42225
1.42772
1.43395
1.44065
1.44832
1.40161
1.40498
1.40868
1.41277
1.41726
1.42225
1.42772
1.43395
1.44065
1.44832
1.40161
1.40498
1.40868
1.41277
1.41726
1.42225
1.42772
1.43394
1.44064
1.44832
1.40161
1.40498
1.40868
1.41277
1.41726
1.42225
1.42772
1.43394
1.44063
1.44832
1.40161
1.40498
1.40868
1.41277
1.41726
1.42225
1.42772
1.43394
1.44062
1.44832
1.40161
1.40498
1.40868
1.41277
1.41726
1.42225
1.42772
1.43393
1.44061
1.44833
1.40161
1.40498
1.40868
1.41277
1.41726
1.42225
1.42772
1.43393
1.4406
1.44833
1.40161
1.40498
1.40869
1.41276
1.41726
1.42225
1.42772
1.43393
1.44059
1.44832
1.40161
1.40498
1.40869
1.41276
1.41726
1.42225
1.42772
1.43393
1.44059
1.44831
1.40161
1.40498
1.40869
1.41276
1.41726
1.42224
1.42772
1.43393
1.44058
1.44829
1.40161
1.40498
1.40869
1.41276
1.41726
1.42224
1.42772
1.43393
1.44058
1.44827
1.40161
1.40498
1.40869
1.41276
1.41726
1.42224
1.42772
1.43392
1.44059
1.44823
1.40161
1.40498
1.40869
1.41276
1.41727
1.42224
1.42773
1.43391
1.44062
1.44817
1.40161
1.40498
1.40869
1.41276
1.41727
1.42224
1.42773
1.43391
1.44065
1.44812
1.40161
1.40498
1.40869
1.41276
1.41727
1.42224
1.42773
1.43391
1.44066
1.44804
1.40161
1.40498
1.40869
1.41276
1.41727
1.42223
1.42774
1.43391
1.44066
1.44794
1.40161
1.40498
1.40869
1.41276
1.41727
1.42223
1.42774
1.43392
1.44065
1.44785
1.40161
1.40498
1.40869
1.41276
1.41727
1.42223
1.42774
1.43393
1.44061
1.44776
1.40161
1.40498
1.40869
1.41276
1.41728
1.42223
1.42774
1.43395
1.44058
1.44767
1.40161
1.40498
1.40869
1.41276
1.41728
1.42223
1.42774
1.43396
1.44057
1.4476
1.40161
1.40498
1.40869
1.41276
1.41728
1.42223
1.42774
1.43397
1.44057
1.44742
1.45263
1.45325
1.45393
1.45467
1.45548
1.45636
1.45735
1.45837
1.45949
1.48055
1.45264
1.45326
1.45395
1.45469
1.45551
1.45639
1.45739
1.45837
1.46008
1.67928
1.45265
1.45328
1.45396
1.45472
1.45553
1.45643
1.45742
1.45835
1.46129
2.18193
1.45266
1.45329
1.45397
1.45473
1.45555
1.45646
1.45742
1.4584
1.47445
2.81602
1.45266
1.45329
1.45397
1.45473
1.45553
1.45647
1.45737
1.45893
1.63514
3.50327
1.45265
1.45328
1.45396
1.45471
1.45553
1.45645
1.45731
1.46025
2.31827
3.96012
1.45266
1.45327
1.45396
1.4547
1.45554
1.45642
1.45744
1.49851
3.26321
4.05795
1.45266
1.45328
1.45398
1.45471
1.45556
1.45638
1.45797
1.98303
3.99524
4.10303
1.45264
1.45328
1.45398
1.45474
1.45558
1.45638
1.47166
3.07207
4.23556
4.09368
1.45261
1.45326
1.45395
1.45475
1.45553
1.45683
1.82955
3.97254
4.27214
4.09052
1.45257
1.45321
1.45392
1.45472
1.45543
1.46558
3.0128
4.32448
4.26156
4.08441
1.45251
1.45315
1.4539
1.45463
1.45583
1.82496
4.04092
4.38905
4.27558
4.08049
1.4524
1.45305
1.45379
1.45445
1.46454
3.1578
4.40052
4.37851
4.29061
4.08133
1.45226
1.45292
1.45359
1.45469
1.96876
4.22404
4.46512
4.3955
4.30106
4.08233
1.45213
1.45276
1.4535
1.50033
3.50254
4.49861
4.46493
4.41007
4.31067
4.08281
1.45201
1.45258
1.45362
2.50123
4.42835
4.50674
4.46818
4.41824
4.32198
4.08844
1.45178
1.45267
1.6974
4.06261
4.54072
4.50108
4.46316
4.41707
4.3285
4.0957
1.45159
1.46304
3.26543
4.61591
4.56171
4.51443
4.46966
4.42263
4.33482
4.10604
1.45011
2.34441
4.56158
4.52347
4.49486
4.49291
4.47258
4.42808
4.34276
4.11302
2.17415
4.20642
5.89942
5.14613
4.766
4.57858
4.49145
4.43465
4.35957
4.17288
3.19305
2.95843
2.36708
1.94356
1.52386
1.48752
1.87324
2.54089
2.58806
2.54319
3.36652
2.96397
2.28793
1.89263
1.50308
1.45853
1.83808
2.51873
2.57835
2.57172
3.4562
2.90983
2.21144
1.84362
1.48473
1.43421
1.80684
2.49334
2.5745
2.59602
3.44794
2.83761
2.1431
1.80238
1.47186
1.41955
1.78116
2.46589
2.5767
2.61714
3.47345
2.75894
2.07963
1.76559
1.46226
1.4088
1.76018
2.44509
2.57531
2.63529
3.44547
2.68066
2.02462
1.73705
1.45784
1.40068
1.7394
2.43121
2.58969
2.65276
3.36375
2.60456
1.96924
1.71006
1.45646
1.39529
1.71879
2.4178
2.59927
2.67306
3.30298
2.52275
1.91275
1.68723
1.45546
1.3907
1.69959
2.39795
2.61004
2.6999
3.23806
2.43088
1.85769
1.66321
1.44985
1.38303
1.68042
2.37083
2.62699
2.73237
3.17197
2.32672
1.80153
1.63784
1.44062
1.36978
1.65834
2.33829
2.64828
2.76351
3.10477
2.21401
1.74848
1.61419
1.42804
1.35231
1.63018
2.30784
2.66197
2.7834
3.02904
2.09135
1.70459
1.58862
1.4143
1.33607
1.59948
2.27831
2.65411
2.78896
2.94725
1.96375
1.67029
1.5661
1.40001
1.31992
1.57002
2.24369
2.61607
2.76502
2.85585
1.83483
1.63913
1.53889
1.37952
1.30267
1.54227
2.20696
2.55905
2.71933
2.75134
1.70367
1.60005
1.50836
1.34975
1.28063
1.50644
2.16631
2.46401
2.64657
2.63299
1.57303
1.53684
1.46841
1.30861
1.24587
1.45194
2.10826
2.35645
2.54176
2.47986
1.44514
1.45144
1.41402
1.26033
1.19358
1.38382
2.03497
2.25039
2.44108
2.27754
1.31807
1.35371
1.33996
1.19812
1.11522
1.30468
1.9451
2.16499
2.35953
1.98024
1.21109
1.24959
1.24114
1.11884
1.02624
1.22611
1.83978
2.10354
2.30669
1.57058
1.12592
1.14561
1.14704
1.04652
0.939567
1.1482
1.73912
2.06605
2.27935
1.46338
1.46831
1.47205
1.48367
3.02082
4.20633
3.7758
3.23362
2.6649
2.12275
1.46332
1.46831
1.47187
1.493
3.06865
4.20832
3.77715
3.23044
2.66591
2.12873
1.46332
1.46815
1.47172
1.50994
3.14647
4.23975
3.7975
3.23157
2.66886
2.13981
1.46328
1.46796
1.47162
1.54773
3.25754
4.28503
3.81833
3.22791
2.67337
2.1545
1.46325
1.46772
1.47163
1.6217
3.33367
4.31547
3.83134
3.21982
2.67602
2.17015
1.46324
1.46739
1.4731
1.74448
3.35364
4.29424
3.81214
3.19843
2.67825
2.18993
1.46319
1.46702
1.48203
1.89954
3.36508
4.18935
3.73869
3.15278
2.67899
2.21671
1.46313
1.46691
1.52573
2.04954
3.34103
4.01554
3.66567
3.13809
2.69221
2.24954
1.46299
1.46768
1.67213
2.17917
3.21866
3.7978
3.52069
3.05216
2.6967
2.28739
1.4628
1.47134
1.94137
2.35358
3.0117
3.56921
3.36055
2.9742
2.70184
2.32536
1.46261
1.48744
2.25901
2.50722
2.79861
3.28638
3.17506
2.89491
2.69892
2.36557
1.46251
1.55133
2.54004
2.6253
2.61633
2.97002
2.99828
2.8239
2.69812
2.40661
1.46244
1.74218
2.71487
2.70553
2.47595
2.66833
2.83443
2.76029
2.68329
2.43977
1.46271
2.06453
2.79394
2.67841
2.31346
2.40276
2.67893
2.70641
2.67135
2.46218
1.46946
2.41064
2.81206
2.58252
2.13929
2.17478
2.51832
2.66403
2.65967
2.47454
1.54872
2.68686
2.82556
2.48801
1.98167
1.98724
2.36684
2.62798
2.64493
2.47872
1.83122
2.85904
2.80917
2.37725
1.84224
1.83828
2.22887
2.6011
2.62842
2.48136
2.13628
2.90462
2.70655
2.25083
1.72938
1.71861
2.11405
2.57006
2.60954
2.48455
2.36125
2.89853
2.59973
2.13689
1.64053
1.62338
2.01724
2.5575
2.6005
2.49294
2.89045
2.93365
2.47727
2.02503
1.56811
1.54311
1.93217
2.55544
2.59608
2.50987
2.89338
2.92777
2.45437
1.94549
1.60301
1.66529
2.09536
2.49738
2.49495
2.53926
2.36053
2.88991
2.57317
2.0879
1.65326
1.71654
2.17683
2.52431
2.51046
2.52123
2.138
2.89525
2.68136
2.2178
1.72437
1.79656
2.27103
2.54244
2.52803
2.50868
1.83333
2.84678
2.78797
2.35901
1.82396
1.90321
2.38664
2.56372
2.55817
2.50979
1.54996
2.67505
2.80786
2.47899
1.95893
2.03728
2.51809
2.59286
2.58818
2.51194
1.46968
2.40125
2.7941
2.57557
2.121
2.19438
2.64897
2.64064
2.61514
2.50742
1.46274
2.05464
2.77068
2.67056
2.30388
2.39095
2.77124
2.70214
2.63708
2.48468
1.46245
1.73275
2.68851
2.69246
2.47265
2.63875
2.89552
2.77147
2.65406
2.448
1.46252
1.54718
2.51063
2.61438
2.61393
2.94918
3.0388
2.83746
2.66317
2.40522
1.46262
1.48636
2.22611
2.49627
2.7939
3.28077
3.2024
2.90762
2.65959
2.35783
1.46281
1.47112
1.90757
2.33325
2.99995
3.57006
3.3809
2.98265
2.65758
2.30927
1.46299
1.46764
1.64777
2.15184
3.1986
3.796
3.53228
3.05086
2.64969
2.26404
1.46313
1.46693
1.51662
2.02645
3.30882
4.00236
3.67705
3.12979
2.63874
2.22129
1.46319
1.46705
1.47997
1.88136
3.33527
4.17631
3.72884
3.13009
2.62821
2.18834
1.46323
1.46743
1.47275
1.73187
3.33111
4.2792
3.79278
3.16699
2.625
2.16129
1.46325
1.46775
1.47157
1.61501
3.31903
4.30203
3.81666
3.19857
2.62728
2.14247
1.46328
1.46797
1.47162
1.54501
3.24948
4.27289
3.81146
3.21665
2.63524
2.12912
1.46332
1.46816
1.47172
1.50894
3.14655
4.23326
3.79947
3.23004
2.64269
2.11806
1.46332
1.46831
1.47187
1.49276
3.07254
4.20576
3.78797
3.23744
2.64945
2.11019
1.46338
1.46831
1.47205
1.48363
3.02549
4.20915
3.79215
3.24718
2.65459
2.1059
1.45262
1.45324
1.45391
1.45464
1.45544
1.45631
1.45726
1.45832
1.45936
1.46127
1.45262
1.45323
1.45389
1.45462
1.4554
1.45626
1.45719
1.4582
1.45939
1.46025
1.45263
1.45323
1.45389
1.45461
1.45539
1.45623
1.45715
1.45813
1.45934
1.46018
1.45263
1.45323
1.45389
1.45461
1.45538
1.45622
1.45714
1.45811
1.45929
1.46013
1.45263
1.45324
1.45389
1.45461
1.45538
1.45622
1.45714
1.45811
1.45927
1.46012
1.45264
1.45325
1.4539
1.45462
1.45539
1.45622
1.45714
1.45812
1.45924
1.4602
1.45262
1.45323
1.45389
1.45461
1.45539
1.45623
1.45715
1.45814
1.45923
1.46041
1.45262
1.45322
1.45389
1.45461
1.4554
1.45625
1.45718
1.45817
1.45925
1.46052
1.45263
1.45324
1.45391
1.45463
1.45542
1.45627
1.4572
1.45821
1.45927
1.46055
1.45266
1.45328
1.45394
1.45467
1.45545
1.45631
1.45723
1.45823
1.45929
1.46054
1.45271
1.45332
1.45399
1.45471
1.45549
1.45634
1.45725
1.45824
1.4593
1.46052
1.45276
1.45337
1.45403
1.45474
1.45552
1.45635
1.45726
1.45825
1.45929
1.46048
1.45279
1.45339
1.45404
1.45475
1.45551
1.45634
1.45724
1.45822
1.45928
1.46045
1.45279
1.4534
1.45404
1.45474
1.45551
1.45634
1.45724
1.45822
1.45928
1.46045
1.45277
1.45338
1.45404
1.45475
1.45553
1.45636
1.45726
1.45824
1.45931
1.46046
1.45273
1.45334
1.45401
1.45474
1.45552
1.45636
1.45728
1.45827
1.45934
1.46049
1.45269
1.4533
1.45397
1.4547
1.45548
1.45634
1.45726
1.45825
1.45934
1.46051
1.45265
1.45326
1.45392
1.45465
1.45543
1.45629
1.45722
1.45823
1.45933
1.46052
1.45262
1.45323
1.4539
1.45462
1.45541
1.45627
1.4572
1.45821
1.45932
1.46052
1.45259
1.45321
1.45388
1.4546
1.4554
1.45626
1.4572
1.45821
1.45932
1.46051
1.40161
1.40498
1.40868
1.41277
1.41726
1.42225
1.42772
1.43394
1.44067
1.44833
1.40161
1.40498
1.40868
1.41277
1.41726
1.42225
1.42772
1.43393
1.44068
1.44834
1.40161
1.40498
1.40868
1.41277
1.41726
1.42225
1.42773
1.43391
1.4407
1.44835
1.40161
1.40498
1.40868
1.41277
1.41726
1.42225
1.42774
1.43389
1.44072
1.44836
1.40161
1.40498
1.40868
1.41277
1.41726
1.42225
1.42774
1.43388
1.44073
1.44836
1.40161
1.40498
1.40868
1.41277
1.41726
1.42225
1.42775
1.43387
1.44074
1.44837
1.40161
1.40498
1.40868
1.41277
1.41726
1.42224
1.42775
1.43386
1.44075
1.44835
1.40161
1.40498
1.40868
1.41277
1.41726
1.42224
1.42775
1.43386
1.44074
1.44835
1.40161
1.40498
1.40868
1.41277
1.41726
1.42224
1.42776
1.43386
1.44073
1.44836
1.40161
1.40498
1.40868
1.41277
1.41726
1.42224
1.42776
1.43386
1.44072
1.44837
1.40161
1.40498
1.40868
1.41277
1.41726
1.42224
1.42776
1.43387
1.4407
1.4484
1.40161
1.40498
1.40868
1.41277
1.41726
1.42224
1.42776
1.43387
1.44068
1.44843
1.40161
1.40498
1.40868
1.41277
1.41726
1.42224
1.42775
1.43388
1.44067
1.44846
1.40161
1.40498
1.40868
1.41277
1.41726
1.42224
1.42775
1.43388
1.44067
1.44846
1.40161
1.40498
1.40868
1.41277
1.41726
1.42224
1.42775
1.43389
1.44067
1.44844
1.40161
1.40498
1.40868
1.41277
1.41726
1.42224
1.42775
1.43389
1.44068
1.4484
1.40161
1.40498
1.40868
1.41277
1.41726
1.42224
1.42775
1.43388
1.44069
1.44838
1.40161
1.40498
1.40868
1.41277
1.41726
1.42224
1.42775
1.43388
1.4407
1.44836
1.40161
1.40498
1.40868
1.41277
1.41726
1.42224
1.42775
1.43388
1.44071
1.44834
1.40161
1.40498
1.40868
1.41277
1.41726
1.42224
1.42775
1.43388
1.44072
1.44832
1.40161
1.40498
1.40868
1.41277
1.41726
1.42224
1.42775
1.43388
1.44072
1.44832
1.40161
1.40498
1.40868
1.41277
1.41726
1.42224
1.42775
1.43388
1.44071
1.44834
1.40161
1.40498
1.40868
1.41277
1.41726
1.42224
1.42775
1.43388
1.4407
1.44836
1.40161
1.40498
1.40868
1.41277
1.41726
1.42224
1.42775
1.43388
1.44069
1.44838
1.40161
1.40498
1.40868
1.41277
1.41726
1.42224
1.42775
1.43389
1.44068
1.4484
1.40161
1.40498
1.40868
1.41277
1.41726
1.42224
1.42775
1.43389
1.44067
1.44844
1.40161
1.40498
1.40868
1.41277
1.41726
1.42224
1.42775
1.43388
1.44067
1.44846
1.40161
1.40498
1.40868
1.41277
1.41726
1.42224
1.42775
1.43388
1.44067
1.44846
1.40161
1.40498
1.40868
1.41277
1.41726
1.42224
1.42776
1.43387
1.44068
1.44843
1.40161
1.40498
1.40868
1.41277
1.41726
1.42224
1.42776
1.43387
1.4407
1.4484
1.40161
1.40498
1.40868
1.41277
1.41726
1.42224
1.42776
1.43386
1.44072
1.44837
1.40161
1.40498
1.40868
1.41277
1.41726
1.42224
1.42776
1.43386
1.44074
1.44836
1.40161
1.40498
1.40868
1.41277
1.41726
1.42224
1.42776
1.43386
1.44075
1.44835
1.40161
1.40498
1.40868
1.41277
1.41726
1.42224
1.42775
1.43386
1.44075
1.44835
1.40161
1.40498
1.40868
1.41277
1.41726
1.42225
1.42775
1.43387
1.44074
1.44837
1.40161
1.40498
1.40868
1.41277
1.41726
1.42225
1.42774
1.43388
1.44073
1.44836
1.40161
1.40498
1.40868
1.41277
1.41726
1.42225
1.42774
1.43389
1.44072
1.44836
1.40161
1.40498
1.40868
1.41277
1.41726
1.42225
1.42773
1.43391
1.4407
1.44835
1.40161
1.40498
1.40868
1.41277
1.41726
1.42225
1.42772
1.43393
1.44068
1.44834
1.40161
1.40498
1.40868
1.41277
1.41726
1.42225
1.42772
1.43394
1.44067
1.44833
1.45259
1.45321
1.45388
1.45461
1.4554
1.45626
1.4572
1.45821
1.45932
1.46051
1.45262
1.45323
1.4539
1.45462
1.45541
1.45627
1.4572
1.45821
1.45932
1.46052
1.45265
1.45326
1.45392
1.45465
1.45543
1.45629
1.45722
1.45823
1.45933
1.46052
1.45269
1.4533
1.45397
1.4547
1.45548
1.45634
1.45726
1.45825
1.45934
1.46051
1.45273
1.45334
1.45401
1.45474
1.45552
1.45636
1.45728
1.45827
1.45934
1.46049
1.45277
1.45338
1.45404
1.45475
1.45552
1.45636
1.45726
1.45824
1.4593
1.46046
1.45279
1.4534
1.45404
1.45474
1.4555
1.45634
1.45724
1.45822
1.45928
1.46045
1.45279
1.45339
1.45404
1.45475
1.45551
1.45634
1.45724
1.45822
1.45928
1.46045
1.45276
1.45337
1.45403
1.45474
1.45552
1.45635
1.45726
1.45825
1.45929
1.46048
1.45271
1.45332
1.45399
1.45471
1.45549
1.45634
1.45725
1.45824
1.4593
1.46052
1.45266
1.45328
1.45394
1.45467
1.45545
1.4563
1.45723
1.45823
1.45929
1.46054
1.45263
1.45324
1.45391
1.45463
1.45542
1.45627
1.4572
1.4582
1.45927
1.46055
1.45262
1.45322
1.45389
1.45461
1.4554
1.45625
1.45718
1.45817
1.45925
1.46052
1.45262
1.45323
1.45389
1.45461
1.45539
1.45623
1.45715
1.45814
1.45923
1.46041
1.45264
1.45325
1.4539
1.45462
1.45539
1.45622
1.45714
1.45812
1.45924
1.4602
1.45263
1.45324
1.4539
1.45461
1.45538
1.45622
1.45714
1.45811
1.45927
1.46012
1.45263
1.45323
1.45389
1.45461
1.45538
1.45622
1.45714
1.45811
1.45929
1.46013
1.45263
1.45323
1.45389
1.45461
1.45539
1.45623
1.45715
1.45813
1.45934
1.46018
1.45262
1.45323
1.45389
1.45462
1.4554
1.45626
1.45719
1.4582
1.45939
1.46025
1.45262
1.45324
1.45391
1.45464
1.45544
1.45631
1.45726
1.45832
1.45936
1.46127
)
;

boundaryField
{
    inlet
    {
        type            calculated;
        value           uniform 1.40001;
    }
    outlet
    {
        type            calculated;
        value           nonuniform List<scalar> 
100
(
2.53931
2.52136
2.50877
2.5098
2.51194
2.50737
2.48472
2.44801
2.40521
2.35784
2.30929
2.26406
2.22131
2.18835
2.16132
2.14254
2.12927
2.11827
2.11044
2.10618
2.48568
2.52805
2.56926
2.60498
2.63427
2.65355
2.65709
2.65877
2.65478
2.64708
2.63262
2.61174
2.58877
2.56761
2.55164
2.53996
2.53497
2.53651
2.54081
2.5447
2.26709
2.25934
2.25201
2.24377
2.23161
2.22022
2.20669
2.19798
2.18817
2.18427
2.1847
2.19384
2.21215
2.23831
2.27057
2.305
2.34156
2.3776
2.4129
2.44733
2.54391
2.57239
2.59654
2.61754
2.6356
2.65306
2.67346
2.70045
2.73304
2.76416
2.78398
2.78944
2.76536
2.71987
2.64708
2.54228
2.4416
2.35993
2.30704
2.27963
2.12309
2.12905
2.14011
2.15473
2.17031
2.19004
2.21678
2.24959
2.28738
2.32535
2.36557
2.40664
2.43983
2.46223
2.4746
2.47886
2.48156
2.48477
2.49316
2.51034
)
;
    }
    triangle
    {
        type            calculated;
        value           nonuniform List<scalar> 
40
(
2.17414
4.20475
5.90007
5.14674
4.76644
4.57893
4.49179
4.43504
4.35999
4.17449
1.14099
1.09396
1.04841
1.05362
1.06082
1.0664
1.07245
1.07708
1.08087
1.08347
1.08575
1.08628
1.08676
1.08455
1.08159
1.07832
1.07809
1.07916
1.12288
1.17811
2.17415
4.20642
5.89942
5.14613
4.766
4.57858
4.49145
4.43465
4.35957
4.17288
)
;
    }
    top
    {
        type            symmetryPlane;
    }
    bottom
    {
        type            symmetryPlane;
    }
    defaultFaces
    {
        type            empty;
    }
}


// ************************************************************************* //
