/*--------------------------------*- C++ -*----------------------------------*\
  =========                 |
  \\      /  F ield         | OpenFOAM: The Open Source CFD Toolbox
   \\    /   O peration     | Website:  https://openfoam.org
    \\  /    A nd           | Version:  8
     \\/     M anipulation  |
\*---------------------------------------------------------------------------*/
FoamFile
{
    version     2.0;
    format      ascii;
    class       volScalarField;
    location    "5.3";
    object      T;
}
// * * * * * * * * * * * * * * * * * * * * * * * * * * * * * * * * * * * * * //

dimensions      [0 0 0 1 0 0 0];

internalField   nonuniform List<scalar> 
2600
(
1.68078
1.79447
1.87684
1.93482
1.89913
1.67398
1.65498
1.86868
1.99954
1.96168
1.85746
1.8766
1.9188
1.96705
1.93042
1.73249
1.72587
1.90861
1.99435
1.96276
1.90622
1.90285
1.92915
1.976
1.93578
1.76363
1.78162
1.928
1.98324
1.96327
1.91872
1.90478
1.92588
1.96815
1.92351
1.77635
1.8173
1.9266
1.96781
1.96473
1.91902
1.90366
1.91515
1.94675
1.89724
1.78111
1.83774
1.91504
1.95276
1.96658
1.91648
1.90005
1.89611
1.91486
1.86333
1.7808
1.84743
1.8921
1.93855
1.96834
1.91464
1.89142
1.87174
1.87849
1.83302
1.78058
1.84832
1.86507
1.92811
1.96827
1.91364
1.88413
1.84866
1.84674
1.8108
1.78249
1.84886
1.83824
1.91742
1.96917
1.91445
1.87976
1.83091
1.82263
1.79652
1.78655
1.84792
1.81686
1.9124
1.96654
1.91654
1.8786
1.82204
1.80971
1.79193
1.79262
1.84749
1.80008
1.90669
1.96008
1.91999
1.88138
1.81865
1.80241
1.79117
1.79925
1.84457
1.79174
1.90183
1.94879
1.92343
1.88612
1.82036
1.80094
1.79716
1.81026
1.84225
1.78987
1.8948
1.93241
1.92809
1.89246
1.82621
1.80013
1.80651
1.82929
1.84096
1.79191
1.8843
1.90998
1.93221
1.89856
1.83388
1.80021
1.82474
1.85502
1.84348
1.79584
1.86845
1.883
1.936
1.90251
1.84038
1.7998
1.84608
1.88836
1.85207
1.80207
1.84866
1.85412
1.93825
1.90447
1.84215
1.79293
1.86401
1.92812
1.86758
1.80545
1.82798
1.82526
1.94023
1.90626
1.83706
1.78221
1.87279
1.96752
1.8869
1.80426
1.80817
1.79843
1.9334
1.90212
1.82521
1.75767
1.87178
1.99959
1.90749
1.79938
1.78809
1.77283
1.89384
1.87356
1.80112
1.70306
1.83971
2.01501
1.92974
1.78979
1.76463
1.74804
1.71545
1.79076
1.74492
1.62572
1.76711
2.01372
1.95129
1.78344
1.73569
1.72355
1.61111
1.6612
1.64481
1.53322
1.65022
1.97596
1.96421
1.78297
1.70148
1.69587
1.57869
1.54393
1.53273
1.44144
1.52813
1.89023
1.96445
1.78214
1.6608
1.66441
1.59065
1.45488
1.44075
1.37142
1.43578
1.77036
1.94599
1.76899
1.61761
1.63225
1.61243
1.41374
1.38803
1.32984
1.37539
1.6479
1.90256
1.73078
1.57397
1.60123
1.63751
1.40405
1.36048
1.30561
1.33761
1.54335
1.82816
1.67012
1.53421
1.57457
1.65939
1.40965
1.34835
1.29147
1.31611
1.46802
1.74003
1.60613
1.50237
1.55388
1.67914
1.42255
1.34261
1.27891
1.29681
1.41807
1.65056
1.55115
1.48117
1.53786
1.69594
1.44046
1.34241
1.26816
1.27645
1.38165
1.57397
1.51246
1.47175
1.52836
1.71024
1.46204
1.34726
1.25964
1.26102
1.35544
1.51506
1.4877
1.47219
1.52301
1.72255
1.48591
1.35785
1.25312
1.25297
1.33611
1.47139
1.47466
1.47524
1.52077
1.73177
1.50901
1.37382
1.25556
1.25244
1.32245
1.43595
1.46962
1.47218
1.51903
1.73982
1.53201
1.39103
1.25703
1.25407
1.31313
1.40935
1.46815
1.46939
1.51631
1.74699
1.55352
1.40774
1.26062
1.25675
1.30703
1.3936
1.47054
1.46888
1.51274
1.753
1.57413
1.42324
1.2694
1.25937
1.30251
1.38639
1.47638
1.47178
1.50943
1.75605
1.59275
1.43793
1.28507
1.26224
1.29881
1.3844
1.48481
1.47778
1.50709
1.75479
1.61194
1.44947
1.30366
1.26521
1.29622
1.38566
1.49325
1.48429
1.50515
1.7494
1.62842
1.46264
1.32221
1.26968
1.29471
1.39005
1.501
1.49154
1.50416
1.73858
1.63622
1.4744
1.33772
1.27486
1.29697
1.39682
1.50838
1.49852
1.50415
1.70971
1.63777
1.4852
1.35346
1.28034
1.29883
1.40221
1.51561
1.50464
1.50429
1.68839
1.63431
1.49692
1.36888
1.2852
1.30131
1.41601
1.52345
1.50974
1.50323
1.23653
1.80356
2.2078
2.11199
2.06685
2.04593
2.04097
2.03891
2.03178
2.00318
1.01461
1.40727
2.00855
2.02108
2.02765
2.03513
2.0373
2.03549
2.0257
1.98225
1.01456
1.0195
1.76637
2.07199
2.05483
2.0437
2.03667
2.03048
2.01689
1.9676
1.01463
1.01488
1.14167
1.94959
2.04634
2.03817
2.03103
2.02237
2.00585
1.95455
1.0147
1.01486
1.01516
1.45475
1.98714
2.02949
2.02316
2.01304
1.99371
1.94288
1.01473
1.0149
1.01514
1.03525
1.80413
2.0247
2.01575
2.00209
1.98133
1.93303
1.01476
1.01495
1.01513
1.01544
1.2474
1.93576
2.00373
1.99032
1.97174
1.92664
1.0148
1.01498
1.01519
1.01538
1.01917
1.68608
1.98627
1.98147
1.9643
1.92173
1.01483
1.01501
1.01522
1.01542
1.01576
1.1757
1.89405
1.97739
1.95626
1.91721
1.01485
1.01503
1.01522
1.01545
1.01565
1.01931
1.62642
1.95713
1.94713
1.9129
1.01486
1.01504
1.01523
1.01546
1.01567
1.01604
1.16709
1.86333
1.94299
1.90788
1.01487
1.01504
1.01524
1.01545
1.01569
1.01591
1.02139
1.64053
1.9266
1.90072
1.01487
1.01505
1.01524
1.01545
1.01568
1.01591
1.01636
1.2195
1.84107
1.89605
1.01487
1.01504
1.01524
1.01544
1.01568
1.01592
1.01622
1.03074
1.69367
1.88266
1.01487
1.01505
1.01523
1.01544
1.01567
1.01593
1.01617
1.01701
1.34673
1.83691
1.01487
1.01505
1.01524
1.01545
1.01567
1.01594
1.01619
1.01662
1.07769
1.75762
1.01487
1.01505
1.01524
1.01545
1.01568
1.01593
1.0162
1.01648
1.02131
1.61209
1.01487
1.01505
1.01524
1.01545
1.01568
1.01592
1.0162
1.01646
1.01728
1.32838
1.01487
1.01504
1.01523
1.01544
1.01567
1.01592
1.01619
1.01647
1.01694
1.08926
1.01487
1.01504
1.01523
1.01544
1.01566
1.01591
1.01618
1.01647
1.01678
1.02314
1.00046
1.00142
1.00248
1.00363
1.00492
1.00632
1.00787
1.00964
1.01149
1.01338
1.00046
1.00142
1.00248
1.00363
1.00492
1.00632
1.00787
1.00963
1.01149
1.01341
1.00046
1.00142
1.00248
1.00363
1.00491
1.00632
1.00787
1.00963
1.01149
1.01346
1.00046
1.00142
1.00248
1.00363
1.00491
1.00632
1.00787
1.00963
1.0115
1.0135
1.00046
1.00142
1.00248
1.00363
1.00491
1.00632
1.00787
1.00962
1.01151
1.01353
1.00046
1.00142
1.00248
1.00363
1.00491
1.00632
1.00787
1.00962
1.01151
1.01355
1.00046
1.00142
1.00248
1.00363
1.00491
1.00632
1.00787
1.00961
1.01151
1.01358
1.00046
1.00142
1.00248
1.00363
1.00491
1.00632
1.00787
1.00961
1.01151
1.0136
1.00046
1.00142
1.00248
1.00363
1.00491
1.00632
1.00787
1.00961
1.0115
1.01362
1.00046
1.00142
1.00247
1.00363
1.00491
1.00632
1.00787
1.00962
1.01149
1.01363
1.00046
1.00142
1.00247
1.00363
1.00491
1.00632
1.00787
1.00962
1.01149
1.01364
1.00046
1.00142
1.00247
1.00363
1.00491
1.00632
1.00787
1.00962
1.01149
1.01365
1.00046
1.00142
1.00247
1.00363
1.00491
1.00632
1.00787
1.00962
1.01149
1.01365
1.00046
1.00142
1.00247
1.00363
1.00491
1.00632
1.00787
1.00962
1.01149
1.01366
1.00046
1.00142
1.00247
1.00363
1.00491
1.00632
1.00787
1.00962
1.0115
1.01366
1.00046
1.00142
1.00247
1.00363
1.00491
1.00632
1.00787
1.00962
1.0115
1.01366
1.00046
1.00142
1.00247
1.00363
1.00491
1.00632
1.00787
1.00962
1.0115
1.01366
1.00046
1.00142
1.00247
1.00364
1.00491
1.00632
1.00787
1.00962
1.0115
1.01366
1.00046
1.00142
1.00247
1.00364
1.00491
1.00632
1.00787
1.00962
1.01151
1.01366
1.00046
1.00142
1.00247
1.00364
1.00491
1.00632
1.00787
1.00962
1.01151
1.01366
1.00046
1.00142
1.00247
1.00364
1.00491
1.00632
1.00787
1.00962
1.01151
1.01366
1.00046
1.00142
1.00247
1.00364
1.00491
1.00632
1.00787
1.00962
1.01151
1.01366
1.00046
1.00142
1.00247
1.00364
1.00491
1.00632
1.00787
1.00962
1.0115
1.01366
1.00046
1.00142
1.00247
1.00363
1.00491
1.00632
1.00787
1.00962
1.0115
1.01366
1.00046
1.00142
1.00247
1.00363
1.00491
1.00632
1.00787
1.00962
1.0115
1.01366
1.00046
1.00142
1.00247
1.00363
1.00491
1.00632
1.00787
1.00962
1.0115
1.01366
1.00046
1.00142
1.00247
1.00363
1.00491
1.00632
1.00787
1.00962
1.01149
1.01366
1.00046
1.00142
1.00247
1.00363
1.00491
1.00632
1.00787
1.00962
1.01149
1.01365
1.00046
1.00142
1.00247
1.00363
1.00491
1.00632
1.00787
1.00962
1.01149
1.01365
1.00046
1.00142
1.00247
1.00363
1.00491
1.00632
1.00787
1.00962
1.01149
1.01364
1.00046
1.00142
1.00247
1.00363
1.00491
1.00632
1.00787
1.00962
1.01149
1.01363
1.00046
1.00142
1.00248
1.00363
1.00491
1.00632
1.00787
1.00962
1.0115
1.01362
1.00046
1.00142
1.00248
1.00363
1.00491
1.00632
1.00787
1.00961
1.01151
1.0136
1.00046
1.00142
1.00248
1.00363
1.00491
1.00632
1.00787
1.00962
1.01151
1.01358
1.00046
1.00142
1.00248
1.00363
1.00491
1.00632
1.00787
1.00962
1.01151
1.01355
1.00046
1.00142
1.00248
1.00363
1.00491
1.00632
1.00787
1.00962
1.01151
1.01353
1.00046
1.00142
1.00248
1.00363
1.00491
1.00632
1.00787
1.00963
1.0115
1.0135
1.00046
1.00142
1.00248
1.00363
1.00491
1.00632
1.00787
1.00963
1.01149
1.01346
1.00046
1.00142
1.00248
1.00363
1.00492
1.00632
1.00787
1.00963
1.01149
1.01341
1.00046
1.00142
1.00248
1.00363
1.00492
1.00632
1.00787
1.00963
1.01149
1.01338
1.01487
1.01504
1.01523
1.01544
1.01566
1.01591
1.01618
1.01647
1.01678
1.02313
1.01487
1.01504
1.01523
1.01544
1.01567
1.01592
1.01619
1.01647
1.01694
1.08912
1.01487
1.01505
1.01524
1.01545
1.01568
1.01593
1.0162
1.01646
1.01728
1.32797
1.01487
1.01505
1.01524
1.01545
1.01568
1.01593
1.0162
1.01648
1.02128
1.61185
1.01487
1.01505
1.01524
1.01545
1.01568
1.01594
1.01619
1.01662
1.07741
1.7575
1.01487
1.01505
1.01523
1.01544
1.01567
1.01593
1.01617
1.01701
1.34599
1.83672
1.01487
1.01504
1.01524
1.01544
1.01568
1.01592
1.01622
1.03069
1.69315
1.8826
1.01487
1.01505
1.01524
1.01545
1.01568
1.01591
1.01636
1.21915
1.84078
1.89599
1.01487
1.01504
1.01524
1.01545
1.01569
1.01591
1.02137
1.64014
1.92641
1.90079
1.01486
1.01504
1.01523
1.01546
1.01567
1.01604
1.16677
1.86321
1.94284
1.90804
1.01485
1.01503
1.01522
1.01545
1.01565
1.0193
1.62594
1.95702
1.94696
1.91322
1.01483
1.01501
1.01522
1.01542
1.01576
1.17551
1.89387
1.97733
1.95612
1.91748
1.0148
1.01498
1.01519
1.01538
1.01916
1.68583
1.98615
1.9814
1.96414
1.92194
1.01476
1.01495
1.01513
1.01544
1.24736
1.93567
2.00364
1.99024
1.9716
1.92675
1.01473
1.0149
1.01514
1.03527
1.80406
2.02463
2.01567
2.00201
1.98121
1.93303
1.0147
1.01486
1.01516
1.45483
1.98709
2.02943
2.02309
2.01295
1.99359
1.94278
1.01463
1.01488
1.14184
1.94955
2.0463
2.03814
2.031
2.02231
2.00574
1.95432
1.01456
1.01954
1.76662
2.07197
2.05481
2.0437
2.03667
2.03046
2.01681
1.96731
1.01461
1.4077
2.00867
2.02104
2.02763
2.03514
2.0373
2.03549
2.02565
1.98192
1.23653
1.80398
2.20781
2.11196
2.06684
2.04594
2.041
2.03893
2.03178
2.00293
1.68879
1.63437
1.50312
1.39242
1.2666
1.25117
1.40333
1.56
1.54651
1.5066
1.71064
1.63548
1.48928
1.3822
1.26213
1.24296
1.39426
1.55873
1.54657
1.5155
1.73978
1.63572
1.47598
1.37129
1.25717
1.23544
1.38497
1.55702
1.54754
1.52277
1.75057
1.62837
1.46127
1.36035
1.25307
1.23005
1.37558
1.55396
1.5487
1.5287
1.75548
1.61286
1.4448
1.34905
1.25026
1.22526
1.36609
1.55049
1.54814
1.53317
1.75614
1.59603
1.42957
1.3397
1.24958
1.22149
1.35561
1.54681
1.54989
1.53644
1.75001
1.58017
1.41502
1.33203
1.25037
1.21994
1.3452
1.54197
1.54967
1.53893
1.74145
1.56346
1.40148
1.32786
1.25292
1.21996
1.33629
1.53615
1.55071
1.54219
1.73158
1.54507
1.39043
1.32616
1.25638
1.22031
1.32932
1.53108
1.5545
1.54686
1.72092
1.52475
1.38194
1.32582
1.26074
1.22075
1.32386
1.5283
1.56199
1.55307
1.70977
1.50403
1.37733
1.32857
1.26645
1.22192
1.31942
1.52927
1.57388
1.56185
1.69667
1.48228
1.37632
1.33382
1.27538
1.22653
1.31763
1.534
1.58944
1.57527
1.68277
1.46077
1.38022
1.34396
1.28912
1.23532
1.31883
1.54195
1.61189
1.594
1.66715
1.44148
1.39049
1.35815
1.30757
1.24926
1.32409
1.553
1.65383
1.62778
1.64866
1.42697
1.40649
1.37976
1.3334
1.2697
1.33395
1.5685
1.71297
1.68173
1.6277
1.42072
1.42782
1.41324
1.37337
1.29923
1.34828
1.58876
1.78815
1.75136
1.60261
1.43653
1.46673
1.47103
1.44167
1.34469
1.37438
1.62028
1.86598
1.82849
1.58059
1.4824
1.53821
1.57437
1.54674
1.4081
1.41838
1.66824
1.93188
1.89349
1.56923
1.56623
1.64926
1.70978
1.68012
1.49201
1.48594
1.73157
1.97447
1.93494
1.60061
1.67174
1.77783
1.84488
1.81197
1.58694
1.56985
1.80503
1.99468
1.95505
1.01786
1.01924
1.02026
1.02355
1.62317
1.86978
1.78258
1.67358
1.54757
1.41526
1.01785
1.01924
1.02022
1.02606
1.62052
1.86067
1.7759
1.66853
1.54568
1.41578
1.01785
1.01919
1.02018
1.03054
1.60005
1.83961
1.7597
1.65606
1.53955
1.41555
1.01783
1.01914
1.02015
1.04062
1.57013
1.80973
1.73401
1.63513
1.52841
1.41383
1.01783
1.01907
1.02015
1.0613
1.54058
1.77884
1.70541
1.6091
1.51261
1.40954
1.01782
1.01898
1.02055
1.09851
1.52252
1.74485
1.67302
1.57986
1.49427
1.40392
1.01781
1.01887
1.02293
1.1483
1.51832
1.70584
1.63727
1.54867
1.47514
1.39829
1.0178
1.01884
1.03426
1.1936
1.51098
1.66573
1.61016
1.52749
1.45956
1.39293
1.01775
1.01906
1.07338
1.22934
1.48832
1.6282
1.58022
1.49901
1.44517
1.38868
1.0177
1.02006
1.15471
1.28803
1.46198
1.60092
1.55963
1.48273
1.43841
1.3864
1.01765
1.02438
1.25582
1.35386
1.44397
1.57291
1.54311
1.4762
1.43768
1.38719
1.01762
1.04124
1.33574
1.40803
1.43137
1.53942
1.53068
1.4775
1.44296
1.39128
1.0176
1.09414
1.39469
1.44816
1.42672
1.49489
1.51505
1.4832
1.45172
1.39901
1.01767
1.19652
1.4587
1.45858
1.41595
1.45007
1.50475
1.49095
1.46561
1.40972
1.01933
1.31709
1.50401
1.47224
1.39632
1.41179
1.49805
1.49652
1.4818
1.42395
1.03812
1.41198
1.53888
1.47967
1.3755
1.37996
1.49035
1.50494
1.49632
1.44013
1.11509
1.50411
1.55798
1.48088
1.35285
1.35179
1.47685
1.51879
1.51046
1.45569
1.27766
1.59622
1.56372
1.4665
1.32515
1.32139
1.45852
1.53243
1.52322
1.46987
1.47054
1.63001
1.56147
1.44341
1.29833
1.29238
1.43762
1.54631
1.53495
1.48233
1.64037
1.63428
1.52957
1.41251
1.27737
1.2675
1.4174
1.55711
1.54334
1.49389
1.63995
1.63365
1.52287
1.3949
1.29266
1.30879
1.43871
1.52942
1.51186
1.49721
1.46921
1.62867
1.55488
1.43234
1.30835
1.32516
1.47282
1.5313
1.51058
1.48511
1.27789
1.59411
1.55765
1.45842
1.32984
1.34975
1.49959
1.52654
1.50509
1.47174
1.1157
1.50153
1.55104
1.47518
1.35242
1.37577
1.51509
1.51955
1.49878
1.45902
1.03844
1.40842
1.53164
1.47377
1.37132
1.39851
1.5216
1.51337
1.4877
1.44525
1.01939
1.31316
1.49606
1.46551
1.39056
1.42001
1.52582
1.50557
1.47261
1.43117
1.01768
1.19282
1.44841
1.45133
1.4104
1.44717
1.52833
1.49598
1.45723
1.41678
1.0176
1.09157
1.38279
1.44081
1.422
1.48515
1.52932
1.48793
1.44402
1.40381
1.01762
1.04022
1.32239
1.40004
1.42696
1.53359
1.53475
1.48154
1.43402
1.39392
1.01765
1.0241
1.24141
1.34511
1.43789
1.56844
1.5458
1.47898
1.42854
1.38788
1.0177
1.02
1.1428
1.27794
1.4529
1.59761
1.56168
1.48471
1.42889
1.38544
1.01776
1.01904
1.06669
1.22114
1.47882
1.62608
1.58137
1.49837
1.43533
1.38569
1.0178
1.01885
1.03194
1.18778
1.50163
1.66342
1.61238
1.52532
1.44805
1.38718
1.01781
1.01888
1.02239
1.14328
1.51091
1.70434
1.63625
1.54385
1.46402
1.39164
1.01782
1.01899
1.02046
1.09484
1.5186
1.74288
1.66954
1.57276
1.48247
1.39702
1.01783
1.01908
1.02013
1.05941
1.53927
1.77663
1.70236
1.60346
1.50147
1.4026
1.01783
1.01914
1.02015
1.03988
1.56989
1.8075
1.73234
1.63133
1.51933
1.40718
1.01785
1.01919
1.02018
1.03027
1.60162
1.8381
1.7592
1.65435
1.53299
1.40966
1.01785
1.01924
1.02022
1.02601
1.62357
1.8599
1.77715
1.66877
1.54123
1.41052
1.01786
1.01924
1.02026
1.02356
1.62679
1.87008
1.78507
1.6752
1.54445
1.41033
1.01486
1.01504
1.01522
1.01543
1.01565
1.01589
1.01616
1.01645
1.01674
1.01729
1.01486
1.01503
1.01522
1.01542
1.01564
1.01588
1.01614
1.01642
1.01675
1.01699
1.01487
1.01503
1.01522
1.01542
1.01564
1.01587
1.01613
1.0164
1.01674
1.01697
1.01487
1.01504
1.01522
1.01542
1.01563
1.01587
1.01612
1.0164
1.01672
1.01696
1.01487
1.01504
1.01522
1.01542
1.01563
1.01587
1.01612
1.0164
1.01672
1.01696
1.01487
1.01504
1.01522
1.01542
1.01564
1.01587
1.01612
1.0164
1.01671
1.01698
1.01486
1.01503
1.01522
1.01542
1.01564
1.01587
1.01613
1.0164
1.01671
1.01704
1.01486
1.01503
1.01522
1.01542
1.01564
1.01588
1.01614
1.01641
1.01671
1.01707
1.01487
1.01504
1.01522
1.01543
1.01565
1.01588
1.01614
1.01642
1.01672
1.01708
1.01488
1.01505
1.01523
1.01544
1.01566
1.01589
1.01615
1.01643
1.01672
1.01707
1.01489
1.01506
1.01525
1.01545
1.01567
1.0159
1.01616
1.01643
1.01673
1.01707
1.0149
1.01507
1.01526
1.01546
1.01567
1.01591
1.01616
1.01643
1.01673
1.01706
1.01491
1.01508
1.01526
1.01546
1.01567
1.0159
1.01615
1.01643
1.01672
1.01705
1.01491
1.01508
1.01526
1.01546
1.01567
1.0159
1.01615
1.01643
1.01672
1.01705
1.01491
1.01508
1.01526
1.01546
1.01568
1.01591
1.01616
1.01643
1.01673
1.01705
1.01489
1.01507
1.01525
1.01545
1.01567
1.01591
1.01616
1.01644
1.01674
1.01706
1.01488
1.01505
1.01524
1.01544
1.01566
1.0159
1.01616
1.01644
1.01674
1.01707
1.01487
1.01504
1.01523
1.01543
1.01565
1.01589
1.01615
1.01643
1.01674
1.01707
1.01486
1.01504
1.01522
1.01542
1.01564
1.01588
1.01614
1.01642
1.01673
1.01707
1.01486
1.01503
1.01522
1.01542
1.01564
1.01588
1.01614
1.01642
1.01673
1.01706
1.00046
1.00142
1.00247
1.00364
1.00491
1.00632
1.00787
1.00962
1.01151
1.01366
1.00046
1.00142
1.00247
1.00364
1.00491
1.00632
1.00787
1.00962
1.01152
1.01366
1.00046
1.00142
1.00247
1.00364
1.00491
1.00632
1.00787
1.00962
1.01153
1.01367
1.00046
1.00142
1.00247
1.00364
1.00491
1.00632
1.00787
1.00961
1.01153
1.01367
1.00046
1.00142
1.00247
1.00364
1.00491
1.00632
1.00788
1.00961
1.01153
1.01367
1.00046
1.00142
1.00247
1.00364
1.00491
1.00632
1.00788
1.0096
1.01154
1.01367
1.00046
1.00142
1.00247
1.00364
1.00491
1.00632
1.00788
1.0096
1.01154
1.01367
1.00046
1.00142
1.00247
1.00364
1.00491
1.00632
1.00788
1.0096
1.01154
1.01367
1.00046
1.00142
1.00247
1.00364
1.00491
1.00632
1.00788
1.0096
1.01153
1.01367
1.00046
1.00142
1.00247
1.00364
1.00491
1.00632
1.00788
1.0096
1.01153
1.01367
1.00046
1.00142
1.00247
1.00363
1.00491
1.00632
1.00788
1.0096
1.01152
1.01368
1.00046
1.00142
1.00247
1.00363
1.00491
1.00632
1.00788
1.00961
1.01152
1.01369
1.00046
1.00142
1.00247
1.00363
1.00491
1.00632
1.00788
1.00961
1.01152
1.0137
1.00046
1.00142
1.00247
1.00363
1.00491
1.00632
1.00788
1.00961
1.01152
1.0137
1.00046
1.00142
1.00247
1.00363
1.00491
1.00632
1.00788
1.00961
1.01152
1.01369
1.00046
1.00142
1.00247
1.00363
1.00491
1.00632
1.00788
1.00961
1.01152
1.01368
1.00046
1.00142
1.00247
1.00363
1.00491
1.00632
1.00788
1.00961
1.01152
1.01368
1.00046
1.00142
1.00247
1.00363
1.00491
1.00632
1.00788
1.00961
1.01153
1.01367
1.00046
1.00142
1.00247
1.00363
1.00491
1.00632
1.00788
1.00961
1.01153
1.01367
1.00046
1.00142
1.00247
1.00363
1.00491
1.00632
1.00788
1.00961
1.01153
1.01366
1.00046
1.00142
1.00247
1.00363
1.00491
1.00632
1.00788
1.00961
1.01153
1.01366
1.00046
1.00142
1.00247
1.00363
1.00491
1.00632
1.00788
1.00961
1.01153
1.01367
1.00046
1.00142
1.00247
1.00363
1.00491
1.00632
1.00788
1.00961
1.01153
1.01367
1.00046
1.00142
1.00247
1.00363
1.00491
1.00632
1.00788
1.00961
1.01152
1.01368
1.00046
1.00142
1.00247
1.00363
1.00491
1.00632
1.00788
1.00961
1.01152
1.01368
1.00046
1.00142
1.00247
1.00363
1.00491
1.00632
1.00788
1.00961
1.01152
1.01369
1.00046
1.00142
1.00247
1.00363
1.00491
1.00632
1.00788
1.00961
1.01152
1.0137
1.00046
1.00142
1.00247
1.00363
1.00491
1.00632
1.00788
1.00961
1.01152
1.0137
1.00046
1.00142
1.00247
1.00363
1.00491
1.00632
1.00788
1.00961
1.01152
1.01369
1.00046
1.00142
1.00247
1.00363
1.00491
1.00632
1.00788
1.0096
1.01152
1.01368
1.00046
1.00142
1.00247
1.00364
1.00491
1.00632
1.00788
1.0096
1.01153
1.01367
1.00046
1.00142
1.00247
1.00364
1.00491
1.00632
1.00788
1.0096
1.01153
1.01367
1.00046
1.00142
1.00247
1.00364
1.00491
1.00632
1.00788
1.0096
1.01154
1.01367
1.00046
1.00142
1.00247
1.00364
1.00491
1.00632
1.00788
1.0096
1.01154
1.01367
1.00046
1.00142
1.00247
1.00364
1.00491
1.00632
1.00788
1.0096
1.01154
1.01367
1.00046
1.00142
1.00247
1.00364
1.00491
1.00632
1.00788
1.00961
1.01153
1.01367
1.00046
1.00142
1.00247
1.00364
1.00491
1.00632
1.00787
1.00961
1.01153
1.01367
1.00046
1.00142
1.00247
1.00364
1.00491
1.00632
1.00787
1.00962
1.01153
1.01367
1.00046
1.00142
1.00247
1.00364
1.00491
1.00632
1.00787
1.00962
1.01152
1.01366
1.00046
1.00142
1.00247
1.00364
1.00491
1.00632
1.00787
1.00962
1.01151
1.01366
1.01486
1.01503
1.01522
1.01542
1.01564
1.01588
1.01614
1.01642
1.01673
1.01706
1.01486
1.01504
1.01522
1.01542
1.01564
1.01588
1.01614
1.01643
1.01673
1.01707
1.01487
1.01504
1.01523
1.01543
1.01565
1.01589
1.01615
1.01643
1.01674
1.01707
1.01488
1.01505
1.01524
1.01544
1.01566
1.0159
1.01616
1.01644
1.01674
1.01707
1.01489
1.01507
1.01525
1.01545
1.01567
1.01591
1.01616
1.01644
1.01674
1.01706
1.01491
1.01508
1.01526
1.01546
1.01567
1.01591
1.01616
1.01643
1.01673
1.01705
1.01491
1.01508
1.01526
1.01546
1.01567
1.0159
1.01615
1.01643
1.01672
1.01705
1.01491
1.01508
1.01526
1.01546
1.01567
1.0159
1.01615
1.01643
1.01672
1.01705
1.0149
1.01507
1.01526
1.01546
1.01567
1.01591
1.01616
1.01643
1.01673
1.01706
1.01489
1.01506
1.01525
1.01545
1.01567
1.0159
1.01616
1.01643
1.01673
1.01707
1.01488
1.01505
1.01523
1.01544
1.01565
1.01589
1.01615
1.01643
1.01672
1.01707
1.01487
1.01504
1.01522
1.01543
1.01565
1.01588
1.01614
1.01642
1.01672
1.01708
1.01486
1.01503
1.01522
1.01542
1.01564
1.01588
1.01614
1.01641
1.01671
1.01707
1.01486
1.01503
1.01522
1.01542
1.01564
1.01587
1.01613
1.0164
1.01671
1.01704
1.01487
1.01504
1.01522
1.01542
1.01564
1.01587
1.01612
1.0164
1.01671
1.01698
1.01487
1.01504
1.01522
1.01542
1.01563
1.01587
1.01612
1.0164
1.01672
1.01696
1.01487
1.01504
1.01522
1.01542
1.01563
1.01587
1.01612
1.0164
1.01672
1.01696
1.01487
1.01503
1.01522
1.01542
1.01564
1.01587
1.01613
1.0164
1.01674
1.01697
1.01486
1.01503
1.01522
1.01542
1.01564
1.01588
1.01614
1.01642
1.01675
1.01699
1.01486
1.01504
1.01522
1.01543
1.01565
1.01589
1.01616
1.01645
1.01674
1.01729
)
;

boundaryField
{
    inlet
    {
        type            fixedValue;
        value           uniform 1;
    }
    outlet
    {
        type            inletOutlet;
        inletValue      uniform 1;
        value           nonuniform List<scalar> 
100
(
1.49718
1.48503
1.47169
1.45902
1.44525
1.4312
1.41676
1.4038
1.39393
1.38788
1.38543
1.38568
1.38716
1.39164
1.397
1.40255
1.40708
1.40952
1.41034
1.41014
1.69559
1.66411
1.63195
1.60096
1.57438
1.55372
1.53777
1.52839
1.52309
1.52086
1.51904
1.51632
1.51274
1.50944
1.50713
1.50522
1.50427
1.5043
1.50445
1.50333
1.96148
1.96256
1.96307
1.96456
1.96644
1.96824
1.96821
1.9691
1.96646
1.96003
1.94878
1.93241
1.91002
1.88304
1.85417
1.82529
1.79844
1.77277
1.74789
1.72334
1.50617
1.51511
1.52247
1.52847
1.53298
1.53626
1.5387
1.54187
1.54649
1.55271
1.56153
1.575
1.59381
1.62746
1.6814
1.75099
1.8281
1.89317
1.93464
1.95482
1.41504
1.41556
1.41536
1.41368
1.40944
1.40385
1.39824
1.39291
1.38868
1.3864
1.38719
1.39126
1.39898
1.40969
1.42392
1.44004
1.45557
1.46973
1.4822
1.49361
)
;
    }
    triangle
    {
        type            zeroGradient;
    }
    top
    {
        type            symmetryPlane;
    }
    bottom
    {
        type            symmetryPlane;
    }
    defaultFaces
    {
        type            empty;
    }
}


// ************************************************************************* //
