/*--------------------------------*- C++ -*----------------------------------*\
  =========                 |
  \\      /  F ield         | OpenFOAM: The Open Source CFD Toolbox
   \\    /   O peration     | Website:  https://openfoam.org
    \\  /    A nd           | Version:  8
     \\/     M anipulation  |
\*---------------------------------------------------------------------------*/
FoamFile
{
    version     2.0;
    format      ascii;
    class       volVectorField;
    location    "5.3";
    object      U;
}
// * * * * * * * * * * * * * * * * * * * * * * * * * * * * * * * * * * * * * //

dimensions      [0 1 -1 0 0 0 0];

internalField   nonuniform List<vector> 
2600
(
(1.64035 0.173251 0)
(1.36438 -0.0217212 0)
(1.04202 0.00821861 0)
(0.911888 -0.0430761 0)
(1.05165 -0.121044 0)
(1.57965 -0.0205857 0)
(1.78163 0.193992 0)
(1.05037 0.244905 0)
(0.63939 0.0797908 0)
(0.735693 -0.0609555 0)
(0.76221 -0.104869 0)
(0.729801 -0.0559474 0)
(0.568364 -0.00454142 0)
(0.488861 -0.0764845 0)
(0.657664 -0.153246 0)
(1.25998 -0.0774808 0)
(1.51838 0.20222 0)
(0.852866 0.28292 0)
(0.462362 0.0979062 0)
(0.57691 -0.0638422 0)
(0.157535 -0.105726 0)
(0.242634 0.00528418 0)
(0.194903 0.0285991 0)
(0.153634 -0.0580424 0)
(0.335309 -0.194205 0)
(0.913676 -0.128116 0)
(1.1951 0.219708 0)
(0.639354 0.32462 0)
(0.299104 0.100654 0)
(0.43966 -0.0732772 0)
(-0.0716538 -0.122929 0)
(-0.0328287 -0.0260371 0)
(-0.0618579 0.0118378 0)
(-0.0887003 -0.0895546 0)
(0.0802725 -0.238325 0)
(0.584445 -0.179161 0)
(0.863683 0.228159 0)
(0.425965 0.356208 0)
(0.156202 0.112361 0)
(0.332977 -0.077522 0)
(-0.129963 -0.114797 0)
(-0.17262 -0.00177455 0)
(-0.230045 0.0329319 0)
(-0.261108 -0.0842384 0)
(-0.122208 -0.273099 0)
(0.299467 -0.213132 0)
(0.564864 0.245643 0)
(0.230082 0.393854 0)
(0.0388541 0.112994 0)
(0.264586 -0.0876348 0)
(-0.138727 -0.0907471 0)
(-0.250341 0.00344655 0)
(-0.344753 0.0341757 0)
(-0.379303 -0.105173 0)
(-0.276749 -0.310545 0)
(0.0707356 -0.250688 0)
(0.309507 0.252929 0)
(0.0592866 0.419468 0)
(-0.044851 0.11357 0)
(0.231193 -0.0930703 0)
(-0.138524 -0.0655061 0)
(-0.293596 0.0240755 0)
(-0.423999 0.0507326 0)
(-0.460817 -0.110731 0)
(-0.392706 -0.332351 0)
(-0.108556 -0.265881 0)
(0.0991211 0.264712 0)
(-0.0827565 0.449872 0)
(-0.091356 0.112479 0)
(0.222266 -0.103783 0)
(-0.144403 -0.0371901 0)
(-0.321605 0.042029 0)
(-0.478706 0.0585878 0)
(-0.51347 -0.122498 0)
(-0.472745 -0.350073 0)
(-0.24326 -0.281886 0)
(-0.0685471 0.271189 0)
(-0.197949 0.463817 0)
(-0.107143 0.0983887 0)
(0.228614 -0.115509 0)
(-0.14901 -0.00662214 0)
(-0.337438 0.0599554 0)
(-0.512576 0.0698547 0)
(-0.545763 -0.130657 0)
(-0.523728 -0.361796 0)
(-0.34621 -0.282915 0)
(-0.194948 0.271709 0)
(-0.275718 0.481805 0)
(-0.0967994 0.0803563 0)
(0.256289 -0.123065 0)
(-0.149392 0.0233763 0)
(-0.340748 0.079348 0)
(-0.532222 0.0795911 0)
(-0.565565 -0.13068 0)
(-0.55011 -0.363034 0)
(-0.420624 -0.284516 0)
(-0.28315 0.271176 0)
(-0.309009 0.489454 0)
(-0.0492007 0.0667537 0)
(0.31442 -0.132244 0)
(-0.146182 0.0518129 0)
(-0.334706 0.0964768 0)
(-0.538747 0.0920828 0)
(-0.575595 -0.125399 0)
(-0.558238 -0.36513 0)
(-0.464825 -0.279289 0)
(-0.340852 0.260912 0)
(-0.311987 0.489009 0)
(0.0400529 0.0450568 0)
(0.405947 -0.139922 0)
(-0.134045 0.0753713 0)
(-0.317544 0.11019 0)
(-0.52921 0.100398 0)
(-0.560293 -0.12072 0)
(-0.552791 -0.368294 0)
(-0.475027 -0.272356 0)
(-0.373484 0.256779 0)
(-0.298896 0.487375 0)
(0.165639 0.0213558 0)
(0.522963 -0.148557 0)
(-0.119364 0.0967168 0)
(-0.288155 0.12421 0)
(-0.492241 0.102766 0)
(-0.498101 -0.111026 0)
(-0.505892 -0.357171 0)
(-0.464792 -0.26091 0)
(-0.381502 0.246754 0)
(-0.260074 0.479345 0)
(0.316341 -0.00944515 0)
(0.652443 -0.159193 0)
(-0.101136 0.113068 0)
(-0.238662 0.134006 0)
(-0.412916 0.10211 0)
(-0.371805 -0.106242 0)
(-0.402598 -0.354079 0)
(-0.447163 -0.240903 0)
(-0.373234 0.232206 0)
(-0.187312 0.468327 0)
(0.482777 -0.0438641 0)
(0.784501 -0.166791 0)
(-0.0937829 0.132472 0)
(-0.163005 0.145133 0)
(-0.277853 0.0996073 0)
(-0.170281 -0.0960408 0)
(-0.247815 -0.333057 0)
(-0.399323 -0.221652 0)
(-0.350451 0.217721 0)
(-0.0842572 0.447922 0)
(0.654457 -0.0818415 0)
(0.91209 -0.176411 0)
(-0.0759001 0.143306 0)
(-0.0558994 0.137668 0)
(-0.0754378 0.0923186 0)
(0.122332 -0.100476 0)
(-0.0289879 -0.30558 0)
(-0.305151 -0.204935 0)
(-0.302131 0.199216 0)
(0.0347197 0.40605 0)
(0.821828 -0.121078 0)
(1.03236 -0.182429 0)
(-0.0245175 0.146989 0)
(0.0940539 0.136018 0)
(0.204569 0.0791393 0)
(0.515468 -0.0809849 0)
(0.266397 -0.247326 0)
(-0.157688 -0.183273 0)
(-0.219169 0.187856 0)
(0.166387 0.364369 0)
(0.980704 -0.160841 0)
(1.14393 -0.187414 0)
(0.154787 0.117938 0)
(0.339025 0.0894054 0)
(0.561833 0.0556493 0)
(0.992198 -0.103867 0)
(0.644788 -0.201132 0)
(0.0502857 -0.152872 0)
(-0.105613 0.171643 0)
(0.298637 0.302712 0)
(1.1319 -0.202576 0)
(1.24627 -0.190583 0)
(0.696848 0.108006 0)
(0.749229 0.108057 0)
(0.995758 0.0318622 0)
(1.47427 -0.10033 0)
(1.07415 -0.121889 0)
(0.32292 -0.108333 0)
(0.0340545 0.168596 0)
(0.442768 0.24747 0)
(1.27548 -0.24998 0)
(1.33925 -0.193007 0)
(1.55891 -0.148604 0)
(1.28488 0.0716413 0)
(1.48025 0.000585907 0)
(1.86332 -0.137321 0)
(1.4927 -0.0705503 0)
(0.647254 -0.059811 0)
(0.202902 0.155671 0)
(0.604926 0.181336 0)
(1.40999 -0.30374 0)
(1.42221 -0.195508 0)
(2.04473 -0.0205702 0)
(1.81228 0.177245 0)
(1.93686 0.0139806 0)
(2.14655 -0.133933 0)
(1.85008 -0.0350033 0)
(1.0193 0.0237315 0)
(0.434429 0.170242 0)
(0.829097 0.123292 0)
(1.55762 -0.35255 0)
(1.50111 -0.198444 0)
(1.9898 0.217099 0)
(2.18244 0.170502 0)
(2.2483 -0.00398619 0)
(2.30668 -0.127153 0)
(2.08912 -0.0153899 0)
(1.38088 0.113667 0)
(0.730966 0.164184 0)
(1.10972 0.0502989 0)
(1.70268 -0.407966 0)
(1.57251 -0.202035 0)
(1.93584 0.308941 0)
(2.29565 0.213753 0)
(2.37248 -0.00961549 0)
(2.36891 -0.109738 0)
(2.21109 -0.0115754 0)
(1.65883 0.172175 0)
(1.04672 0.206535 0)
(1.40049 0.00595164 0)
(1.82037 -0.445054 0)
(1.6273 -0.207152 0)
(1.87367 0.400927 0)
(2.27406 0.24314 0)
(2.39251 0.00271678 0)
(2.38593 -0.0872463 0)
(2.27405 -0.00511642 0)
(1.84527 0.215252 0)
(1.3544 0.222977 0)
(1.64755 -0.0523076 0)
(1.90575 -0.468859 0)
(1.668 -0.215114 0)
(1.84689 0.455069 0)
(2.22217 0.274406 0)
(2.37979 0.00867995 0)
(2.38525 -0.0661819 0)
(2.31271 -0.00453482 0)
(1.95857 0.218131 0)
(1.6176 0.249286 0)
(1.81812 -0.0832414 0)
(1.96234 -0.475715 0)
(1.69846 -0.221919 0)
(1.81953 0.507194 0)
(2.16702 0.313212 0)
(2.35965 0.0307371 0)
(2.38083 -0.0408957 0)
(2.33678 0.0126749 0)
(2.02705 0.230737 0)
(1.8196 0.252743 0)
(1.918 -0.101157 0)
(1.9968 -0.470191 0)
(1.72169 -0.227196 0)
(1.80006 0.546698 0)
(2.12937 0.340964 0)
(2.34205 0.0339011 0)
(2.37985 -0.0291345 0)
(2.34819 0.0167175 0)
(2.08344 0.233069 0)
(1.954 0.245895 0)
(1.97075 -0.103766 0)
(2.01739 -0.452946 0)
(1.73729 -0.236972 0)
(1.78094 0.579704 0)
(2.09852 0.376611 0)
(2.31689 0.0648925 0)
(2.37624 -0.0106138 0)
(2.34804 0.0229526 0)
(2.13486 0.228035 0)
(2.04149 0.23478 0)
(1.99954 -0.0983071 0)
(2.02852 -0.430416 0)
(1.75009 -0.237341 0)
(1.76198 0.606698 0)
(2.07115 0.410983 0)
(2.29865 0.0737556 0)
(2.38067 -0.00342448 0)
(2.34484 0.0318434 0)
(2.18091 0.213636 0)
(2.10415 0.220891 0)
(2.02045 -0.0977871 0)
(2.02906 -0.395311 0)
(1.76223 -0.239478 0)
(1.74343 0.629718 0)
(2.04558 0.442077 0)
(2.26971 0.114368 0)
(2.38349 0.0216184 0)
(2.34123 0.0443748 0)
(2.21741 0.191962 0)
(2.1572 0.210688 0)
(2.04481 -0.103922 0)
(2.01785 -0.373391 0)
(1.77754 -0.236097 0)
(1.73023 0.647745 0)
(2.0217 0.468511 0)
(2.25034 0.135026 0)
(2.39151 0.0534058 0)
(2.34428 0.045818 0)
(2.24465 0.168073 0)
(2.20054 0.198823 0)
(2.07206 -0.121631 0)
(2.00384 -0.369478 0)
(1.79247 -0.236216 0)
(1.71099 0.667786 0)
(1.99555 0.49355 0)
(2.2241 0.176628 0)
(2.37035 0.0977976 0)
(2.35405 0.0521999 0)
(2.26166 0.15183 0)
(2.23004 0.184681 0)
(2.09618 -0.135401 0)
(1.98963 -0.368825 0)
(1.80668 -0.238633 0)
(1.70479 0.679488 0)
(1.97674 0.508632 0)
(2.20819 0.206134 0)
(2.37109 0.124818 0)
(2.35872 0.0592746 0)
(2.27316 0.14012 0)
(2.24501 0.170418 0)
(2.10545 -0.150965 0)
(1.97506 -0.364978 0)
(1.81781 -0.241453 0)
(1.68071 0.696329 0)
(1.95229 0.527132 0)
(2.17884 0.253428 0)
(2.35692 0.157982 0)
(2.35267 0.0675993 0)
(2.28264 0.129257 0)
(2.24563 0.150357 0)
(2.09918 -0.162708 0)
(1.96361 -0.357563 0)
(1.82767 -0.244406 0)
(1.67433 0.705337 0)
(1.93511 0.536207 0)
(2.17028 0.285207 0)
(2.34853 0.179191 0)
(2.34858 0.0696604 0)
(2.28893 0.118696 0)
(2.23964 0.13015 0)
(2.08256 -0.169518 0)
(1.95788 -0.349431 0)
(1.83712 -0.244157 0)
(1.6785 0.71042 0)
(1.91309 0.558188 0)
(2.13987 0.333291 0)
(2.33328 0.203349 0)
(2.34242 0.0802057 0)
(2.29036 0.11056 0)
(2.22659 0.108535 0)
(2.06031 -0.174427 0)
(1.95037 -0.335012 0)
(1.84535 -0.241545 0)
(1.68183 0.70903 0)
(1.88712 0.581144 0)
(2.12354 0.371173 0)
(2.32159 0.220447 0)
(2.33807 0.0901353 0)
(2.28942 0.104975 0)
(2.20152 0.0860353 0)
(2.03603 -0.177645 0)
(1.94254 -0.320498 0)
(1.85329 -0.236305 0)
(1.71586 0.69111 0)
(1.87545 0.598666 0)
(2.10252 0.411411 0)
(2.30771 0.244923 0)
(2.33216 0.104835 0)
(2.28696 0.0992884 0)
(2.17593 0.0643842 0)
(2.01341 -0.179675 0)
(1.93637 -0.306747 0)
(1.86263 -0.229611 0)
(1.75855 0.666342 0)
(1.86796 0.625564 0)
(2.0873 0.449555 0)
(2.29372 0.269276 0)
(2.33182 0.119811 0)
(2.28587 0.0968821 0)
(2.14766 0.0438265 0)
(1.99209 -0.184994 0)
(1.93198 -0.293874 0)
(1.87126 -0.221682 0)
(1.7936 0.644249 0)
(1.86003 0.643595 0)
(2.06989 0.483627 0)
(2.27995 0.287315 0)
(2.33491 0.137576 0)
(2.28657 0.0995318 0)
(2.13281 0.0235985 0)
(1.98027 -0.188567 0)
(1.93034 -0.283604 0)
(1.87897 -0.214488 0)
(2.46902 0.0775986 0)
(1.73581 0.353875 0)
(1.12122 0.468759 0)
(1.22025 0.603878 0)
(1.24594 0.695266 0)
(1.24504 0.722974 0)
(1.23866 0.722688 0)
(1.23755 0.717498 0)
(1.24591 0.715066 0)
(1.31576 0.723009 0)
(2.68443 -0.001401 0)
(2.17612 0.366477 0)
(1.07049 0.730099 0)
(1.1157 0.716069 0)
(1.17424 0.715087 0)
(1.20794 0.720725 0)
(1.22297 0.71797 0)
(1.23235 0.718571 0)
(1.24693 0.721942 0)
(1.32015 0.734806 0)
(2.68237 -0.000615165 0)
(2.67827 0.00145939 0)
(1.70186 0.614674 0)
(1.18513 0.693461 0)
(1.19985 0.693064 0)
(1.2132 0.704185 0)
(1.22352 0.711805 0)
(1.23402 0.718488 0)
(1.25304 0.72466 0)
(1.33276 0.735909 0)
(2.68177 -0.000584958 0)
(2.6802 -0.000504636 0)
(2.62627 0.0897583 0)
(1.3729 0.652493 0)
(1.20158 0.702304 0)
(1.21244 0.706667 0)
(1.22304 0.712935 0)
(1.23772 0.719538 0)
(1.26196 0.728502 0)
(1.34568 0.741168 0)
(2.68136 -0.000365358 0)
(2.68038 -0.000374493 0)
(2.67875 -0.000306133 0)
(2.19842 0.424683 0)
(1.26742 0.700875 0)
(1.21761 0.710526 0)
(1.23025 0.713668 0)
(1.24812 0.720478 0)
(1.27587 0.730546 0)
(1.36016 0.74353 0)
(2.68136 -0.000298257 0)
(2.68031 -0.000308874 0)
(2.67927 -0.000282142 0)
(2.67925 0.0141689 0)
(1.5711 0.648211 0)
(1.23909 0.71746 0)
(1.24954 0.71912 0)
(1.26423 0.72819 0)
(1.29142 0.738078 0)
(1.37384 0.748282 0)
(2.6814 -0.000257124 0)
(2.68033 -0.000222603 0)
(2.67923 -0.000272364 0)
(2.67758 -0.00010505 0)
(2.51787 0.218133 0)
(1.37633 0.69159 0)
(1.26014 0.72606 0)
(1.27853 0.735082 0)
(1.30501 0.743279 0)
(1.38428 0.750942 0)
(2.68138 -0.000146374 0)
(2.68033 -0.000172321 0)
(2.67911 -0.000119178 0)
(2.67815 -0.000172711 0)
(2.67409 0.00525546 0)
(1.77263 0.619821 0)
(1.27413 0.738486 0)
(1.28692 0.738851 0)
(1.31662 0.745192 0)
(1.392 0.751487 0)
(2.68136 -0.000122177 0)
(2.68031 -0.000138237 0)
(2.67914 -8.7516e-05 0)
(2.67793 -0.00014578 0)
(2.67613 6.45421e-05 0)
(2.59828 0.149946 0)
(1.45394 0.701604 0)
(1.29964 0.736194 0)
(1.33061 0.74561 0)
(1.39852 0.752863 0)
(2.68136 -0.000131437 0)
(2.68029 -0.000103566 0)
(2.67914 -0.000124319 0)
(2.6778 -6.20109e-05 0)
(2.67675 -0.000102592 0)
(2.67214 0.00631319 0)
(1.88395 0.613781 0)
(1.31971 0.752075 0)
(1.33936 0.752795 0)
(1.40416 0.755113 0)
(2.68133 -9.76592e-05 0)
(2.68026 -8.64264e-05 0)
(2.6791 -9.37772e-05 0)
(2.67781 -4.38231e-05 0)
(2.67652 -9.56255e-05 0)
(2.67457 0.000174519 0)
(2.61722 0.154702 0)
(1.49844 0.718229 0)
(1.3544 0.748351 0)
(1.41377 0.753691 0)
(2.68129 -8.64333e-05 0)
(2.68023 -9.19416e-05 0)
(2.67907 -6.59429e-05 0)
(2.67783 -7.62622e-05 0)
(2.6764 -1.61068e-05 0)
(2.67525 -1.70671e-05 0)
(2.67166 0.00909818 0)
(1.83301 0.644965 0)
(1.37454 0.762988 0)
(1.42012 0.763623 0)
(2.68127 -9.67075e-05 0)
(2.68021 -8.8705e-05 0)
(2.67905 -7.11862e-05 0)
(2.6778 -6.30674e-05 0)
(2.6764 7.94359e-06 0)
(2.67504 -2.27192e-05 0)
(2.67279 0.000357767 0)
(2.56704 0.238543 0)
(1.52019 0.733634 0)
(1.43062 0.763759 0)
(2.68125 -9.47683e-05 0)
(2.68018 -6.57826e-05 0)
(2.67903 -6.24941e-05 0)
(2.67777 -2.53962e-05 0)
(2.67641 -6.66096e-06 0)
(2.67491 2.32648e-05 0)
(2.6735 0.000114046 0)
(2.68002 0.0183632 0)
(1.72271 0.685563 0)
(1.43763 0.777969 0)
(2.68122 -4.67377e-05 0)
(2.68016 -2.57573e-05 0)
(2.67901 -2.43298e-05 0)
(2.67775 1.58766e-05 0)
(2.6764 1.61804e-06 0)
(2.67487 8.44219e-05 0)
(2.67353 3.72175e-05 0)
(2.67058 0.00125067 0)
(2.38266 0.420252 0)
(1.53046 0.763701 0)
(2.68121 -1.55706e-05 0)
(2.68014 -7.88561e-06 0)
(2.67899 4.92385e-06 0)
(2.67773 2.79512e-05 0)
(2.67639 2.82905e-05 0)
(2.67489 0.00010071 0)
(2.67343 4.59702e-05 0)
(2.67106 0.000392911 0)
(2.69737 0.0671118 0)
(1.68289 0.70619 0)
(2.68119 -3.20866e-06 0)
(2.68013 -6.75534e-06 0)
(2.67898 2.12007e-05 0)
(2.67773 2.00761e-05 0)
(2.67638 5.26134e-05 0)
(2.67492 6.22279e-05 0)
(2.6733 0.000111918 0)
(2.67196 0.000151711 0)
(2.66765 0.0103316 0)
(1.87358 0.636741 0)
(2.68118 -1.21709e-05 0)
(2.68012 -1.85448e-05 0)
(2.67897 1.55406e-05 0)
(2.67773 2.47106e-06 0)
(2.67638 5.97873e-05 0)
(2.67494 4.3899e-05 0)
(2.6733 0.000137873 0)
(2.67185 9.25285e-05 0)
(2.66851 0.000985919 0)
(2.39153 0.405529 0)
(2.68116 -1.20212e-05 0)
(2.68011 -1.61743e-05 0)
(2.67897 1.34797e-05 0)
(2.67773 6.1423e-06 0)
(2.67638 5.89201e-05 0)
(2.67495 3.61529e-05 0)
(2.67333 0.000145334 0)
(2.67178 6.15821e-05 0)
(2.66913 0.000470109 0)
(2.69737 0.0873786 0)
(2.68116 -2.95121e-05 0)
(2.68011 -3.224e-05 0)
(2.67897 -1.32974e-05 0)
(2.67774 -1.50718e-05 0)
(2.6764 1.54745e-05 0)
(2.67495 1.80024e-05 0)
(2.67338 7.83856e-05 0)
(2.67166 7.51031e-05 0)
(2.67019 0.0002054 0)
(2.67964 0.00681194 0)
(2.77516 -8.71578e-08 0)
(2.76854 2.63142e-07 0)
(2.76132 -6.95082e-07 0)
(2.75348 1.14126e-06 0)
(2.74491 -2.36161e-06 0)
(2.73558 3.16503e-06 0)
(2.7254 -4.086e-06 0)
(2.71424 1.67895e-06 0)
(2.70197 2.02699e-05 0)
(2.69161 -0.000241126 0)
(2.77516 -2.47958e-07 0)
(2.76854 7.5055e-07 0)
(2.76132 -1.96062e-06 0)
(2.75348 3.26233e-06 0)
(2.74491 -6.56738e-06 0)
(2.73558 9.27752e-06 0)
(2.7254 -1.2503e-05 0)
(2.71422 8.92493e-06 0)
(2.702 6.33052e-05 0)
(2.69026 -0.000422338 0)
(2.77516 -4.04908e-07 0)
(2.76854 1.22947e-06 0)
(2.76132 -3.18854e-06 0)
(2.75348 5.3313e-06 0)
(2.74491 -1.06736e-05 0)
(2.73558 1.51966e-05 0)
(2.72541 -2.04432e-05 0)
(2.71419 1.58005e-05 0)
(2.70205 9.14933e-05 0)
(2.68945 -0.000395297 0)
(2.77516 -5.53722e-07 0)
(2.76854 1.68678e-06 0)
(2.76132 -4.32699e-06 0)
(2.75348 7.2869e-06 0)
(2.74491 -1.44472e-05 0)
(2.73558 2.08743e-05 0)
(2.72542 -2.88944e-05 0)
(2.71417 2.52333e-05 0)
(2.70212 9.82339e-05 0)
(2.68908 -0.000421673 0)
(2.77516 -6.91514e-07 0)
(2.76854 2.11509e-06 0)
(2.76132 -5.35581e-06 0)
(2.75348 9.09863e-06 0)
(2.74492 -1.78289e-05 0)
(2.73558 2.61994e-05 0)
(2.72542 -3.72688e-05 0)
(2.71417 3.22562e-05 0)
(2.70217 0.00011896 0)
(2.68891 -0.000369964 0)
(2.77516 -8.1631e-07 0)
(2.76854 2.50791e-06 0)
(2.76132 -6.25845e-06 0)
(2.75348 1.07404e-05 0)
(2.74492 -2.07597e-05 0)
(2.73558 3.11015e-05 0)
(2.72543 -4.54069e-05 0)
(2.71417 4.45793e-05 0)
(2.70218 0.000126071 0)
(2.68882 -0.000307845 0)
(2.77516 -9.26936e-07 0)
(2.76854 2.8608e-06 0)
(2.76132 -7.02848e-06 0)
(2.75348 1.21933e-05 0)
(2.74492 -2.32031e-05 0)
(2.73558 3.55235e-05 0)
(2.72543 -5.30473e-05 0)
(2.71418 5.91124e-05 0)
(2.70217 0.000109645 0)
(2.68881 -0.000247379 0)
(2.77516 -1.02289e-06 0)
(2.76854 3.17087e-06 0)
(2.76132 -7.66702e-06 0)
(2.75348 1.34495e-05 0)
(2.74492 -2.51629e-05 0)
(2.73558 3.93533e-05 0)
(2.72544 -5.96619e-05 0)
(2.71419 7.53241e-05 0)
(2.70217 7.9316e-05 0)
(2.68883 -0.000199578 0)
(2.77516 -1.10426e-06 0)
(2.76854 3.43682e-06 0)
(2.76133 -8.17922e-06 0)
(2.75348 1.45043e-05 0)
(2.74492 -2.66772e-05 0)
(2.73558 4.26206e-05 0)
(2.72544 -6.53328e-05 0)
(2.7142 9.28091e-05 0)
(2.70219 3.43891e-05 0)
(2.68882 -0.000140698 0)
(2.77516 -1.17156e-06 0)
(2.76854 3.65885e-06 0)
(2.76133 -8.57364e-06 0)
(2.75348 1.53515e-05 0)
(2.74492 -2.77215e-05 0)
(2.73558 4.51221e-05 0)
(2.72544 -6.90215e-05 0)
(2.71421 0.000108915 0)
(2.7022 1.05825e-08 0)
(2.68881 -0.000113897 0)
(2.77516 -1.22567e-06 0)
(2.76854 3.83855e-06 0)
(2.76133 -8.86261e-06 0)
(2.75348 1.60013e-05 0)
(2.74492 -2.83661e-05 0)
(2.73558 4.68538e-05 0)
(2.72544 -7.08305e-05 0)
(2.71422 0.000120988 0)
(2.7022 -2.0958e-05 0)
(2.68879 -0.000101759 0)
(2.77517 -1.26762e-06 0)
(2.76854 3.97835e-06 0)
(2.76133 -9.05795e-06 0)
(2.75348 1.64599e-05 0)
(2.74492 -2.86283e-05 0)
(2.73558 4.78115e-05 0)
(2.72544 -7.1146e-05 0)
(2.71423 0.000127693 0)
(2.7022 -3.21663e-05 0)
(2.68877 -0.000104843 0)
(2.77517 -1.29857e-06 0)
(2.76854 4.08146e-06 0)
(2.76133 -9.17295e-06 0)
(2.75348 1.6745e-05 0)
(2.74493 -2.85353e-05 0)
(2.73558 4.80534e-05 0)
(2.72544 -7.01153e-05 0)
(2.71423 0.00012992 0)
(2.7022 -3.92605e-05 0)
(2.68875 -0.000108857 0)
(2.77517 -1.3197e-06 0)
(2.76854 4.15105e-06 0)
(2.76133 -9.21681e-06 0)
(2.75348 1.688e-05 0)
(2.74493 -2.81769e-05 0)
(2.73558 4.77301e-05 0)
(2.72543 -6.77304e-05 0)
(2.71424 0.000126306 0)
(2.70219 -4.63247e-05 0)
(2.68872 -0.000112694 0)
(2.77517 -1.33217e-06 0)
(2.76854 4.19066e-06 0)
(2.76133 -9.19488e-06 0)
(2.75348 1.68825e-05 0)
(2.74493 -2.75974e-05 0)
(2.73558 4.682e-05 0)
(2.72543 -6.42694e-05 0)
(2.71424 0.000121393 0)
(2.70217 -4.99816e-05 0)
(2.68871 -0.000112731 0)
(2.77517 -1.33676e-06 0)
(2.76854 4.20455e-06 0)
(2.76133 -9.11905e-06 0)
(2.75348 1.67558e-05 0)
(2.74493 -2.68412e-05 0)
(2.73558 4.5445e-05 0)
(2.72543 -6.00985e-05 0)
(2.71425 0.00011373 0)
(2.70215 -4.96805e-05 0)
(2.6887 -0.000113568 0)
(2.77517 -1.33365e-06 0)
(2.76854 4.19413e-06 0)
(2.76133 -8.99754e-06 0)
(2.75347 1.65181e-05 0)
(2.74493 -2.59364e-05 0)
(2.73558 4.36718e-05 0)
(2.72543 -5.53246e-05 0)
(2.71425 0.00010303 0)
(2.70214 -4.59541e-05 0)
(2.68868 -0.000105583 0)
(2.77517 -1.32407e-06 0)
(2.76854 4.16109e-06 0)
(2.76133 -8.83745e-06 0)
(2.75347 1.61906e-05 0)
(2.74493 -2.49143e-05 0)
(2.73558 4.15939e-05 0)
(2.72542 -5.03251e-05 0)
(2.71424 9.03506e-05 0)
(2.70212 -3.7755e-05 0)
(2.68866 -0.000101987 0)
(2.77517 -1.30877e-06 0)
(2.76854 4.10927e-06 0)
(2.76133 -8.64062e-06 0)
(2.75347 1.57814e-05 0)
(2.74492 -2.37845e-05 0)
(2.73558 3.921e-05 0)
(2.72542 -4.49787e-05 0)
(2.71424 7.61262e-05 0)
(2.7021 -2.53891e-05 0)
(2.68865 -9.66702e-05 0)
(2.77517 -1.2888e-06 0)
(2.76854 4.04188e-06 0)
(2.76133 -8.41375e-06 0)
(2.75347 1.52997e-05 0)
(2.74492 -2.25702e-05 0)
(2.73558 3.66231e-05 0)
(2.72542 -3.97464e-05 0)
(2.71423 5.91787e-05 0)
(2.70209 -9.63643e-06 0)
(2.68863 -8.99325e-05 0)
(2.77517 1.28847e-06 0)
(2.76854 -4.04102e-06 0)
(2.76133 8.41358e-06 0)
(2.75347 -1.53028e-05 0)
(2.74492 2.25835e-05 0)
(2.73558 -3.66453e-05 0)
(2.72542 3.97725e-05 0)
(2.71423 -5.9164e-05 0)
(2.70209 9.57474e-06 0)
(2.68863 8.99144e-05 0)
(2.77517 1.30844e-06 0)
(2.76854 -4.10837e-06 0)
(2.76133 8.64005e-06 0)
(2.75347 -1.57834e-05 0)
(2.74492 2.37949e-05 0)
(2.73558 -3.92277e-05 0)
(2.72542 4.50037e-05 0)
(2.71424 -7.61276e-05 0)
(2.7021 2.53386e-05 0)
(2.68865 9.66341e-05 0)
(2.77517 1.32375e-06 0)
(2.76854 -4.16019e-06 0)
(2.76133 8.8366e-06 0)
(2.75347 -1.61917e-05 0)
(2.74493 2.49221e-05 0)
(2.73558 -4.16076e-05 0)
(2.72542 5.03434e-05 0)
(2.71424 -9.03637e-05 0)
(2.70212 3.7728e-05 0)
(2.68866 0.000101989 0)
(2.77517 1.33334e-06 0)
(2.76854 -4.19326e-06 0)
(2.76133 8.99652e-06 0)
(2.75347 -1.65186e-05 0)
(2.74493 2.59419e-05 0)
(2.73558 -4.36826e-05 0)
(2.72543 5.53449e-05 0)
(2.71425 -0.00010305 0)
(2.70214 4.59703e-05 0)
(2.68868 0.000105582 0)
(2.77517 1.33647e-06 0)
(2.76854 -4.20371e-06 0)
(2.76133 9.11789e-06 0)
(2.75348 -1.67555e-05 0)
(2.74493 2.68445e-05 0)
(2.73558 -4.54513e-05 0)
(2.72543 6.01141e-05 0)
(2.71425 -0.00011376 0)
(2.70215 4.97169e-05 0)
(2.6887 0.000113545 0)
(2.77517 1.33191e-06 0)
(2.76854 -4.18985e-06 0)
(2.76133 9.1936e-06 0)
(2.75348 -1.68813e-05 0)
(2.74493 2.75987e-05 0)
(2.73558 -4.6821e-05 0)
(2.72543 6.42801e-05 0)
(2.71424 -0.000121417 0)
(2.70217 5.01325e-05 0)
(2.68871 0.000112689 0)
(2.77517 1.31947e-06 0)
(2.76854 -4.15027e-06 0)
(2.76133 9.21543e-06 0)
(2.75348 -1.68781e-05 0)
(2.74493 2.81756e-05 0)
(2.73558 -4.77229e-05 0)
(2.72543 6.77333e-05 0)
(2.71424 -0.000126341 0)
(2.70219 4.65774e-05 0)
(2.68872 0.000112657 0)
(2.77517 1.29835e-06 0)
(2.76854 -4.08071e-06 0)
(2.76133 9.17157e-06 0)
(2.75348 -1.67429e-05 0)
(2.74493 2.85324e-05 0)
(2.73558 -4.80438e-05 0)
(2.72544 7.01127e-05 0)
(2.71423 -0.000129967 0)
(2.7022 3.95353e-05 0)
(2.68875 0.00010881 0)
(2.77517 1.26741e-06 0)
(2.76854 -3.97764e-06 0)
(2.76133 9.05665e-06 0)
(2.75348 -1.64582e-05 0)
(2.74492 2.86265e-05 0)
(2.73558 -4.78117e-05 0)
(2.72544 7.11413e-05 0)
(2.71423 -0.000127802 0)
(2.7022 3.23383e-05 0)
(2.68877 0.000104749 0)
(2.77516 1.22548e-06 0)
(2.76854 -3.83788e-06 0)
(2.76133 8.86149e-06 0)
(2.75348 -1.60006e-05 0)
(2.74492 2.83672e-05 0)
(2.73558 -4.68677e-05 0)
(2.72544 7.08443e-05 0)
(2.71422 -0.000121186 0)
(2.7022 2.1087e-05 0)
(2.68879 0.000101674 0)
(2.77516 1.17138e-06 0)
(2.76854 -3.65821e-06 0)
(2.76133 8.57258e-06 0)
(2.75348 -1.53513e-05 0)
(2.74492 2.77244e-05 0)
(2.73558 -4.51497e-05 0)
(2.72544 6.90758e-05 0)
(2.71421 -0.000109186 0)
(2.7022 -2.54244e-08 0)
(2.68881 0.000113887 0)
(2.77516 1.10408e-06 0)
(2.76854 -3.4362e-06 0)
(2.76133 8.17837e-06 0)
(2.75348 -1.45049e-05 0)
(2.74492 2.66833e-05 0)
(2.73558 -4.26533e-05 0)
(2.72544 6.54015e-05 0)
(2.7142 -9.30051e-05 0)
(2.70219 -3.4445e-05 0)
(2.68882 0.000140779 0)
(2.77516 1.02271e-06 0)
(2.76854 -3.17025e-06 0)
(2.76132 7.66611e-06 0)
(2.75348 -1.34497e-05 0)
(2.74492 2.51676e-05 0)
(2.73558 -3.93846e-05 0)
(2.72544 5.9758e-05 0)
(2.71419 -7.55616e-05 0)
(2.70217 -7.94213e-05 0)
(2.68883 0.000199666 0)
(2.77516 9.26744e-07 0)
(2.76854 -2.86017e-06 0)
(2.76132 7.02755e-06 0)
(2.75348 -1.21934e-05 0)
(2.74492 2.32084e-05 0)
(2.73558 -3.55474e-05 0)
(2.72543 5.31145e-05 0)
(2.71418 -5.92424e-05 0)
(2.70217 -0.000109669 0)
(2.68881 0.000247504 0)
(2.77516 8.1611e-07 0)
(2.76854 -2.50728e-06 0)
(2.76132 6.25755e-06 0)
(2.75348 -1.07406e-05 0)
(2.74492 2.07645e-05 0)
(2.73558 -3.11125e-05 0)
(2.72543 4.54305e-05 0)
(2.71417 -4.46727e-05 0)
(2.70218 -0.000126073 0)
(2.68882 0.000307801 0)
(2.77516 6.91303e-07 0)
(2.76854 -2.11445e-06 0)
(2.76132 5.35489e-06 0)
(2.75348 -9.0988e-06 0)
(2.74492 1.78327e-05 0)
(2.73558 -2.62009e-05 0)
(2.72542 3.7246e-05 0)
(2.71417 -3.22017e-05 0)
(2.70217 -0.000118973 0)
(2.68891 0.00037006 0)
(2.77516 5.53503e-07 0)
(2.76854 -1.68614e-06 0)
(2.76132 4.32615e-06 0)
(2.75348 -7.28759e-06 0)
(2.74491 1.44527e-05 0)
(2.73558 -2.0872e-05 0)
(2.72542 2.88263e-05 0)
(2.71417 -2.50925e-05 0)
(2.70212 -9.81065e-05 0)
(2.68908 0.000422116 0)
(2.77516 4.04681e-07 0)
(2.76854 -1.22884e-06 0)
(2.76132 3.18776e-06 0)
(2.75348 -5.33241e-06 0)
(2.74491 1.068e-05 0)
(2.73558 -1.51968e-05 0)
(2.72541 2.03475e-05 0)
(2.71419 -1.57413e-05 0)
(2.70205 -9.13568e-05 0)
(2.68945 0.000395563 0)
(2.77516 2.47726e-07 0)
(2.76854 -7.49917e-07 0)
(2.76132 1.95982e-06 0)
(2.75348 -3.26344e-06 0)
(2.74491 6.57329e-06 0)
(2.73558 -9.28684e-06 0)
(2.7254 1.24153e-05 0)
(2.71422 -7.00064e-06 0)
(2.702 -6.32102e-05 0)
(2.69027 0.000423498 0)
(2.77516 8.69215e-08 0)
(2.76854 -2.62509e-07 0)
(2.76132 6.94354e-07 0)
(2.75348 -1.14284e-06 0)
(2.74491 2.37286e-06 0)
(2.73558 -3.20538e-06 0)
(2.7254 4.36763e-06 0)
(2.71424 -3.30447e-06 0)
(2.70197 -2.17108e-05 0)
(2.69161 0.000241192 0)
(2.68116 2.94979e-05 0)
(2.68011 3.23526e-05 0)
(2.67897 1.32825e-05 0)
(2.67774 1.52902e-05 0)
(2.6764 -1.55158e-05 0)
(2.67495 -1.77571e-05 0)
(2.67338 -7.85298e-05 0)
(2.67166 -7.4902e-05 0)
(2.67019 -0.00020575 0)
(2.67972 -0.00678406 0)
(2.68116 1.19561e-05 0)
(2.68011 1.61969e-05 0)
(2.67897 -1.35012e-05 0)
(2.67773 -6.03985e-06 0)
(2.67638 -5.89088e-05 0)
(2.67494 -3.60613e-05 0)
(2.67333 -0.000145328 0)
(2.67178 -6.15855e-05 0)
(2.66913 -0.000469782 0)
(2.6979 -0.0870783 0)
(2.68118 1.21233e-05 0)
(2.68012 1.85606e-05 0)
(2.67897 -1.55623e-05 0)
(2.67773 -2.40848e-06 0)
(2.67638 -5.97126e-05 0)
(2.67494 -4.37443e-05 0)
(2.6733 -0.000137752 0)
(2.67185 -9.24956e-05 0)
(2.66851 -0.000983024 0)
(2.39267 -0.405108 0)
(2.68119 3.23683e-06 0)
(2.68013 6.81073e-06 0)
(2.67898 -2.11339e-05 0)
(2.67773 -1.99968e-05 0)
(2.67638 -5.25559e-05 0)
(2.67492 -6.20835e-05 0)
(2.6733 -0.000111809 0)
(2.67196 -0.000151264 0)
(2.66764 -0.0103089 0)
(1.87432 -0.636626 0)
(2.68121 1.55922e-05 0)
(2.68014 7.91148e-06 0)
(2.67899 -4.88096e-06 0)
(2.67773 -2.7922e-05 0)
(2.67639 -2.82135e-05 0)
(2.67489 -0.000100664 0)
(2.67342 -4.58313e-05 0)
(2.67106 -0.0003927 0)
(2.69746 -0.0667904 0)
(1.68312 -0.706207 0)
(2.68122 4.67187e-05 0)
(2.68016 2.57063e-05 0)
(2.67901 2.43033e-05 0)
(2.67775 -1.59021e-05 0)
(2.6764 -1.59459e-06 0)
(2.67487 -8.44284e-05 0)
(2.67353 -3.72205e-05 0)
(2.67058 -0.00124615 0)
(2.38409 -0.419456 0)
(1.53067 -0.763635 0)
(2.68125 9.4669e-05 0)
(2.68018 6.5678e-05 0)
(2.67903 6.24059e-05 0)
(2.67777 2.53076e-05 0)
(2.67641 6.65287e-06 0)
(2.67491 -2.34073e-05 0)
(2.6735 -0.000113856 0)
(2.67995 -0.0183207 0)
(1.72382 -0.685434 0)
(1.43776 -0.777871 0)
(2.68127 9.66527e-05 0)
(2.68021 8.86185e-05 0)
(2.67905 7.10765e-05 0)
(2.6778 6.2918e-05 0)
(2.6764 -8.1618e-06 0)
(2.67504 2.24964e-05 0)
(2.67279 -0.000357925 0)
(2.56744 -0.238069 0)
(1.52071 -0.73369 0)
(1.43087 -0.76373 0)
(2.68129 8.62278e-05 0)
(2.68023 9.17094e-05 0)
(2.67907 6.56992e-05 0)
(2.67783 7.60245e-05 0)
(2.6764 1.577e-05 0)
(2.67525 1.69519e-05 0)
(2.67164 -0.0090849 0)
(1.83396 -0.644775 0)
(1.37476 -0.763034 0)
(1.42088 -0.763345 0)
(2.68133 9.74392e-05 0)
(2.68026 8.62034e-05 0)
(2.6791 9.35265e-05 0)
(2.67781 4.35226e-05 0)
(2.67652 9.52985e-05 0)
(2.67457 -0.000174865 0)
(2.61744 -0.154318 0)
(1.4988 -0.718221 0)
(1.35453 -0.748288 0)
(1.41479 -0.753277 0)
(2.68136 0.000131274 0)
(2.68029 0.000103335 0)
(2.67914 0.000124115 0)
(2.6778 6.16399e-05 0)
(2.67675 0.000102287 0)
(2.67214 -0.00630666 0)
(1.88484 -0.613543 0)
(1.31991 -0.752072 0)
(1.33939 -0.75273 0)
(1.40519 -0.75437 0)
(2.68137 0.000122221 0)
(2.68031 0.000138227 0)
(2.67914 8.75078e-05 0)
(2.67793 0.00014571 0)
(2.67613 -6.47345e-05 0)
(2.59845 -0.149741 0)
(1.45418 -0.701648 0)
(1.29981 -0.736217 0)
(1.33061 -0.745567 0)
(1.3994 -0.752197 0)
(2.68138 0.000146495 0)
(2.68033 0.00017246 0)
(2.67911 0.000119214 0)
(2.67815 0.000172746 0)
(2.67409 -0.00525372 0)
(1.77318 -0.619737 0)
(1.2743 -0.73856 0)
(1.28711 -0.738909 0)
(1.31663 -0.745192 0)
(1.39288 -0.750605 0)
(2.6814 0.000257292 0)
(2.68033 0.000222775 0)
(2.67923 0.000272619 0)
(2.67758 0.000105233 0)
(2.51786 -0.218077 0)
(1.37652 -0.69164 0)
(1.26028 -0.726126 0)
(1.27871 -0.735106 0)
(1.30509 -0.743262 0)
(1.38508 -0.750308 0)
(2.68136 0.000298242 0)
(2.68031 0.000308893 0)
(2.67927 0.000282169 0)
(2.67924 -0.0141782 0)
(1.57117 -0.648215 0)
(1.23921 -0.717523 0)
(1.24968 -0.719185 0)
(1.26439 -0.728248 0)
(1.29154 -0.738083 0)
(1.37472 -0.747655 0)
(2.68136 0.000365479 0)
(2.68038 0.000374619 0)
(2.67875 0.000306244 0)
(2.19823 -0.424757 0)
(1.26749 -0.700909 0)
(1.21771 -0.710603 0)
(1.23037 -0.713746 0)
(1.24827 -0.720535 0)
(1.27603 -0.730557 0)
(1.36088 -0.743179 0)
(2.68177 0.000585209 0)
(2.6802 0.000504863 0)
(2.62612 -0.0898902 0)
(1.37292 -0.652559 0)
(1.20167 -0.702334 0)
(1.21254 -0.706715 0)
(1.22314 -0.712999 0)
(1.23785 -0.719605 0)
(1.26211 -0.728537 0)
(1.34635 -0.740911 0)
(2.68237 0.000615114 0)
(2.67826 -0.00147111 0)
(1.70147 -0.614782 0)
(1.18518 -0.693503 0)
(1.19993 -0.693095 0)
(1.21327 -0.70421 0)
(1.22359 -0.711852 0)
(1.23411 -0.718528 0)
(1.25317 -0.72468 0)
(1.3334 -0.735674 0)
(2.68442 0.00139798 0)
(2.1753 -0.366931 0)
(1.07044 -0.730178 0)
(1.11575 -0.71609 0)
(1.17429 -0.715105 0)
(1.20798 -0.720732 0)
(1.22303 -0.717956 0)
(1.2324 -0.718584 0)
(1.24703 -0.721969 0)
(1.3209 -0.73471 0)
(2.46902 -0.0775854 0)
(1.73491 -0.353828 0)
(1.12118 -0.468805 0)
(1.22027 -0.603897 0)
(1.24595 -0.695279 0)
(1.24503 -0.722972 0)
(1.23865 -0.722679 0)
(1.23757 -0.717497 0)
(1.24601 -0.715059 0)
(1.31646 -0.723223 0)
(1.79233 -0.645369 0)
(1.86275 -0.638335 0)
(2.05205 -0.496903 0)
(2.22224 -0.267156 0)
(2.39483 -0.246041 0)
(2.31411 -0.0413966 0)
(2.07444 0.201843 0)
(1.77875 0.187638 0)
(1.87599 0.202251 0)
(1.93187 0.164245 0)
(1.75606 -0.66704 0)
(1.87364 -0.617057 0)
(2.06709 -0.471825 0)
(2.23352 -0.23846 0)
(2.39856 -0.222852 0)
(2.3316 -0.0305977 0)
(2.08666 0.196783 0)
(1.77167 0.182377 0)
(1.87033 0.204582 0)
(1.92883 0.152308 0)
(1.71315 -0.6911 0)
(1.87953 -0.587791 0)
(2.08598 -0.438526 0)
(2.24138 -0.215645 0)
(2.39577 -0.206747 0)
(2.34447 -0.0288226 0)
(2.09615 0.188278 0)
(1.76131 0.179779 0)
(1.85953 0.203916 0)
(1.92673 0.141887 0)
(1.67857 -0.708877 0)
(1.89336 -0.565347 0)
(2.10751 -0.407433 0)
(2.25556 -0.185412 0)
(2.40031 -0.183729 0)
(2.35937 -0.0205309 0)
(2.10477 0.179458 0)
(1.75341 0.177918 0)
(1.84702 0.201696 0)
(1.92526 0.133653 0)
(1.67444 -0.710404 0)
(1.92226 -0.537496 0)
(2.13158 -0.374264 0)
(2.26064 -0.168451 0)
(2.39423 -0.173019 0)
(2.37226 -0.0197606 0)
(2.11691 0.169117 0)
(1.75311 0.177671 0)
(1.8404 0.194998 0)
(1.92426 0.125742 0)
(1.66776 -0.707915 0)
(1.94727 -0.508045 0)
(2.15446 -0.338896 0)
(2.27197 -0.141138 0)
(2.39489 -0.157163 0)
(2.3868 -0.0185358 0)
(2.13763 0.156785 0)
(1.76061 0.171777 0)
(1.83771 0.186292 0)
(1.92458 0.11906 0)
(1.67527 -0.700021 0)
(1.96616 -0.490839 0)
(2.1687 -0.309405 0)
(2.27127 -0.132014 0)
(2.38738 -0.149738 0)
(2.39756 -0.0194617 0)
(2.15567 0.147488 0)
(1.769 0.165265 0)