/*--------------------------------*- C++ -*----------------------------------*\
  =========                 |
  \\      /  F ield         | OpenFOAM: The Open Source CFD Toolbox
   \\    /   O peration     | Website:  https://openfoam.org
    \\  /    A nd           | Version:  8
     \\/     M anipulation  |
\*---------------------------------------------------------------------------*/
FoamFile
{
    version     2.0;
    format      ascii;
    class       volScalarField;
    location    "0.6";
    object      p;
}
// * * * * * * * * * * * * * * * * * * * * * * * * * * * * * * * * * * * * * //

dimensions      [1 -1 -2 0 0 0 0];

internalField   nonuniform List<scalar> 
2600
(
0.505076
0.440238
0.403415
0.43664
0.593313
0.928202
1.024
1.02446
1.01233
1.0056
0.507994
0.432873
0.399336
0.438511
0.599528
0.924749
1.02804
1.02691
1.01374
1.00593
0.510462
0.429241
0.396707
0.440721
0.605713
0.926525
1.03569
1.03062
1.01547
1.00621
0.512754
0.428206
0.396283
0.442504
0.611367
0.930119
1.04277
1.03416
1.01782
1.00669
0.513968
0.426559
0.395617
0.445464
0.617064
0.932939
1.04434
1.0375
1.02038
1.00768
0.515419
0.42469
0.394482
0.444416
0.615592
0.936575
1.04921
1.03954
1.0219
1.00844
0.515252
0.425132
0.394648
0.445964
0.618962
0.940074
1.05069
1.04113
1.02292
1.00852
0.514671
0.428174
0.39454
0.447581
0.622948
0.942492
1.05101
1.04087
1.02273
1.00863
0.514527
0.429178
0.395044
0.448844
0.625735
0.945633
1.05236
1.0406
1.0228
1.00809
0.514478
0.430446
0.397003
0.451229
0.628515
0.944245
1.04915
1.03847
1.02234
1.00779
0.514469
0.430782
0.398342
0.451386
0.628411
0.944241
1.04916
1.03847
1.02234
1.00779
0.514548
0.429462
0.395891
0.449741
0.625594
0.945624
1.05237
1.0406
1.0228
1.00809
0.514661
0.428163
0.394533
0.447229
0.622848
0.942488
1.05101
1.04087
1.02273
1.00863
0.515234
0.424972
0.394247
0.445564
0.619022
0.940057
1.05069
1.04113
1.02292
1.00852
0.51543
0.42445
0.393948
0.443866
0.615588
0.936587
1.04922
1.03954
1.0219
1.00844
0.514016
0.426448
0.395199
0.44416
0.616927
0.932985
1.04436
1.0375
1.02038
1.00768
0.512796
0.428329
0.396547
0.443391
0.611592
0.930191
1.04277
1.03416
1.01782
1.00669
0.510459
0.429435
0.397207
0.442
0.606108
0.926546
1.03568
1.03062
1.01547
1.00621
0.507956
0.432904
0.399571
0.438684
0.599357
0.924676
1.02803
1.02691
1.01374
1.00593
0.505027
0.440185
0.403393
0.436086
0.592943
0.9281
1.024
1.02446
1.01233
1.0056
0.589692
0.444856
0.409594
0.433927
0.580436
0.927008
1.01942
1.02122
1.01217
1.00653
0.679597
0.463642
0.417216
0.434941
0.565133
0.918713
1.01415
1.01776
1.01278
1.00766
0.770094
0.48849
0.422793
0.438091
0.55126
0.907173
1.00967
1.01542
1.01173
1.00695
0.84204
0.525133
0.432035
0.440533
0.538547
0.894823
1.00682
1.01349
1.00939
1.00511
0.904262
0.570704
0.448415
0.442694
0.527587
0.882288
1.00504
1.01179
1.00689
1.00293
0.956033
0.617633
0.469306
0.444283
0.516969
0.867042
1.00283
1.01003
1.00502
1.0016
1.00123
0.665224
0.493755
0.447021
0.513926
0.850516
0.999594
1.0085
1.00409
1.00109
1.03935
0.710316
0.52249
0.452426
0.512
0.834157
0.995678
1.00665
1.00311
1.00062
1.07219
0.753818
0.55246
0.45975
0.512605
0.818325
0.99119
1.00396
1.00137
0.99996
1.10096
0.793116
0.583428
0.470469
0.515773
0.801988
0.985676
1.00035
0.998957
0.99924
1.12576
0.830995
0.613257
0.482395
0.52206
0.785291
0.979367
0.996365
0.996692
0.998632
1.14771
0.865091
0.642045
0.499875
0.530617
0.767557
0.972269
0.992766
0.99481
0.99799
1.16723
0.896399
0.670015
0.524638
0.537596
0.749488
0.964996
0.989765
0.992947
0.997012
1.18448
0.924473
0.698289
0.550063
0.545137
0.731284
0.956872
0.986625
0.990756
0.99568
1.20017
0.949336
0.727245
0.573957
0.55316
0.714579
0.947592
0.982776
0.988377
0.994426
1.2143
0.972354
0.755072
0.597956
0.564839
0.70561
0.937168
0.978359
0.986596
0.993869
1.22727
0.993228
0.782564
0.62129
0.575887
0.697885
0.925798
0.973997
0.985497
0.993786
1.2392
1.01271
0.808602
0.644484
0.587567
0.693772
0.916149
0.970287
0.984739
0.993713
1.24989
1.03076
0.833011
0.666928
0.599064
0.69249
0.907561
0.966894
0.983684
0.993335
1.25976
1.04771
0.856252
0.689062
0.609474
0.692097
0.898354
0.963492
0.981752
0.992269
2.40215
2.29258
2.21899
2.14471
2.0718
1.99941
1.92119
1.83391
1.70796
1.57016
2.24854
2.14577
2.09869
2.04317
1.98794
1.92681
1.85592
1.7681
1.64225
1.47024
2.20676
2.12861
2.08645
2.03303
1.9811
1.92194
1.85201
1.7626
1.63724
1.46484
2.14429
2.08286
2.0467
1.99833
1.95103
1.89325
1.8244
1.73473
1.61389
1.44021
2.08794
2.03928
2.01024
1.96552
1.92073
1.86417
1.79718
1.70895
1.59389
1.42206
2.03285
1.99308
1.96833
1.92814
1.88792
1.8344
1.77046
1.68476
1.57628
1.40786
1.98341
1.95131
1.93011
1.89386
1.85699
1.80585
1.74498
1.66246
1.56034
1.3988
1.93818
1.91181
1.89285
1.86009
1.82617
1.77778
1.72036
1.6417
1.54588
1.39421
1.89753
1.87565
1.8587
1.82916
1.7977
1.75186
1.69766
1.62301
1.53304
1.39232
1.86094
1.84237
1.82694
1.8001
1.77071
1.7275
1.67651
1.6061
1.52168
1.39186
1.82824
1.81217
1.79803
1.77348
1.74587
1.70517
1.65713
1.59094
1.5117
1.39232
1.79901
1.78484
1.77168
1.74895
1.72281
1.68463
1.63938
1.57736
1.50294
1.39334
1.77284
1.7605
1.74827
1.72697
1.70194
1.66615
1.62339
1.5653
1.49536
1.39472
1.74879
1.73827
1.7271
1.70708
1.68298
1.6495
1.60906
1.5546
1.48891
1.39636
1.72667
1.71722
1.7071
1.68862
1.66583
1.63459
1.59632
1.54513
1.48342
1.39818
1.71119
1.70067
1.6906
1.67303
1.65134
1.62175
1.58528
1.53695
1.47895
1.40013
1.70341
1.68964
1.67834
1.6607
1.63938
1.61064
1.57561
1.52974
1.47498
1.40191
1.69988
1.68312
1.67021
1.65132
1.62958
1.6014
1.56756
1.52376
1.47186
1.40383
1.6973
1.67835
1.66367
1.64376
1.62165
1.59389
1.56094
1.51875
1.4691
1.40538
1.69449
1.67371
1.65754
1.63703
1.61462
1.5873
1.55523
1.51458
1.46712
1.40725
1.02289
1.09267
1.11959
1.11946
1.1135
1.10564
1.09632
1.08993
1.3325
1.87039
1.02289
1.09267
1.11959
1.11946
1.1135
1.10565
1.09635
1.08959
1.33026
1.86201
1.02289
1.09267
1.11959
1.11946
1.1135
1.10565
1.09639
1.0889
1.32728
1.84972
1.02289
1.09267
1.11959
1.11946
1.1135
1.10565
1.09644
1.08791
1.3232
1.8352
1.02289
1.09267
1.1196
1.11946
1.1135
1.10566
1.09648
1.08677
1.31805
1.82019
1.02289
1.09267
1.1196
1.11946
1.1135
1.10567
1.09654
1.08557
1.3116
1.80432
1.02289
1.09267
1.1196
1.11945
1.1135
1.10567
1.09657
1.0847
1.3039
1.78828
1.02289
1.09267
1.1196
1.11945
1.1135
1.10566
1.09661
1.08402
1.29488
1.77178
1.02289
1.09267
1.11961
1.11945
1.11351
1.10567
1.09665
1.08391
1.28463
1.75519
1.02289
1.09267
1.11961
1.11944
1.11351
1.10566
1.09667
1.08396
1.2734
1.73835
1.02289
1.09267
1.11961
1.11943
1.11352
1.10565
1.09669
1.08404
1.26149
1.72145
1.02289
1.09267
1.11962
1.11943
1.11353
1.10564
1.09671
1.08411
1.24893
1.70435
1.02289
1.09267
1.11962
1.11942
1.11354
1.10563
1.09672
1.08418
1.23585
1.68698
1.02289
1.09266
1.11963
1.11941
1.11355
1.10561
1.09673
1.08424
1.22245
1.66953
1.02289
1.09266
1.11963
1.1194
1.11357
1.10559
1.09675
1.08428
1.20872
1.65193
1.02289
1.09266
1.11964
1.1194
1.11358
1.10556
1.09678
1.08429
1.1943
1.63318
1.02289
1.09266
1.11964
1.11939
1.1136
1.10552
1.09684
1.08428
1.17931
1.61304
1.02289
1.09266
1.11964
1.11938
1.11363
1.10547
1.0969
1.08429
1.16427
1.59165
1.02289
1.09266
1.11965
1.11937
1.11365
1.10541
1.09699
1.08432
1.14971
1.56918
1.02289
1.09266
1.11965
1.11936
1.11368
1.10533
1.09712
1.08429
1.13599
1.546
1.02289
1.09266
1.11965
1.11936
1.11368
1.10533
1.09712
1.08429
1.13599
1.546
1.02289
1.09266
1.11965
1.11937
1.11365
1.10541
1.09699
1.08432
1.14971
1.56918
1.02289
1.09266
1.11964
1.11938
1.11363
1.10547
1.0969
1.08429
1.16427
1.59165
1.02289
1.09266
1.11964
1.11939
1.1136
1.10552
1.09684
1.08428
1.17931
1.61304
1.02289
1.09266
1.11964
1.1194
1.11358
1.10556
1.09678
1.08429
1.1943
1.63318
1.02289
1.09266
1.11963
1.1194
1.11357
1.10559
1.09675
1.08428
1.20872
1.65193
1.02289
1.09266
1.11963
1.11941
1.11355
1.10561
1.09673
1.08424
1.22245
1.66953
1.02289
1.09267
1.11962
1.11942
1.11354
1.10563
1.09672
1.08418
1.23585
1.68698
1.02289
1.09267
1.11962
1.11943
1.11353
1.10564
1.09671
1.08411
1.24893
1.70435
1.02289
1.09267
1.11961
1.11943
1.11352
1.10565
1.09669
1.08404
1.26149
1.72145
1.02289
1.09267
1.11961
1.11944
1.11351
1.10566
1.09667
1.08396
1.2734
1.73835
1.02289
1.09267
1.11961
1.11945
1.11351
1.10567
1.09665
1.08391
1.28463
1.75519
1.02289
1.09267
1.1196
1.11945
1.1135
1.10566
1.09661
1.08402
1.29488
1.77178
1.02289
1.09267
1.1196
1.11945
1.1135
1.10567
1.09657
1.0847
1.3039
1.78828
1.02289
1.09267
1.1196
1.11946
1.1135
1.10567
1.09654
1.08557
1.3116
1.80432
1.02289
1.09267
1.1196
1.11946
1.1135
1.10566
1.09648
1.08677
1.31805
1.82019
1.02289
1.09267
1.11959
1.11946
1.1135
1.10565
1.09644
1.08791
1.3232
1.8352
1.02289
1.09267
1.11959
1.11946
1.1135
1.10565
1.09639
1.0889
1.32728
1.84972
1.02289
1.09267
1.11959
1.11946
1.1135
1.10565
1.09635
1.08959
1.33026
1.86201
1.02289
1.09267
1.11959
1.11946
1.1135
1.10564
1.09632
1.08993
1.3325
1.87039
1.69449
1.67371
1.65754
1.63703
1.61462
1.5873
1.55523
1.51458
1.46712
1.40725
1.6973
1.67835
1.66367
1.64376
1.62165
1.59389
1.56094
1.51875
1.4691
1.40538
1.69988
1.68312
1.67021
1.65132
1.62958
1.6014
1.56756
1.52376
1.47186
1.40383
1.70341
1.68964
1.67834
1.6607
1.63938
1.61064
1.57561
1.52974
1.47498
1.40191
1.71119
1.70067
1.6906
1.67303
1.65134
1.62175
1.58528
1.53695
1.47895
1.40013
1.72667
1.71722
1.7071
1.68862
1.66583
1.63459
1.59632
1.54513
1.48342
1.39818
1.74879
1.73827
1.7271
1.70708
1.68298
1.6495
1.60906
1.5546
1.48891
1.39636
1.77284
1.7605
1.74827
1.72697
1.70194
1.66615
1.62339
1.5653
1.49536
1.39472
1.79901
1.78484
1.77168
1.74895
1.72281
1.68463
1.63938
1.57736
1.50294
1.39334
1.82824
1.81217
1.79803
1.77348
1.74587
1.70517
1.65713
1.59094
1.5117
1.39232
1.86094
1.84237
1.82694
1.8001
1.77071
1.7275
1.67651
1.6061
1.52168
1.39186
1.89753
1.87565
1.8587
1.82916
1.7977
1.75186
1.69766
1.62301
1.53304
1.39232
1.93818
1.91181
1.89285
1.86009
1.82617
1.77778
1.72036
1.6417
1.54588
1.39421
1.98341
1.95131
1.93011
1.89386
1.85699
1.80585
1.74498
1.66246
1.56034
1.3988
2.03285
1.99308
1.96833
1.92814
1.88792
1.8344
1.77046
1.68476
1.57628
1.40786
2.08794
2.03928
2.01024
1.96552
1.92073
1.86417
1.79718
1.70895
1.59389
1.42206
2.14429
2.08286
2.0467
1.99833
1.95103
1.89325
1.8244
1.73473
1.61389
1.44021
2.20676
2.12861
2.08645
2.03303
1.9811
1.92194
1.85201
1.7626
1.63724
1.46484
2.24854
2.14577
2.09869
2.04317
1.98794
1.92681
1.85592
1.7681
1.64225
1.47024
2.40215
2.29258
2.21899
2.14471
2.0718
1.99941
1.92119
1.83391
1.70796
1.57016
1.25976
1.04771
0.856252
0.689062
0.609474
0.692097
0.898354
0.963492
0.981752
0.992269
1.24989
1.03076
0.833011
0.666928
0.599064
0.69249
0.907561
0.966894
0.983684
0.993335
1.2392
1.01271
0.808602
0.644484
0.587567
0.693772
0.916149
0.970287
0.984739
0.993713
1.22727
0.993228
0.782564
0.62129
0.575887
0.697885
0.925798
0.973997
0.985497
0.993786
1.2143
0.972354
0.755072
0.597956
0.564839
0.70561
0.937168
0.978359
0.986596
0.993869
1.20017
0.949336
0.727245
0.573957
0.55316
0.714579
0.947592
0.982776
0.988377
0.994426
1.18448
0.924473
0.698289
0.550063
0.545137
0.731284
0.956872
0.986625
0.990756
0.99568
1.16723
0.896399
0.670015
0.524638
0.537596
0.749488
0.964996
0.989765
0.992947
0.997012
1.14771
0.865091
0.642045
0.499875
0.530617
0.767557
0.972269
0.992766
0.99481
0.99799
1.12576
0.830995
0.613257
0.482395
0.52206
0.785291
0.979367
0.996365
0.996692
0.998632
1.10096
0.793116
0.583428
0.470469
0.515773
0.801988
0.985676
1.00035
0.998957
0.99924
1.07219
0.753818
0.552459
0.459749
0.512605
0.818325
0.99119
1.00396
1.00137
0.99996
1.03935
0.710316
0.52249
0.452426
0.512001
0.834157
0.995678
1.00665
1.00311
1.00062
1.00123
0.665225
0.493754
0.447021
0.513928
0.850517
0.999594
1.0085
1.00409
1.00109
0.956034
0.617634
0.469306
0.444286
0.516976
0.867043
1.00283
1.01003
1.00502
1.0016
0.904264
0.570702
0.448416
0.442698
0.527587
0.882283
1.00504
1.01179
1.00689
1.00293
0.842041
0.525124
0.43204
0.440514
0.538505
0.894802
1.00682
1.01349
1.00939
1.00511
0.77009
0.488474
0.422806
0.438007
0.55116
0.907138
1.00967
1.01542
1.01173
1.00695
0.679586
0.463638
0.417268
0.434878
0.565051
0.918671
1.01415
1.01776
1.01278
1.00766
0.589696
0.444901
0.409699
0.434226
0.580549
0.927007
1.01942
1.02121
1.01217
1.00653
1.52951
1.69514
1.59353
1.41801
1.25774
1.1169
1.00061
0.922258
0.863337
0.872204
1.50323
1.64033
1.5691
1.41658
1.25806
1.11501
0.995719
0.916605
0.871976
0.878598
1.46022
1.57428
1.54395
1.41223
1.257
1.11119
0.987429
0.912075
0.866112
0.882357
1.42102
1.48318
1.49617
1.40496
1.25364
1.10483
0.977433
0.907729
0.870658
0.891534
1.39374
1.39953
1.43742
1.38313
1.24525
1.09596
0.969041
0.909617
0.883155
0.908824
1.38585
1.33873
1.36151
1.34441
1.23253
1.08347
0.963938
0.918483
0.905746
0.933037
1.38063
1.30151
1.28379
1.28937
1.20888
1.0678
0.964188
0.935474
0.937287
0.960891
1.37706
1.2853
1.21755
1.20969
1.16909
1.0546
0.969834
0.956345
0.969226
0.987331
1.37458
1.27446
1.17351
1.12701
1.11344
1.033
0.974416
0.978868
1.00063
1.01138
1.37068
1.26489
1.15178
1.0597
1.03915
0.998097
0.974239
1.00397
1.03296
1.03106
1.36538
1.25388
1.1325
1.01969
0.961338
0.946059
0.960779
1.00929
1.04621
1.03719
1.35906
1.24169
1.11567
0.99043
0.89995
0.880535
0.937632
1.00162
1.04442
1.03648
1.35191
1.226
1.0982
0.965637
0.859095
0.820882
0.903347
0.990514
1.04234
1.03143
1.34453
1.2101
1.07581
0.939145
0.826209
0.780455
0.864055
0.968341
1.02462
1.01521
1.33645
1.19283
1.05113
0.909865
0.795442
0.754427
0.831436
0.939328
0.995463
0.995074
1.32729
1.17358
1.02438
0.876484
0.76266
0.736358
0.817411
0.924902
0.976358
0.985223
1.31617
1.15165
0.995168
0.840015
0.728506
0.722796
0.819167
0.929124
0.97183
0.983634
1.30366
1.12724
0.964421
0.800604
0.695752
0.712027
0.835196
0.938283
0.972179
0.984435
1.28929
1.10073
0.928829
0.761332
0.657554
0.706311
0.857986
0.948555
0.974447
0.986672
1.27289
1.07139
0.888483
0.722053
0.626431
0.696031
0.882231
0.957483
0.978217
0.989566
1.27289
1.07139
0.888483
0.722053
0.626431
0.696031
0.882231
0.957483
0.978217
0.989566
1.28929
1.10073
0.928829
0.761332
0.657554
0.706311
0.857986
0.948555
0.974447
0.986672
1.30366
1.12724
0.964421
0.800604
0.695752
0.712027
0.835196
0.938283
0.972179
0.984435
1.31617
1.15165
0.995168
0.840015
0.728506
0.722796
0.819167
0.929124
0.97183
0.983634
1.32729
1.17358
1.02438
0.876484
0.76266
0.736358
0.817411
0.924902
0.976358
0.985223
1.33645
1.19283
1.05113
0.909865
0.795442
0.754427
0.831436
0.939328
0.995463
0.995074
1.34453
1.2101
1.07581
0.939145
0.826209
0.780455
0.864055
0.968341
1.02462
1.01521
1.35191
1.226
1.0982
0.965637
0.859095
0.820882
0.903347
0.990514
1.04234
1.03143
1.35906
1.24169
1.11567
0.99043
0.89995
0.880535
0.937632
1.00162
1.04442
1.03648
1.36538
1.25388
1.1325
1.01969
0.961338
0.946059
0.960779
1.00929
1.04621
1.03719
1.37068
1.26489
1.15178
1.0597
1.03915
0.998097
0.974239
1.00397
1.03296
1.03106
1.37458
1.27446
1.17351
1.12701
1.11344
1.033
0.974416
0.978868
1.00063
1.01138
1.37706
1.2853
1.21755
1.20969
1.16909
1.0546
0.969834
0.956345
0.969226
0.987331
1.38063
1.30151
1.28379
1.28937
1.20888
1.0678
0.964188
0.935474
0.937287
0.960891
1.38585
1.33873
1.36151
1.34441
1.23253
1.08347
0.963938
0.918483
0.905746
0.933037
1.39374
1.39953
1.43742
1.38313
1.24525
1.09596
0.969041
0.909617
0.883155
0.908824
1.42102
1.48318
1.49617
1.40496
1.25364
1.10483
0.977433
0.907729
0.870658
0.891534
1.46022
1.57428
1.54395
1.41223
1.257
1.11119
0.987429
0.912075
0.866112
0.882357
1.50323
1.64033
1.5691
1.41658
1.25806
1.11501
0.995719
0.916605
0.871976
0.878598
1.52951
1.69514
1.59353
1.41801
1.25774
1.1169
1.00061
0.922258
0.863337
0.872204
1.69016
1.66687
1.64964
1.62895
1.60651
1.57992
1.54913
1.51048
1.46513
1.40947
1.6824
1.65724
1.63935
1.61866
1.59626
1.57063
1.54168
1.50625
1.46419
1.41361
1.67063
1.6455
1.6282
1.60869
1.58705
1.5627
1.53545
1.50323
1.4643
1.41816
1.65403
1.63209
1.61529
1.59768
1.57719
1.55374
1.52807
1.49925
1.46388
1.42194
1.62732
1.61392
1.59849
1.58439
1.56781
1.54635
1.52169
1.49486
1.46256
1.42496
1.59356
1.59439
1.58085
1.56969
1.55832
1.54053
1.51663
1.49061
1.46055
1.42649
1.55001
1.56833
1.55894
1.55164
1.54595
1.53258
1.5114
1.48667
1.45879
1.42785
1.49493
1.54226
1.54075
1.53594
1.53248
1.52371
1.50626
1.48402
1.45809
1.42968
1.42083
1.51091
1.52684
1.52613
1.52207
1.51425
1.49988
1.48098
1.45767
1.43184
1.32662
1.44494
1.50417
1.52006
1.51919
1.50844
1.4939
1.47625
1.45597
1.43238
1.23623
1.32861
1.44642
1.49993
1.51798
1.50934
1.4911
1.47292
1.4549
1.433
1.17366
1.21218
1.32517
1.44197
1.50189
1.50772
1.49086
1.47345
1.45657
1.43515
1.13435
1.14566
1.19426
1.31583
1.4384
1.49423
1.49017
1.47542
1.45924
1.43827
1.10901
1.11307
1.12536
1.17683
1.30059
1.42893
1.47984
1.47465
1.46198
1.44149
1.09253
1.09504
1.09834
1.10906
1.1588
1.28363
1.41441
1.4641
1.46044
1.44168
1.08211
1.08385
1.08583
1.08701
1.09556
1.14311
1.26516
1.3959
1.45303
1.43682
1.07445
1.07562
1.07695
1.07741
1.07755
1.08479
1.12857
1.25127
1.38298
1.41986
1.06791
1.06862
1.06932
1.06996
1.06968
1.06928
1.07548
1.1177
1.23892
1.35648
1.06252
1.06288
1.0632
1.06352
1.06375
1.06335
1.06274
1.06858
1.10967
1.23117
1.05868
1.0587
1.05862
1.05856
1.0587
1.0589
1.05831
1.05683
1.06293
1.12897
1.02289
1.09266
1.11966
1.11934
1.11373
1.10521
1.09732
1.08424
1.12064
1.51589
1.02289
1.09266
1.11966
1.11932
1.11379
1.10504
1.09761
1.08417
1.10497
1.47962
1.02289
1.09266
1.11967
1.1193
1.11385
1.10486
1.09798
1.08363
1.09311
1.44223
1.02289
1.09266
1.11967
1.11928
1.11391
1.10467
1.09825
1.08343
1.08502
1.40417
1.02289
1.09266
1.11968
1.11926
1.11397
1.10452
1.09844
1.0837
1.08027
1.36576
1.02289
1.09266
1.11968
1.11925
1.11401
1.10444
1.09851
1.08428
1.07761
1.32694
1.02289
1.09266
1.11968
1.11924
1.11403
1.10443
1.09845
1.08509
1.0757
1.2889
1.02289
1.09266
1.11968
1.11925
1.11402
1.10449
1.09827
1.08604
1.07426
1.25114
1.02289
1.09266
1.11967
1.11926
1.11398
1.10461
1.09797
1.08692
1.07413
1.21359
1.02289
1.09266
1.11966
1.11928
1.11393
1.10481
1.09759
1.08762
1.07422
1.17868
1.02289
1.09266
1.11966
1.11931
1.11385
1.10503
1.09719
1.08811
1.07439
1.14929
1.02289
1.09266
1.11965
1.11934
1.11376
1.10524
1.09685
1.08834
1.0745
1.12597
1.02289
1.09266
1.11964
1.11937
1.11368
1.1054
1.09663
1.08843
1.07459
1.10806
1.02289
1.09267
1.11963
1.11939
1.11362
1.1055
1.09649
1.08852
1.07472
1.09464
1.02289
1.09267
1.11963
1.1194
1.11359
1.10556
1.09637
1.08873
1.07437
1.08496
1.02289
1.09267
1.11962
1.11941
1.11356
1.10563
1.09623
1.08896
1.07377
1.0781
1.02289
1.09267
1.11962
1.11942
1.11353
1.10571
1.09605
1.08924
1.07401
1.07264
1.02289
1.09267
1.11962
1.11943
1.1135
1.10578
1.09587
1.08948
1.07473
1.0673
1.02289
1.09267
1.11962
1.11944
1.11348
1.10584
1.09573
1.08963
1.07564
1.06459
1.02289
1.09267
1.11962
1.11944
1.11347
1.10588
1.09564
1.08971
1.07641
1.06366
1.02289
1.09267
1.11962
1.11944
1.11347
1.10588
1.09564
1.08971
1.07641
1.06366
1.02289
1.09267
1.11962
1.11944
1.11348
1.10584
1.09573
1.08963
1.07564
1.06459
1.02289
1.09267
1.11962
1.11943
1.1135
1.10578
1.09587
1.08948
1.07473
1.0673
1.02289
1.09267
1.11962
1.11942
1.11353
1.10571
1.09605
1.08924
1.07401
1.07264
1.02289
1.09267
1.11962
1.11941
1.11356
1.10563
1.09623
1.08896
1.07377
1.0781
1.02289
1.09267
1.11963
1.1194
1.11359
1.10556
1.09637
1.08873
1.07437
1.08496
1.02289
1.09267
1.11963
1.11939
1.11362
1.1055
1.09649
1.08852
1.07472
1.09464
1.02289
1.09266
1.11964
1.11937
1.11368
1.1054
1.09663
1.08843
1.07459
1.10806
1.02289
1.09266
1.11965
1.11934
1.11376
1.10524
1.09685
1.08834
1.0745
1.12597
1.02289
1.09266
1.11966
1.11931
1.11385
1.10503
1.09719
1.08811
1.07439
1.14929
1.02289
1.09266
1.11966
1.11928
1.11393
1.10481
1.09759
1.08762
1.07422
1.17868
1.02289
1.09266
1.11967
1.11926
1.11398
1.10461
1.09797
1.08692
1.07413
1.21359
1.02289
1.09266
1.11968
1.11925
1.11402
1.10449
1.09827
1.08604
1.07426
1.25114
1.02289
1.09266
1.11968
1.11924
1.11403
1.10443
1.09845
1.08509
1.0757
1.2889
1.02289
1.09266
1.11968
1.11925
1.11401
1.10444
1.09851
1.08428
1.07761
1.32694
1.02289
1.09266
1.11968
1.11926
1.11397
1.10452
1.09844
1.0837
1.08027
1.36576
1.02289
1.09266
1.11967
1.11928
1.11391
1.10467
1.09825
1.08343
1.08502
1.40417
1.02289
1.09266
1.11967
1.1193
1.11385
1.10486
1.09798
1.08363
1.09311
1.44223
1.02289
1.09266
1.11966
1.11932
1.11379
1.10504
1.09761
1.08417
1.10497
1.47962
1.02289
1.09266
1.11966
1.11934
1.11373
1.10521
1.09732
1.08424
1.12064
1.51589
1.05868
1.0587
1.05862
1.05856
1.0587
1.0589
1.05831
1.05683
1.06293
1.12897
1.06252
1.06288
1.0632
1.06352
1.06375
1.06335
1.06274
1.06858
1.10967
1.23117
1.06791
1.06862
1.06932
1.06996
1.06968
1.06928
1.07548
1.1177
1.23892
1.35648
1.07445
1.07562
1.07695
1.07741
1.07755
1.08479
1.12857
1.25127
1.38298
1.41986
1.08211
1.08385
1.08583
1.08701
1.09556
1.14311
1.26516
1.3959
1.45303
1.43682
1.09253
1.09504
1.09834
1.10906
1.1588
1.28363
1.41441
1.4641
1.46044
1.44168
1.10901
1.11307
1.12536
1.17683
1.30059
1.42893
1.47984
1.47465
1.46198
1.44149
1.13435
1.14566
1.19426
1.31583
1.4384
1.49423
1.49017
1.47542
1.45924
1.43827
1.17366
1.21218
1.32517
1.44197
1.50189
1.50772
1.49086
1.47345
1.45657
1.43515
1.23623
1.32861
1.44642
1.49993
1.51798
1.50934
1.4911
1.47292
1.4549
1.433
1.32662
1.44494
1.50417
1.52006
1.51919
1.50844
1.4939
1.47625
1.45597
1.43238
1.42083
1.51091
1.52684
1.52613
1.52207
1.51425
1.49988
1.48098
1.45767
1.43184
1.49493
1.54226
1.54075
1.53594
1.53248
1.52371
1.50626
1.48402
1.45809
1.42968
1.55001
1.56833
1.55894
1.55164
1.54595
1.53258
1.5114
1.48667
1.45879
1.42785
1.59356
1.59439
1.58085
1.56969
1.55832
1.54053
1.51663
1.49061
1.46055
1.42649
1.62732
1.61392
1.59849
1.58439
1.56781
1.54635
1.52169
1.49486
1.46256
1.42496
1.65403
1.63209
1.61529
1.59768
1.57719
1.55374
1.52807
1.49925
1.46388
1.42194
1.67063
1.6455
1.6282
1.60869
1.58705
1.5627
1.53545
1.50323
1.4643
1.41816
1.6824
1.65724
1.63935
1.61866
1.59626
1.57063
1.54168
1.50625
1.46419
1.41361
1.69016
1.66687
1.64964
1.62895
1.60651
1.57992
1.54913
1.51048
1.46513
1.40947
)
;

boundaryField
{
    inlet
    {
        type            fixedValue;
        value           uniform 1;
    }
    outlet
    {
        type            zeroGradient;
    }
    triangle
    {
        type            zeroGradient;
    }
    top
    {
        type            symmetryPlane;
    }
    bottom
    {
        type            symmetryPlane;
    }
    defaultFaces
    {
        type            empty;
    }
}


// ************************************************************************* //
