/*--------------------------------*- C++ -*----------------------------------*\
  =========                 |
  \\      /  F ield         | OpenFOAM: The Open Source CFD Toolbox
   \\    /   O peration     | Website:  https://openfoam.org
    \\  /    A nd           | Version:  8
     \\/     M anipulation  |
\*---------------------------------------------------------------------------*/
FoamFile
{
    version     2.0;
    format      ascii;
    class       volScalarField;
    location    "0.6";
    object      rho;
}
// * * * * * * * * * * * * * * * * * * * * * * * * * * * * * * * * * * * * * //

dimensions      [1 -3 0 0 0 0 0];

internalField   nonuniform List<scalar> 
2600
(
0.6988
0.627706
0.627523
0.690602
0.896874
1.2614
1.38267
1.39039
1.38846
1.39545
0.705311
0.620587
0.612356
0.675815
0.886361
1.24534
1.37902
1.38495
1.38383
1.39357
0.721951
0.627148
0.603128
0.664086
0.871916
1.2293
1.37268
1.37567
1.3766
1.39096
0.738287
0.636015
0.596845
0.651939
0.851259
1.20755
1.35667
1.36086
1.36766
1.38828
0.745928
0.6369
0.589237
0.639167
0.826862
1.17736
1.32751
1.3435
1.35885
1.38631
0.748809
0.633824
0.582452
0.625513
0.803452
1.1481
1.30246
1.32829
1.35162
1.38474
0.748582
0.631917
0.580495
0.622939
0.799871
1.13336
1.28653
1.32034
1.3476
1.38324
0.747621
0.633011
0.580741
0.627693
0.808575
1.13345
1.2825
1.31737
1.34536
1.38241
0.747098
0.633154
0.582718
0.635629
0.82169
1.14107
1.28485
1.31705
1.34486
1.38139
0.746842
0.634329
0.586078
0.642048
0.830607
1.14459
1.28337
1.31528
1.34437
1.38093
0.746842
0.634693
0.587547
0.642236
0.830505
1.14459
1.28337
1.31528
1.34437
1.38093
0.747124
0.633454
0.583633
0.636533
0.821556
1.14107
1.28485
1.31705
1.34486
1.38139
0.747615
0.632947
0.580723
0.627253
0.808467
1.13345
1.28251
1.31737
1.34536
1.38241
0.748569
0.631716
0.580133
0.622424
0.799896
1.13336
1.28653
1.32034
1.3476
1.38324
0.748825
0.633576
0.581955
0.624952
0.803434
1.14812
1.30246
1.32829
1.35162
1.38474
0.745977
0.636811
0.58883
0.637865
0.826728
1.1774
1.32752
1.3435
1.35885
1.38631
0.73833
0.636169
0.597117
0.652835
0.851479
1.20761
1.35668
1.36086
1.36766
1.38828
0.721949
0.627348
0.603654
0.665443
0.87231
1.22933
1.37267
1.37567
1.3766
1.39096
0.705273
0.620611
0.612605
0.676039
0.88618
1.24527
1.37901
1.38495
1.38383
1.39357
0.698754
0.627652
0.62751
0.690004
0.896495
1.2613
1.38266
1.3904
1.38846
1.39545
0.824337
0.651149
0.654878
0.706386
0.898916
1.27112
1.38321
1.39233
1.39246
1.39809
0.968562
0.707035
0.688639
0.724706
0.895547
1.27325
1.3819
1.39269
1.39608
1.40052
1.09862
0.769378
0.712633
0.741203
0.88936
1.27012
1.38011
1.39291
1.39722
1.40084
1.19688
0.836346
0.733
0.754146
0.880996
1.2634
1.37909
1.39273
1.39657
1.39985
1.27405
0.906323
0.760098
0.764125
0.871642
1.25402
1.37856
1.39231
1.39533
1.39827
1.33302
0.970871
0.792292
0.769354
0.860668
1.24051
1.37727
1.39154
1.39449
1.39745
1.38177
1.02954
0.826854
0.774255
0.8578
1.22518
1.37477
1.39089
1.39443
1.39737
1.42179
1.08154
0.864654
0.781607
0.855742
1.20977
1.37149
1.38985
1.39423
1.39726
1.45575
1.13002
0.902403
0.790945
0.856559
1.19478
1.36756
1.3879
1.39322
1.39691
1.48516
1.17303
0.940091
0.804502
0.860612
1.17925
1.36259
1.38509
1.39146
1.39645
1.51026
1.21388
0.975511
0.819566
0.868571
1.16337
1.35693
1.38209
1.38976
1.39608
1.53222
1.25017
1.00899
0.84147
0.879635
1.14627
1.35078
1.37959
1.3883
1.39561
1.55152
1.28303
1.04096
0.872108
0.889273
1.12843
1.3449
1.37745
1.38677
1.39475
1.56838
1.3121
1.07273
0.903062
0.899992
1.10986
1.33846
1.3748
1.38486
1.39352
1.58357
1.33756
1.10471
0.932234
0.910508
1.09272
1.33089
1.37118
1.38272
1.39235
1.5971
1.36089
1.13501
0.961423
0.924737
1.08371
1.32201
1.36686
1.38114
1.39186
1.6094
1.38191
1.16467
0.989518
0.93804
1.07589
1.31193
1.36256
1.38022
1.39181
1.62062
1.40143
1.19266
1.01695
0.952047
1.07192
1.3033
1.35893
1.37961
1.39179
1.6306
1.41947
1.21894
1.04307
0.965715
1.07086
1.29546
1.35569
1.37868
1.39146
1.63983
1.43648
1.24403
1.0685
0.977956
1.07057
1.28676
1.35254
1.37683
1.39045
2.52523
2.44026
2.38215
2.32401
2.26725
2.2107
2.14883
2.07867
1.97604
1.85004
2.4167
2.33652
2.29888
2.25482
2.21094
2.16204
2.1047
2.03272
1.92817
1.77892
2.39771
2.33824
2.3061
2.26427
2.22258
2.17439
2.11685
2.04273
1.93726
1.79128
2.35952
2.31259
2.28557
2.24815
2.21049
2.16348
2.10653
2.03149
1.92856
1.78002
2.32371
2.28571
2.26371
2.22893
2.19348
2.14772
2.09242
2.01829
1.91963
1.77062
2.28699
2.25543
2.23613
2.20426
2.17204
2.12847
2.07553
2.00331
1.90993
1.76243
2.25277
2.22703
2.21017
2.18094
2.15092
2.10879
2.058
1.98809
1.89983
1.75749
2.22007
2.19871
2.18344
2.15673
2.1288
2.08857
2.04026
1.97321
1.89002
1.75582
2.18945
2.17158
2.1578
2.13355
2.10752
2.06922
2.0234
1.95947
1.88104
1.75602
2.1608
2.14554
2.13296
2.11088
2.08655
2.05038
2.00719
1.94669
1.87287
1.75712
2.13428
2.1211
2.10967
2.08956
2.06679
2.03274
1.99199
1.93497
1.86549
1.75878
2.10999
2.0985
2.08809
2.06969
2.04827
2.01636
1.9779
1.9243
1.85887
1.76066
2.0881
2.07833
2.06897
2.05197
2.03158
2.00164
1.96515
1.91473
1.85304
1.76262
2.06837
2.06034
2.05209
2.03627
2.01658
1.98842
1.9537
1.90618
1.84802
1.76469
2.05118
2.04412
2.03671
2.02199
2.00313
1.97658
1.94345
1.89855
1.84371
1.76681
2.04054
2.03229
2.0245
2.0101
1.99179
1.96632
1.9345
1.89187
1.84016
1.76891
2.03635
2.02494
2.01561
2.00068
1.98234
1.95732
1.92653
1.8859
1.83692
1.77076
2.03504
2.02078
2.00971
1.99339
1.97443
1.9497
1.9198
1.88085
1.83432
1.77263
2.03377
2.01748
2.0047
1.98731
1.96787
1.94337
1.91413
1.87652
1.83191
1.77407
2.03179
2.01384
1.99967
1.98165
1.96187
1.93767
1.90914
1.87283
1.83012
1.77576
1.42285
1.49147
1.51756
1.51743
1.51166
1.50404
1.49498
1.4888
1.70536
2.13748
1.42285
1.49147
1.51756
1.51743
1.51166
1.50404
1.49501
1.48847
1.70399
2.13321
1.42285
1.49147
1.51756
1.51743
1.51166
1.50405
1.49505
1.48779
1.70223
2.12855
1.42285
1.49147
1.51756
1.51743
1.51166
1.50405
1.4951
1.48682
1.69951
2.12314
1.42285
1.49147
1.51756
1.51743
1.51166
1.50405
1.49514
1.4857
1.69578
2.117
1.42285
1.49147
1.51756
1.51743
1.51166
1.50406
1.4952
1.48451
1.69079
2.1092
1.42285
1.49147
1.51757
1.51742
1.51166
1.50406
1.49524
1.48365
1.68453
2.1002
1.42285
1.49147
1.51757
1.51742
1.51166
1.50406
1.49528
1.48299
1.67693
2.08991
1.42285
1.49147
1.51757
1.51742
1.51167
1.50406
1.49531
1.48287
1.66808
2.07887
1.42285
1.49147
1.51758
1.51741
1.51167
1.50405
1.49533
1.48293
1.65827
2.06717
1.42285
1.49147
1.51758
1.51741
1.51168
1.50405
1.49535
1.48301
1.64778
2.0551
1.42285
1.49147
1.51758
1.5174
1.51169
1.50404
1.49537
1.48308
1.63664
2.04257
1.42285
1.49147
1.51759
1.51739
1.5117
1.50402
1.49538
1.48314
1.62494
2.02942
1.42285
1.49146
1.51759
1.51739
1.51171
1.50401
1.49539
1.4832
1.6129
2.01572
1.42285
1.49146
1.5176
1.51738
1.51172
1.50399
1.49541
1.48325
1.60049
2.00137
1.42285
1.49146
1.5176
1.51737
1.51174
1.50396
1.49544
1.48326
1.58739
1.98557
1.42285
1.49146
1.5176
1.51736
1.51176
1.50392
1.49549
1.48325
1.57367
1.96825
1.42285
1.49146
1.51761
1.51735
1.51178
1.50387
1.49556
1.48326
1.55974
1.94961
1.42285
1.49146
1.51761
1.51734
1.5118
1.50381
1.49564
1.48329
1.5461
1.92985
1.42285
1.49146
1.51762
1.51733
1.51183
1.50373
1.49577
1.48327
1.53314
1.90929
1.42285
1.49146
1.51762
1.51733
1.51183
1.50373
1.49577
1.48327
1.53314
1.90929
1.42285
1.49146
1.51761
1.51734
1.5118
1.50381
1.49564
1.48329
1.5461
1.92985
1.42285
1.49146
1.51761
1.51735
1.51178
1.50387
1.49556
1.48326
1.55974
1.94961
1.42285
1.49146
1.5176
1.51736
1.51176
1.50392
1.49549
1.48325
1.57367
1.96825
1.42285
1.49146
1.5176
1.51737
1.51174
1.50396
1.49544
1.48326
1.58739
1.98557
1.42285
1.49146
1.5176
1.51738
1.51172
1.50399
1.49541
1.48325
1.60049
2.00137
1.42285
1.49146
1.51759
1.51739
1.51171
1.50401
1.49539
1.4832
1.6129
2.01572
1.42285
1.49147
1.51759
1.51739
1.5117
1.50402
1.49538
1.48314
1.62494
2.02942
1.42285
1.49147
1.51758
1.5174
1.51169
1.50404
1.49537
1.48308
1.63664
2.04257
1.42285
1.49147
1.51758
1.51741
1.51168
1.50405
1.49535
1.48301
1.64778
2.0551
1.42285
1.49147
1.51758
1.51741
1.51167
1.50405
1.49533
1.48293
1.65827
2.06717
1.42285
1.49147
1.51757
1.51742
1.51167
1.50406
1.49531
1.48287
1.66808
2.07887
1.42285
1.49147
1.51757
1.51742
1.51166
1.50406
1.49528
1.48299
1.67693
2.08991
1.42285
1.49147
1.51757
1.51742
1.51166
1.50406
1.49524
1.48365
1.68453
2.1002
1.42285
1.49147
1.51756
1.51743
1.51166
1.50406
1.4952
1.48451
1.69079
2.1092
1.42285
1.49147
1.51756
1.51743
1.51166
1.50405
1.49514
1.4857
1.69578
2.117
1.42285
1.49147
1.51756
1.51743
1.51166
1.50405
1.4951
1.48682
1.69951
2.12314
1.42285
1.49147
1.51756
1.51743
1.51166
1.50405
1.49505
1.48779
1.70223
2.12855
1.42285
1.49147
1.51756
1.51743
1.51166
1.50404
1.49501
1.48847
1.70399
2.13321
1.42285
1.49147
1.51756
1.51743
1.51166
1.50404
1.49498
1.4888
1.70536
2.13748
2.03179
2.01384
1.99967
1.98165
1.96187
1.93767
1.90914
1.87283
1.83012
1.77576
2.03377
2.01748
2.0047
1.98731
1.96787
1.94337
1.91413
1.87652
1.83191
1.77407
2.03504
2.02078
2.00971
1.99339
1.97443
1.9497
1.9198
1.88085
1.83432
1.77263
2.03635
2.02494
2.01561
2.00068
1.98234
1.95732
1.92653
1.8859
1.83692
1.77076
2.04054
2.03229
2.0245
2.0101
1.99179
1.96632
1.9345
1.89187
1.84016
1.76891
2.05118
2.04412
2.03671
2.02199
2.00313
1.97658
1.94345
1.89855
1.84371
1.76681
2.06837
2.06034
2.05209
2.03627
2.01658
1.98842
1.9537
1.90618
1.84802
1.76469
2.0881
2.07833
2.06897
2.05197
2.03158
2.00164
1.96515
1.91473
1.85304
1.76262
2.10999
2.0985
2.08809
2.06969
2.04827
2.01636
1.9779
1.9243
1.85887
1.76066
2.13428
2.1211
2.10967
2.08956
2.06679
2.03274
1.99199
1.93497
1.86549
1.75878
2.1608
2.14554
2.13296
2.11088
2.08655
2.05038
2.00719
1.94669
1.87287
1.75712
2.18945
2.17158
2.1578
2.13355
2.10752
2.06922
2.0234
1.95947
1.88104
1.75602
2.22007
2.19871
2.18344
2.15673
2.1288
2.08857
2.04026
1.97321
1.89002
1.75582
2.25277
2.22703
2.21017
2.18094
2.15092
2.10879
2.058
1.98809
1.89983
1.75749
2.28699
2.25543
2.23613
2.20426
2.17204
2.12847
2.07553
2.00331
1.90993
1.76243
2.32371
2.28571
2.26371
2.22893
2.19348
2.14772
2.09242
2.01829
1.91963
1.77062
2.35952
2.31259
2.28557
2.24815
2.21049
2.16348
2.10653
2.03149
1.92856
1.78002
2.39771
2.33824
2.3061
2.26427
2.22258
2.17439
2.11685
2.04273
1.93726
1.79128
2.4167
2.33652
2.29888
2.25482
2.21094
2.16204
2.1047
2.03272
1.92817
1.77892
2.52523
2.44026
2.38215
2.32401
2.26725
2.2107
2.14883
2.07867
1.97604
1.85004
1.63983
1.43648
1.24403
1.0685
0.977956
1.07057
1.28676
1.35254
1.37683
1.39045
1.6306
1.41947
1.21894
1.04307
0.965715
1.07086
1.29546
1.35569
1.37868
1.39146
1.62062
1.40143
1.19266
1.01695
0.952047
1.07192
1.3033
1.35893
1.37961
1.39179
1.6094
1.38191
1.16467
0.989518
0.93804
1.07589
1.31193
1.36256
1.38022
1.39181
1.5971
1.36089
1.13501
0.961423
0.924737
1.08371
1.32201
1.36686
1.38114
1.39186
1.58357
1.33756
1.10471
0.932234
0.910508
1.09272
1.33089
1.37118
1.38272
1.39235
1.56838
1.3121
1.07273
0.903062
0.899992
1.10986
1.33846
1.3748
1.38486
1.39352
1.55152
1.28303
1.04096
0.872108
0.889273
1.12843
1.3449
1.37745
1.38677
1.39475
1.53222
1.25017
1.00899
0.84147
0.879635
1.14627
1.35078
1.37959
1.3883
1.39561
1.51026
1.21388
0.975511
0.819566
0.868571
1.16337
1.35693
1.38209
1.38976
1.39608
1.48516
1.17303
0.940091
0.804502
0.860612
1.17925
1.36259
1.38509
1.39146
1.39645
1.45575
1.13002
0.902403
0.790945
0.856559
1.19478
1.36756
1.3879
1.39322
1.39691
1.42178
1.08154
0.864654
0.781607
0.855742
1.20977
1.37149
1.38985
1.39423
1.39726
1.38177
1.02954
0.826853
0.774255
0.857804
1.22518
1.37477
1.39089
1.39443
1.39737
1.33302
0.970872
0.792292
0.769358
0.860677
1.24051
1.37727
1.39154
1.39449
1.39745
1.27405
0.906322
0.760099
0.764129
0.871643
1.25402
1.37856
1.39231
1.39533
1.39827
1.19688
0.836336
0.733006
0.754123
0.880945
1.26338
1.37909
1.39273
1.39657
1.39985
1.09862
0.769358
0.712645
0.741107
0.889242
1.27008
1.38011
1.39291
1.39722
1.40084
0.968552
0.707029
0.688685
0.724647
0.895461
1.27321
1.3819
1.39269
1.39608
1.40052
0.824342
0.651197
0.65497
0.706744
0.899046
1.27112
1.3832
1.39233
1.39246
1.39809
1.89403
2.03796
1.95035
1.79476
1.64762
1.51382
1.39967
1.3205
1.25984
1.26979
1.87048
1.99001
1.9286
1.79336
1.64791
1.51198
1.39477
1.31471
1.26882
1.2764
1.83204
1.93191
1.90586
1.78907
1.64676
1.50824
1.38645
1.31007
1.26276
1.28029
1.79692
1.85163
1.86322
1.78195
1.64332
1.50196
1.37636
1.30561
1.26756
1.28977
1.77239
1.77689
1.81051
1.76173
1.63509
1.49314
1.36781
1.30751
1.2806
1.30752
1.76527
1.72166
1.74186
1.72617
1.62275
1.48068
1.36245
1.31652
1.30394
1.33219
1.76057
1.68751
1.67045
1.6752
1.60007
1.46498
1.36245
1.33381
1.33619
1.36034
1.75742
1.67251
1.60863
1.60052
1.56196
1.45161
1.36788
1.35495
1.36845
1.38677
1.75536
1.66253
1.56688
1.52167
1.50826
1.42983
1.3723
1.37738
1.39988
1.41056
1.75206
1.65379
1.54614
1.45626
1.43549
1.39472
1.37183
1.4022
1.43188
1.42993
1.74747
1.64376
1.52775
1.41682
1.35771
1.34204
1.35765
1.40726
1.44491
1.43593
1.74182
1.63263
1.51173
1.38776
1.29501
1.27457
1.33365
1.39939
1.44303
1.4352
1.73507
1.61807
1.49508
1.36304
1.2525
1.21182
1.29819
1.3878
1.44061
1.43019
1.72763
1.60294
1.47348
1.33651
1.21791
1.16839
1.2571
1.36476
1.42244
1.41415
1.71903
1.58599
1.4493
1.30692
1.18532
1.13997
1.22222
1.33449
1.3927
1.39422
1.70898
1.56656
1.4225
1.27272
1.15034
1.12006
1.20685
1.31917
1.37294
1.38434
1.69685
1.54396
1.39253
1.2347
1.11331
1.10516
1.20831
1.32272
1.36782
1.38262
1.68346
1.51854
1.36025
1.19274
1.07667
1.09361
1.22439
1.33064
1.36767
1.38324
1.66865
1.4909
1.32236
1.14985
1.03341
1.08704
1.24726
1.33956
1.36965
1.38522
1.65244
1.46064
1.27896
1.10594
0.997683
1.07529
1.27118
1.34725
1.37335
1.38789
1.65244
1.46064
1.27896
1.10594
0.997683
1.07529
1.27118
1.34725
1.37335
1.38789
1.66865
1.4909
1.32236
1.14985
1.03341
1.08704
1.24726
1.33956
1.36965
1.38522
1.68346
1.51854
1.36025
1.19274
1.07667
1.09361
1.22439
1.33064
1.36767
1.38324
1.69685
1.54396
1.39253
1.2347
1.11331
1.10516
1.20831
1.32272
1.36782
1.38262
1.70898
1.56656
1.4225
1.27272
1.15034
1.12006
1.20685
1.31917
1.37294
1.38434
1.71903
1.58599
1.4493
1.30692
1.18532
1.13997
1.22222
1.33449
1.3927
1.39422
1.72763
1.60294
1.47348
1.33651
1.21791
1.16839
1.2571
1.36476
1.42244
1.41415
1.73507
1.61807
1.49508
1.36304
1.2525
1.21182
1.29819
1.3878
1.44061
1.43019
1.74182
1.63263
1.51173
1.38776
1.29501
1.27457
1.33365
1.39939
1.44303
1.4352
1.74747
1.64376
1.52775
1.41682
1.35771
1.34204
1.35765
1.40726
1.44491
1.43593
1.75206
1.65379
1.54614
1.45626
1.43549
1.39472
1.37183
1.4022
1.43188
1.42993
1.75536
1.66253
1.56688
1.52167
1.50826
1.42983
1.3723
1.37738
1.39988
1.41056
1.75742
1.67251
1.60863
1.60052
1.56196
1.45161
1.36788
1.35495
1.36845
1.38677
1.76057
1.68751
1.67045
1.6752
1.60007
1.46498
1.36245
1.33381
1.33619
1.36034
1.76527
1.72166
1.74186
1.72617
1.62275
1.48068
1.36245
1.31652
1.30394
1.33219
1.77239
1.77689
1.81051
1.76173
1.63509
1.49314
1.36781
1.30751
1.2806
1.30752
1.79692
1.85163
1.86322
1.78195
1.64332
1.50196
1.37636
1.30561
1.26756
1.28977
1.83204
1.93191
1.90586
1.78907
1.64676
1.50824
1.38645
1.31007
1.26276
1.28029
1.87048
1.99001
1.9286
1.79336
1.64791
1.51198
1.39477
1.31471
1.26882
1.2764
1.89403
2.03796
1.95035
1.79476
1.64762
1.51382
1.39967
1.3205
1.25984
1.26979
2.02814
2.00798
1.99283
1.97459
1.95474
1.93116
1.90375
1.86921
1.82845
1.77795
2.02126
1.99947
1.98375
1.96553
1.94573
1.92303
1.8973
1.8657
1.82805
1.78229
2.01091
1.98915
1.974
1.95688
1.93784
1.91636
1.89226
1.86366
1.82892
1.78744
1.99676
1.97777
1.96313
1.94776
1.92984
1.90928
1.88671
1.86127
1.82988
1.79238
1.97445
1.96287
1.94951
1.93728
1.92288
1.90417
1.88259
1.859
1.83045
1.79696
1.94633
1.94744
1.93571
1.92605
1.91622
1.90077
1.87989
1.85704
1.83049
1.80017
1.91004
1.92627
1.91814
1.91189
1.90707
1.89548
1.87693
1.85516
1.8305
1.80288
1.863
1.90478
1.90363
1.89955
1.89659
1.88898
1.87367
1.85402
1.83096
1.80553
1.79773
1.87825
1.89239
1.89186
1.8883
1.88145
1.86878
1.85203
1.8312
1.80796
1.7124
1.82002
1.87292
1.88699
1.88623
1.87671
1.86376
1.848
1.82982
1.80851
1.62857
1.71443
1.82155
1.86929
1.8853
1.87761
1.86128
1.84495
1.82873
1.80893
1.56945
1.60601
1.71134
1.81743
1.87099
1.87602
1.86095
1.84529
1.83006
1.81063
1.53183
1.54272
1.58907
1.70261
1.81404
1.8638
1.86014
1.84684
1.83221
1.8132
1.50736
1.5113
1.52319
1.57247
1.68839
1.80521
1.85067
1.84596
1.83448
1.81593
1.49135
1.4938
1.49702
1.50742
1.5552
1.67247
1.79188
1.83636
1.83298
1.816
1.48119
1.48289
1.48482
1.48598
1.4943
1.54011
1.65521
1.77495
1.82625
1.81162
1.47369
1.47483
1.47614
1.47659
1.47673
1.48379
1.5261
1.64212
1.76327
1.79627
1.46728
1.46798
1.46867
1.46929
1.46902
1.46863
1.47469
1.51557
1.63058
1.73877
1.46199
1.46234
1.46265
1.46297
1.46319
1.4628
1.4622
1.46792
1.5078
1.62289
1.45821
1.45823
1.45815
1.45809
1.45823
1.45842
1.45785
1.45638
1.46237
1.52596
1.42285
1.49146
1.51762
1.51731
1.51188
1.50361
1.49596
1.48323
1.5185
1.88236
1.42285
1.49146
1.51763
1.51729
1.51194
1.50345
1.49624
1.48316
1.50341
1.84962
1.42285
1.49146
1.51763
1.51727
1.512
1.50327
1.4966
1.48264
1.49189
1.81567
1.42285
1.49146
1.51764
1.51725
1.51206
1.50309
1.49686
1.48245
1.48398
1.78109
1.42285
1.49146
1.51764
1.51724
1.51212
1.50294
1.49705
1.48272
1.47933
1.74633
1.42285
1.49146
1.51764
1.51722
1.51215
1.50287
1.49712
1.48328
1.47673
1.71125
1.42285
1.49146
1.51764
1.51722
1.51217
1.50286
1.49706
1.48407
1.47486
1.67675
1.42285
1.49146
1.51764
1.51722
1.51216
1.50291
1.49688
1.48499
1.47345
1.64216
1.42285
1.49146
1.51763
1.51724
1.51213
1.50304
1.49659
1.48585
1.47333
1.60726
1.42285
1.49146
1.51763
1.51726
1.51207
1.50322
1.49622
1.48653
1.47342
1.5743
1.42285
1.49146
1.51762
1.51728
1.512
1.50344
1.49583
1.48701
1.4736
1.54621
1.42285
1.49146
1.51761
1.51731
1.51191
1.50365
1.4955
1.48723
1.4737
1.52375
1.42285
1.49146
1.5176
1.51734
1.51183
1.50381
1.49528
1.48732
1.47379
1.50642
1.42285
1.49147
1.5176
1.51736
1.51177
1.5039
1.49515
1.48741
1.47393
1.49339
1.42285
1.49147
1.51759
1.51738
1.51174
1.50396
1.49504
1.48761
1.47358
1.48396
1.42285
1.49147
1.51759
1.51739
1.51171
1.50403
1.49489
1.48783
1.473
1.47725
1.42285
1.49147
1.51759
1.51739
1.51169
1.5041
1.49472
1.48811
1.47324
1.47191
1.42285
1.49147
1.51759
1.5174
1.51166
1.50417
1.49455
1.48835
1.47395
1.46668
1.42285
1.49147
1.51758
1.51741
1.51164
1.50423
1.49441
1.48849
1.47484
1.46402
1.42285
1.49147
1.51758
1.51741
1.51163
1.50427
1.49432
1.48857
1.47559
1.4631
1.42285
1.49147
1.51758
1.51741
1.51163
1.50427
1.49432
1.48857
1.47559
1.4631
1.42285
1.49147
1.51758
1.51741
1.51164
1.50423
1.49441
1.48849
1.47484
1.46402
1.42285
1.49147
1.51759
1.5174
1.51166
1.50417
1.49455
1.48835
1.47395
1.46668
1.42285
1.49147
1.51759
1.51739
1.51169
1.5041
1.49472
1.48811
1.47324
1.47191
1.42285
1.49147
1.51759
1.51739
1.51171
1.50403
1.49489
1.48783
1.473
1.47725
1.42285
1.49147
1.51759
1.51738
1.51174
1.50396
1.49504
1.48761
1.47358
1.48396
1.42285
1.49147
1.5176
1.51736
1.51177
1.5039
1.49515
1.48741
1.47393
1.49339
1.42285
1.49146
1.5176
1.51734
1.51183
1.50381
1.49528
1.48732
1.47379
1.50642
1.42285
1.49146
1.51761
1.51731
1.51191
1.50365
1.4955
1.48723
1.4737
1.52375
1.42285
1.49146
1.51762
1.51728
1.512
1.50344
1.49583
1.48701
1.4736
1.54621
1.42285
1.49146
1.51763
1.51726
1.51207
1.50322
1.49622
1.48653
1.47342
1.5743
1.42285
1.49146
1.51763
1.51724
1.51213
1.50304
1.49659
1.48585
1.47333
1.60726
1.42285
1.49146
1.51764
1.51722
1.51216
1.50291
1.49688
1.48499
1.47345
1.64216
1.42285
1.49146
1.51764
1.51722
1.51217
1.50286
1.49706
1.48407
1.47486
1.67675
1.42285
1.49146
1.51764
1.51722
1.51215
1.50287
1.49712
1.48328
1.47673
1.71125
1.42285
1.49146
1.51764
1.51724
1.51212
1.50294
1.49705
1.48272
1.47933
1.74633
1.42285
1.49146
1.51764
1.51725
1.51206
1.50309
1.49686
1.48245
1.48398
1.78109
1.42285
1.49146
1.51763
1.51727
1.512
1.50327
1.4966
1.48264
1.49189
1.81567
1.42285
1.49146
1.51763
1.51729
1.51194
1.50345
1.49624
1.48316
1.50341
1.84962
1.42285
1.49146
1.51762
1.51731
1.51188
1.50361
1.49596
1.48323
1.5185
1.88236
1.45821
1.45823
1.45815
1.45809
1.45823
1.45842
1.45785
1.45638
1.46237
1.52596
1.46199
1.46234
1.46265
1.46297
1.46319
1.4628
1.4622
1.46792
1.5078
1.62289
1.46728
1.46798
1.46867
1.46929
1.46902
1.46863
1.47469
1.51557
1.63058
1.73877
1.47369
1.47483
1.47614
1.47659
1.47673
1.48379
1.5261
1.64212
1.76327
1.79627
1.48119
1.48289
1.48482
1.48598
1.4943
1.54011
1.65521
1.77495
1.82625
1.81162
1.49135
1.4938
1.49702
1.50742
1.5552
1.67247
1.79188
1.83636
1.83298
1.816
1.50736
1.5113
1.52319
1.57247
1.68839
1.80521
1.85067
1.84596
1.83448
1.81593
1.53183
1.54272
1.58907
1.70261
1.81404
1.8638
1.86014
1.84684
1.83221
1.8132
1.56945
1.60601
1.71134
1.81743
1.87099
1.87602
1.86095
1.84529
1.83006
1.81063
1.62857
1.71443
1.82155
1.86929
1.8853
1.87761
1.86128
1.84495
1.82873
1.80893
1.7124
1.82002
1.87292
1.88699
1.88623
1.87671
1.86376
1.848
1.82982
1.80851
1.79773
1.87825
1.89239
1.89186
1.8883
1.88145
1.86878
1.85203
1.8312
1.80796
1.863
1.90478
1.90363
1.89955
1.89659
1.88898
1.87367
1.85402
1.83096
1.80553
1.91004
1.92627
1.91814
1.91189
1.90707
1.89548
1.87693
1.85516
1.8305
1.80288
1.94633
1.94744
1.93571
1.92605
1.91622
1.90077
1.87989
1.85704
1.83049
1.80017
1.97445
1.96287
1.94951
1.93728
1.92288
1.90417
1.88259
1.859
1.83045
1.79696
1.99676
1.97777
1.96313
1.94776
1.92984
1.90928
1.88671
1.86127
1.82988
1.79238
2.01091
1.98915
1.974
1.95688
1.93784
1.91636
1.89226
1.86366
1.82892
1.78744
2.02126
1.99947
1.98375
1.96553
1.94573
1.92303
1.8973
1.8657
1.82805
1.78229
2.02814
2.00798
1.99283
1.97459
1.95474
1.93116
1.90375
1.86921
1.82845
1.77795
)
;

boundaryField
{
    inlet
    {
        type            calculated;
        value           uniform 1.40001;
    }
    outlet
    {
        type            calculated;
        value           nonuniform List<scalar> 
100
(
1.38792
1.38524
1.38328
1.38274
1.38461
1.39494
1.41506
1.4308
1.43543
1.43603
1.42974
1.41014
1.38643
1.36013
1.33204
1.30734
1.28951
1.27991
1.27587
1.26921
1.39806
1.40055
1.40094
1.39997
1.39839
1.39753
1.39743
1.39731
1.39694
1.39647
1.39607
1.39562
1.39479
1.39358
1.39239
1.39187
1.3918
1.39177
1.39147
1.39048
1.39549
1.39367
1.39112
1.38853
1.38663
1.38508
1.38357
1.38273
1.38169
1.38122
1.38122
1.38169
1.38273
1.38357
1.38508
1.38663
1.38853
1.39112
1.39367
1.39549
1.39048
1.39147
1.39177
1.3918
1.39187
1.39239
1.39358
1.39479
1.39562
1.39607
1.39647
1.39694
1.39731
1.39743
1.39753
1.39839
1.39997
1.40094
1.40055
1.39806
1.26921
1.27587
1.27991
1.28951
1.30734
1.33204
1.36013
1.38643
1.41014
1.42974
1.43603
1.43543
1.4308
1.41506
1.39494
1.38461
1.38274
1.38328
1.38524
1.38792
)
;
    }
    triangle
    {
        type            calculated;
        value           nonuniform List<scalar> 
40
(
2.52523
2.44026
2.38215
2.32401
2.26725
2.2107
2.14883
2.07867
1.97604
1.85004
0.6988
0.705311
0.721951
0.738287
0.745928
0.748809
0.748582
0.747621
0.747098
0.746842
0.746842
0.747124
0.747615
0.748569
0.748825
0.745977
0.73833
0.721949
0.705273
0.698754
2.52523
2.44026
2.38215
2.32401
2.26725
2.2107
2.14883
2.07867
1.97604
1.85004
)
;
    }
    top
    {
        type            symmetryPlane;
    }
    bottom
    {
        type            symmetryPlane;
    }
    defaultFaces
    {
        type            empty;
    }
}


// ************************************************************************* //
