/*--------------------------------*- C++ -*----------------------------------*\
  =========                 |
  \\      /  F ield         | OpenFOAM: The Open Source CFD Toolbox
   \\    /   O peration     | Website:  https://openfoam.org
    \\  /    A nd           | Version:  8
     \\/     M anipulation  |
\*---------------------------------------------------------------------------*/
FoamFile
{
    version     2.0;
    format      ascii;
    class       volScalarField;
    location    "0.6";
    object      T;
}
// * * * * * * * * * * * * * * * * * * * * * * * * * * * * * * * * * * * * * //

dimensions      [0 0 0 1 0 0 0];

internalField   nonuniform List<scalar> 
2600
(
1.01189
0.981885
0.900019
0.885167
0.926151
1.03019
1.03685
1.03154
1.02074
1.00888
1.00834
0.976535
0.912988
0.908411
0.946953
1.0396
1.04369
1.03807
1.02559
1.01058
0.989886
0.958211
0.920853
0.929114
0.972572
1.05518
1.05631
1.04885
1.03274
1.01275
0.972329
0.942571
0.92955
0.950255
1.00547
1.07836
1.07607
1.06391
1.04189
1.0152
0.964647
0.937641
0.939972
0.975726
1.04478
1.10936
1.10137
1.08114
1.05129
1.01764
0.963649
0.938066
0.948194
0.994681
1.07266
1.14206
1.1278
1.09567
1.05848
1.01956
0.963629
0.941876
0.951789
1.00227
1.08336
1.16124
1.14337
1.10395
1.0627
1.02074
0.96378
0.946975
0.951126
0.998283
1.0786
1.16414
1.1473
1.10616
1.06427
1.02147
0.964185
0.948981
0.949109
0.988602
1.06613
1.16022
1.14668
1.10615
1.06473
1.02168
0.964424
0.950022
0.94835
0.983919
1.05937
1.15496
1.1445
1.10537
1.06465
1.02171
0.964406
0.950217
0.949168
0.983973
1.05933
1.15495
1.1445
1.10537
1.06465
1.02171
0.964191
0.94916
0.949653
0.989171
1.06607
1.16021
1.14668
1.10615
1.06473
1.02168
0.963769
0.947047
0.951137
0.998197
1.07857
1.16414
1.1473
1.10616
1.06427
1.02147
0.963612
0.94182
0.951417
1.0022
1.08343
1.16123
1.14337
1.10395
1.0627
1.02074
0.963649
0.937902
0.947719
0.99434
1.07268
1.14207
1.1278
1.09567
1.05848
1.01956
0.964675
0.937531
0.939628
0.974855
1.04472
1.10938
1.10138
1.08114
1.05129
1.01764
0.972352
0.942616
0.929747
0.950853
1.00558
1.07839
1.07608
1.0639
1.04189
1.0152
0.989882
0.958336
0.921211
0.929909
0.972767
1.05519
1.0563
1.04885
1.03274
1.01275
1.00832
0.976566
0.913153
0.908467
0.946876
1.03957
1.04368
1.03807
1.02559
1.01058
1.01186
0.981852
0.899988
0.88481
0.925964
1.03016
1.03685
1.03154
1.02074
1.00888
1.0015
0.956465
0.875635
0.86001
0.903992
1.021
1.0318
1.02684
1.01766
1.00791
0.982323
0.918061
0.848201
0.840231
0.88347
1.01017
1.02743
1.02311
1.01562
1.00729
0.981353
0.888885
0.830599
0.827479
0.867777
0.999943
1.02422
1.0206
1.01375
1.00634
0.984947
0.879049
0.825172
0.81781
0.855814
0.991575
1.02209
1.01879
1.01187
1.00522
0.993659
0.88157
0.825924
0.81109
0.847394
0.984995
1.02067
1.01739
1.01026
1.00417
1.00407
0.890632
0.82928
0.808469
0.840927
0.978519
1.01938
1.01617
1.009
1.00343
1.01445
0.904595
0.836011
0.808302
0.838771
0.971882
1.01794
1.01511
1.0081
1.00298
1.02342
0.919476
0.845989
0.81038
0.837639
0.965329
1.01638
1.01401
1.00726
1.00259
1.03113
0.933919
0.857096
0.813775
0.837828
0.958891
1.0147
1.01272
1.00625
1.00218
1.03783
0.946576
0.868854
0.818717
0.839036
0.95212
1.01274
1.01112
1.00509
1.00178
1.04358
0.958409
0.880116
0.824041
0.841482
0.945021
1.01046
1.00928
1.00404
1.00144
1.04867
0.968772
0.890857
0.831671
0.844516
0.937457
1.0077
1.00746
1.0032
1.00113
1.05325
0.978126
0.901112
0.842207
0.846351
0.929862
1.00453
1.00597
1.00242
1.00077
1.05731
0.986407
0.91133
0.852756
0.848002
0.922457
1.00087
1.00471
1.00159
1.00031
1.06105
0.99366
0.92164
0.861954
0.850545
0.915523
0.9968
1.00344
1.00073
0.999891
1.06445
1.0003
0.931362
0.870732
0.855138
0.91155
0.992458
1.00208
1.00007
0.999687
1.06759
1.00624
0.940693
0.879023
0.859499
0.908121
0.987953
1.00076
0.999626
0.999636
1.0705
1.01169
0.949178
0.887246
0.86403
0.906118
0.984128
0.999612
0.999295
0.999579
1.07313
1.01663
0.956752
0.89515
0.868468
0.905341
0.9808
0.998503
0.998899
0.999435
1.07552
1.02111
0.963611
0.902847
0.872499
0.905067
0.977413
0.997306
0.998279
0.999087
1.33177
1.31528
1.30411
1.29199
1.27931
1.2662
1.25169
1.23515
1.21007
1.18821
1.30259
1.28571
1.27809
1.26859
1.2588
1.24768
1.23452
1.21775
1.19241
1.15708
1.28851
1.27449
1.26666
1.25703
1.2479
1.23746
1.22485
1.20802
1.18319
1.14486
1.2723
1.26094
1.25369
1.24443
1.23568
1.22514
1.2125
1.19549
1.17157
1.13274
1.25795
1.24907
1.24325
1.23456
1.22592
1.21517
1.20247
1.18543
1.16244
1.12441
1.24443
1.23716
1.23234
1.22463
1.21687
1.20658
1.19423
1.17739
1.15543
1.11834
1.23261
1.22668
1.2226
1.21572
1.20869
1.19889
1.18707
1.1707
1.14983
1.11427
1.22224
1.21732
1.21368
1.20744
1.20098
1.19168
1.18049
1.1648
1.14508
1.11167
1.21334
1.20922
1.20595
1.20027
1.19419
1.18529
1.17462
1.15962
1.141
1.11003
1.20572
1.20218
1.19914
1.19388
1.18809
1.17954
1.16936
1.15507
1.13749
1.10898
1.19925
1.1961
1.1932
1.18823
1.18262
1.1744
1.16466
1.15109
1.13449
1.1083
1.19366
1.19075
1.18786
1.18305
1.17756
1.16968
1.16039
1.14759
1.13194
1.10793
1.18863
1.18591
1.183
1.17826
1.17285
1.16536
1.15653
1.14451
1.12977
1.10779
1.18369
1.18116
1.17829
1.17367
1.1684
1.16138
1.15304
1.14178
1.12795
1.10779
1.17851
1.17611
1.17344
1.16919
1.16426
1.15778
1.14994
1.13939
1.12642
1.1079
1.17404
1.17156
1.1691
1.16524
1.16071
1.15467
1.14728
1.13736
1.12519
1.10813
1.1711
1.16818
1.16574
1.1621
1.1578
1.15204
1.14499
1.13561
1.12415
1.10839
1.16943
1.16608
1.1635
1.15976
1.15548
1.1499
1.14314
1.13421
1.12336
1.10873
1.16838
1.16467
1.16184
1.15798
1.15369
1.14824
1.14168
1.13309
1.12273
1.10906
1.16759
1.16355
1.16048
1.15654
1.15221
1.14686
1.14048
1.13221
1.12232
1.10947
1.00647
1.02566
1.03287
1.03283
1.03126
1.02916
1.02668
1.02492
1.0939
1.22507
1.00647
1.02566
1.03287
1.03283
1.03126
1.02917
1.02668
1.02483
1.09294
1.22202
1.00647
1.02566
1.03287
1.03283
1.03126
1.02917
1.02669
1.02465
1.09162
1.21661
1.00647
1.02566
1.03287
1.03283
1.03126
1.02917
1.0267
1.02439
1.09001
1.21013
1.00647
1.02566
1.03287
1.03283
1.03125
1.02917
1.02671
1.02409
1.08816
1.20372
1.00647
1.02566
1.03287
1.03283
1.03126
1.02917
1.02672
1.02377
1.08603
1.19764
1.00647
1.02566
1.03287
1.03283
1.03126
1.02917
1.02673
1.02354
1.08366
1.19208
1.00647
1.02566
1.03287
1.03283
1.03126
1.02917
1.02674
1.02336
1.08105
1.1869
1.00647
1.02566
1.03287
1.03283
1.03126
1.02917
1.02675
1.02333
1.07817
1.18203
1.00647
1.02566
1.03287
1.03283
1.03126
1.02917
1.02676
1.02335
1.07508
1.17731
1.00647
1.02566
1.03287
1.03282
1.03126
1.02917
1.02676
1.02337
1.0718
1.17271
1.00647
1.02566
1.03287
1.03282
1.03126
1.02917
1.02677
1.02339
1.06836
1.16819
1.00647
1.02566
1.03287
1.03282
1.03127
1.02916
1.02677
1.0234
1.06477
1.16377
1.00647
1.02566
1.03287
1.03282
1.03127
1.02916
1.02677
1.02342
1.0611
1.15956
1.00647
1.02566
1.03288
1.03282
1.03127
1.02915
1.02678
1.02343
1.05731
1.15556
1.00647
1.02566
1.03288
1.03281
1.03128
1.02914
1.02679
1.02343
1.05331
1.15153
1.00647
1.02566
1.03288
1.03281
1.03128
1.02913
1.0268
1.02343
1.04916
1.14735
1.00647
1.02566
1.03288
1.03281
1.03129
1.02912
1.02682
1.02343
1.04503
1.14296
1.00647
1.02566
1.03288
1.03281
1.0313
1.0291
1.02685
1.02343
1.04107
1.13836
1.00647
1.02566
1.03288
1.0328
1.0313
1.02908
1.02688
1.02342
1.03734
1.13362
1.00647
1.02566
1.03288
1.0328
1.0313
1.02908
1.02688
1.02342
1.03734
1.13362
1.00647
1.02566
1.03288
1.03281
1.0313
1.0291
1.02685
1.02343
1.04107
1.13836
1.00647
1.02566
1.03288
1.03281
1.03129
1.02912
1.02682
1.02343
1.04503
1.14296
1.00647
1.02566
1.03288
1.03281
1.03128
1.02913
1.0268
1.02343
1.04916
1.14735
1.00647
1.02566
1.03288
1.03281
1.03128
1.02914
1.02679
1.02343
1.05331
1.15153
1.00647
1.02566
1.03288
1.03282
1.03127
1.02915
1.02678
1.02343
1.05731
1.15556
1.00647
1.02566
1.03287
1.03282
1.03127
1.02916
1.02677
1.02342
1.0611
1.15956
1.00647
1.02566
1.03287
1.03282
1.03127
1.02916
1.02677
1.0234
1.06477
1.16377
1.00647
1.02566
1.03287
1.03282
1.03126
1.02917
1.02677
1.02339
1.06836
1.16819
1.00647
1.02566
1.03287
1.03282
1.03126
1.02917
1.02676
1.02337
1.0718
1.17271
1.00647
1.02566
1.03287
1.03283
1.03126
1.02917
1.02676
1.02335
1.07508
1.17731
1.00647
1.02566
1.03287
1.03283
1.03126
1.02917
1.02675
1.02333
1.07817
1.18203
1.00647
1.02566
1.03287
1.03283
1.03126
1.02917
1.02674
1.02336
1.08105
1.1869
1.00647
1.02566
1.03287
1.03283
1.03126
1.02917
1.02673
1.02354
1.08366
1.19208
1.00647
1.02566
1.03287
1.03283
1.03126
1.02917
1.02672
1.02377
1.08603
1.19764
1.00647
1.02566
1.03287
1.03283
1.03125
1.02917
1.02671
1.02409
1.08816
1.20372
1.00647
1.02566
1.03287
1.03283
1.03126
1.02917
1.0267
1.02439
1.09001
1.21013
1.00647
1.02566
1.03287
1.03283
1.03126
1.02917
1.02669
1.02465
1.09162
1.21661
1.00647
1.02566
1.03287
1.03283
1.03126
1.02917
1.02668
1.02483
1.09294
1.22202
1.00647
1.02566
1.03287
1.03283
1.03126
1.02916
1.02668
1.02492
1.0939
1.22507
1.16759
1.16355
1.16048
1.15654
1.15221
1.14686
1.14048
1.13221
1.12232
1.10947
1.16838
1.16467
1.16184
1.15798
1.15369
1.14824
1.14168
1.13309
1.12273
1.10906
1.16943
1.16608
1.1635
1.15976
1.15548
1.1499
1.14314
1.13421
1.12336
1.10873
1.1711
1.16818
1.16574
1.1621
1.1578
1.15204
1.14499
1.13561
1.12415
1.10839
1.17404
1.17156
1.1691
1.16524
1.16071
1.15467
1.14728
1.13736
1.12519
1.10813
1.17851
1.17611
1.17344
1.16919
1.16426
1.15778
1.14994
1.13939
1.12642
1.1079
1.18369
1.18116
1.17829
1.17367
1.1684
1.16138
1.15304
1.14178
1.12795
1.10779
1.18863
1.18591
1.183
1.17826
1.17285
1.16536
1.15653
1.14451
1.12977
1.10779
1.19366
1.19075
1.18786
1.18305
1.17756
1.16968
1.16039
1.14759
1.13194
1.10793
1.19925
1.1961
1.1932
1.18823
1.18262
1.1744
1.16466
1.15109
1.13449
1.1083
1.20572
1.20218
1.19914
1.19388
1.18809
1.17954
1.16936
1.15507
1.13749
1.10898
1.21334
1.20922
1.20595
1.20027
1.19419
1.18529
1.17462
1.15962
1.141
1.11003
1.22224
1.21732
1.21368
1.20744
1.20098
1.19168
1.18049
1.1648
1.14508
1.11167
1.23261
1.22668
1.2226
1.21572
1.20869
1.19889
1.18707
1.1707
1.14983
1.11427
1.24443
1.23716
1.23234
1.22463
1.21687
1.20658
1.19423
1.17739
1.15543
1.11834
1.25795
1.24907
1.24325
1.23456
1.22592
1.21517
1.20247
1.18543
1.16244
1.12441
1.2723
1.26094
1.25369
1.24443
1.23568
1.22514
1.2125
1.19549
1.17157
1.13274
1.28851
1.27449
1.26666
1.25703
1.2479
1.23746
1.22485
1.20802
1.18319
1.14486
1.30259
1.28571
1.27809
1.26859
1.2588
1.24768
1.23452
1.21775
1.19241
1.15708
1.33177
1.31528
1.30411
1.29199
1.27931
1.2662
1.25169
1.23515
1.21007
1.18821
1.07552
1.02111
0.963611
0.902847
0.872499
0.905067
0.977413
0.997306
0.998279
0.999087
1.07313
1.01663
0.956752
0.89515
0.868468
0.905341
0.9808
0.998503
0.998899
0.999435
1.0705
1.01169
0.949178
0.887246
0.86403
0.906118
0.984128
0.999612
0.999295
0.999579
1.06759
1.00624
0.940693
0.879023
0.859499
0.908121
0.987953
1.00076
0.999626
0.999636
1.06445
1.0003
0.931362
0.870732
0.855138
0.91155
0.992458
1.00208
1.00007
0.999687
1.06105
0.99366
0.92164
0.861954
0.850545
0.915523
0.9968
1.00344
1.00073
0.999891
1.05731
0.986407
0.91133
0.852756
0.848002
0.922457
1.00087
1.00471
1.00159
1.00031
1.05325
0.978126
0.901112
0.842207
0.846351
0.929862
1.00453
1.00597
1.00242
1.00077
1.04867
0.968772
0.890857
0.831671
0.844516
0.937457
1.0077
1.00746
1.0032
1.00113
1.04358
0.958409
0.880116
0.824041
0.841482
0.945021
1.01046
1.00928
1.00404
1.00144
1.03783
0.946576
0.868854
0.818717
0.839036
0.95212
1.01274
1.01112
1.00509
1.00178
1.03113
0.933919
0.857096
0.813775
0.837828
0.958891
1.0147
1.01272
1.00625
1.00218
1.02342
0.919476
0.845989
0.81038
0.83764
0.965329
1.01638
1.01401
1.00726
1.00259
1.01445
0.904595
0.836011
0.808302
0.838773
0.971882
1.01794
1.01511
1.0081
1.00298
1.00407
0.890633
0.829279
0.80847
0.84093
0.978519
1.01938
1.01617
1.009
1.00343
0.99366
0.881569
0.825924
0.811092
0.847393
0.984993
1.02067
1.01739
1.01026
1.00417
0.984947
0.879045
0.825175
0.8178
0.855796
0.991568
1.02209
1.01879
1.01187
1.00522
0.981352
0.888878
0.830611
0.827427
0.867735
0.999933
1.02422
1.0206
1.01375
1.00634
0.982316
0.91806
0.84825
0.840177
0.883427
1.01016
1.02743
1.02311
1.01562
1.00729
1.0015
0.956492
0.875735
0.860168
0.904038
1.021
1.0318
1.02684
1.01766
1.00791
1.13056
1.1645
1.14387
1.10612
1.06872
1.03292
1.00085
0.977788
0.959388
0.961647
1.12513
1.154
1.13904
1.10587
1.06881
1.03243
0.999457
0.976071
0.962132
0.963684
1.11587
1.14084
1.13416
1.10512
1.06864
1.03145
0.997085
0.974686
0.960244
0.964864
1.10714
1.12142
1.1242
1.10382
1.06803
1.02983
0.994222
0.97336
0.961628
0.967735
1.10091
1.10268
1.1115
1.09914
1.06621
1.0276
0.991851
0.973966
0.965498
0.973108
1.09909
1.08862
1.0943
1.09039
1.06334
1.02444
0.990507
0.976723
0.972475
0.980534
1.09788
1.07977
1.07594
1.07756
1.05772
1.02044
0.990765
0.981902
0.982052
0.988906
1.097
1.07588
1.05965
1.05813
1.04787
1.01711
0.992614
0.988144
0.991573
0.996753
1.09631
1.07321
1.04853
1.03689
1.03353
1.01145
0.994087
0.994951
1.00072
1.00381
1.09526
1.07079
1.04291
1.01877
1.01346
1.00188
0.99425
1.0024
1.00996
1.00948
1.09389
1.06794
1.03781
1.00758
0.991283
0.986923
0.990755
1.00409
1.01369
1.01124
1.09236
1.06476
1.03322
0.999169
0.972917
0.967193
0.984286
1.00206
1.01328
1.01106
1.09083
1.06078
1.02837
0.991823
0.960266
0.948358
0.974198
0.999225
1.01297
1.00966
1.08956
1.0569
1.02216
0.983763
0.949743
0.935165
0.962279
0.993346
1.00845
1.00505
1.08842
1.05295
1.01538
0.974673
0.939513
0.926519
0.952378
0.985441
1.00069
0.9992
1.08732
1.0488
1.00818
0.964144
0.928186
0.920399
0.948238
0.981579
0.995603
0.996371
1.08592
1.04427
1.00051
0.952477
0.916108
0.915628
0.949123
0.983413
0.994694
0.996
1.08416
1.03925
0.992607
0.939727
0.904689
0.911515
0.95499
0.987194
0.995165
0.996369
1.08172
1.03362
0.983366
0.926967
0.89082
0.909665
0.963057
0.99136
0.996045
0.997201
1.07844
1.02692
0.972571
0.914046
0.879043
0.906218
0.971637
0.994973
0.997205
0.998207
1.07844
1.02692
0.972571
0.914046
0.879043
0.906218
0.971637
0.994973
0.997205
0.998207
1.08172
1.03362
0.983366
0.926967
0.89082
0.909665
0.963057
0.99136
0.996045
0.997201
1.08416
1.03925
0.992607
0.939727
0.904689
0.911515
0.95499
0.987194
0.995165
0.996369
1.08592
1.04427
1.00051
0.952477
0.916108
0.915627
0.949123
0.983413
0.994694
0.996
1.08732
1.0488
1.00818
0.964144
0.928186
0.920399
0.948238
0.981579
0.995603
0.996371
1.08842
1.05295
1.01538
0.974673
0.939513
0.926519
0.952378
0.985441
1.00069
0.9992
1.08956
1.0569
1.02216
0.983763
0.949743
0.935165
0.962279
0.993346
1.00845
1.00505
1.09083
1.06078
1.02837
0.991823
0.960266
0.948358
0.974198
0.999225
1.01297
1.00966
1.09236
1.06476
1.03322
0.999169
0.972917
0.967193
0.984286
1.00206
1.01328
1.01106
1.09389
1.06794
1.03781
1.00758
0.991283
0.986923
0.990755
1.00409
1.01369
1.01124
1.09526
1.07079
1.04291
1.01877
1.01346
1.00188
0.99425
1.0024
1.00996
1.00948
1.09631
1.07321
1.04853
1.03689
1.03353
1.01145
0.994087
0.994951
1.00072
1.00381
1.097
1.07588
1.05965
1.05813
1.04787
1.01711
0.992614
0.988144
0.991573
0.996753
1.09788
1.07977
1.07594
1.07756
1.05772
1.02044
0.990765
0.981902
0.982052
0.988906
1.09909
1.08862
1.0943
1.09039
1.06334
1.02444
0.990507
0.976723
0.972475
0.980534
1.10091
1.10268
1.1115
1.09914
1.06621
1.0276
0.991851
0.973966
0.965498
0.973108
1.10714
1.12142
1.1242
1.10382
1.06803
1.02983
0.994222
0.97336
0.961628
0.967735
1.11587
1.14084
1.13416
1.10512
1.06864
1.03145
0.997085
0.974686
0.960244
0.964864
1.12513
1.154
1.13904
1.10587
1.06881
1.03243
0.999457
0.976071
0.962132
0.963684
1.13056
1.1645
1.14387
1.10612
1.06872
1.03292
1.00085
0.977788
0.959388
0.961647
1.1667
1.16218
1.15891
1.15494
1.1506
1.14537
1.13922
1.13132
1.12182
1.10985
1.1653
1.16038
1.15695
1.15294
1.14855
1.14345
1.1376
1.13028
1.12134
1.1104
1.1631
1.15813
1.15475
1.1509
1.14658
1.14164
1.13602
1.12925
1.12089
1.11077
1.1597
1.15531
1.15194
1.14837
1.14417
1.1393
1.13388
1.12771
1.11999
1.11066
1.15386
1.15111
1.14793
1.14498
1.14149
1.13692
1.13162
1.12577
1.11863
1.11018
1.14626
1.1462
1.14335
1.14098
1.13852
1.13467
1.12947
1.12376
1.11707
1.10939
1.13612
1.13986
1.13784
1.1362
1.1349
1.13197
1.12735
1.12192
1.11572
1.10878
1.12341
1.13356
1.13313
1.13201
1.13123
1.12929
1.12548
1.12061
1.1149
1.10858
1.10649
1.1262
1.12957
1.12936
1.12848
1.12677
1.12364
1.11952
1.11444
1.10875
1.0846
1.11149
1.12437
1.12777
1.12758
1.12528
1.12218
1.11838
1.11397
1.10884
1.06273
1.08494
1.11169
1.12337
1.12723
1.12541
1.12156
1.11769
1.11381
1.10905
1.04694
1.05669
1.08409
1.11078
1.12382
1.12516
1.12158
1.1179
1.11429
1.10968
1.03673
1.03968
1.05217
1.08196
1.1101
1.1224
1.12155
1.11845
1.11502
1.11052
1.03003
1.0311
1.03434
1.04776
1.07845
1.10819
1.11948
1.1184
1.11573
1.11132
1.02561
1.02628
1.02716
1.03003
1.04316
1.07451
1.10508
1.1162
1.11547
1.11143
1.0228
1.02327
1.0238
1.02412
1.02643
1.03912
1.0701
1.10102
1.11389
1.11037
1.02073
1.02104
1.0214
1.02153
1.02156
1.02353
1.03532
1.06678
1.09807
1.10663
1.01895
1.01914
1.01933
1.01951
1.01943
1.01932
1.02102
1.03247
1.06373
1.0922
1.01748
1.01757
1.01766
1.01775
1.01781
1.0177
1.01753
1.01914
1.03033
1.06209
1.01642
1.01643
1.01641
1.01639
1.01643
1.01648
1.01632
1.01592
1.0176
1.03578
1.00647
1.02566
1.03288
1.0328
1.03132
1.02905
1.02694
1.02341
1.0332
1.12744
1.00647
1.02566
1.03289
1.03279
1.03133
1.02901
1.02701
1.02338
1.02897
1.11994
1.00647
1.02566
1.03289
1.03279
1.03135
1.02896
1.02711
1.02323
1.02578
1.11206
1.00647
1.02566
1.03289
1.03278
1.03136
1.02891
1.02718
1.02318
1.02362
1.10373
1.00647
1.02566
1.03289
1.03278
1.03138
1.02887
1.02724
1.02325
1.02234
1.09491
1.00647
1.02566
1.03289
1.03277
1.03139
1.02885
1.02726
1.02341
1.02162
1.0856
1.00647
1.02566
1.03289
1.03277
1.03139
1.02884
1.02724
1.02363
1.0211
1.07617
1.00647
1.02566
1.03289
1.03278
1.03139
1.02886
1.02719
1.02389
1.02071
1.06664
1.00647
1.02566
1.03289
1.03278
1.03138
1.02889
1.02711
1.02412
1.02067
1.0571
1.00647
1.02566
1.03288
1.03278
1.03137
1.02894
1.02701
1.02431
1.02069
1.04819
1.00647
1.02566
1.03288
1.03279
1.03135
1.029
1.0269
1.02445
1.02074
1.04062
1.00647
1.02566
1.03288
1.0328
1.03132
1.02906
1.02681
1.02451
1.02076
1.03453
1.00647
1.02566
1.03288
1.03281
1.0313
1.0291
1.02675
1.02453
1.02079
1.02978
1.00647
1.02566
1.03288
1.03281
1.03129
1.02913
1.02671
1.02456
1.02082
1.02619
1.00647
1.02566
1.03288
1.03282
1.03128
1.02914
1.02668
1.02462
1.02072
1.02358
1.00647
1.02566
1.03287
1.03282
1.03127
1.02916
1.02664
1.02468
1.02056
1.02172
1.00647
1.02566
1.03287
1.03282
1.03126
1.02918
1.0266
1.02475
1.02062
1.02024
1.00647
1.02566
1.03287
1.03282
1.03126
1.0292
1.02655
1.02482
1.02082
1.01878
1.00647
1.02566
1.03287
1.03282
1.03125
1.02922
1.02651
1.02486
1.02106
1.01804
1.00647
1.02566
1.03287
1.03283
1.03125
1.02923
1.02649
1.02488
1.02127
1.01779
1.00647
1.02566
1.03287
1.03283
1.03125
1.02923
1.02649
1.02488
1.02127
1.01779
1.00647
1.02566
1.03287
1.03282
1.03125
1.02922
1.02651
1.02486
1.02106
1.01804
1.00647
1.02566
1.03287
1.03282
1.03126
1.0292
1.02655
1.02482
1.02082
1.01878
1.00647
1.02566
1.03287
1.03282
1.03126
1.02918
1.0266
1.02475
1.02062
1.02024
1.00647
1.02566
1.03287
1.03282
1.03127
1.02916
1.02664
1.02468
1.02056
1.02172
1.00647
1.02566
1.03288
1.03282
1.03128
1.02914
1.02668
1.02462
1.02072
1.02358
1.00647
1.02566
1.03288
1.03281
1.03129
1.02913
1.02671
1.02456
1.02082
1.02619
1.00647
1.02566
1.03288
1.03281
1.0313
1.0291
1.02675
1.02453
1.02079
1.02978
1.00647
1.02566
1.03288
1.0328
1.03132
1.02906
1.02681
1.02451
1.02076
1.03453
1.00647
1.02566
1.03288
1.03279
1.03135
1.029
1.0269
1.02445
1.02074
1.04062
1.00647
1.02566
1.03288
1.03278
1.03137
1.02894
1.02701
1.02431
1.02069
1.04819
1.00647
1.02566
1.03289
1.03278
1.03138
1.02889
1.02711
1.02412
1.02067
1.0571
1.00647
1.02566
1.03289
1.03278
1.03139
1.02886
1.02719
1.02389
1.02071
1.06664
1.00647
1.02566
1.03289
1.03277
1.03139
1.02884
1.02724
1.02363
1.0211
1.07617
1.00647
1.02566
1.03289
1.03277
1.03139
1.02885
1.02726
1.02341
1.02162
1.0856
1.00647
1.02566
1.03289
1.03278
1.03138
1.02887
1.02724
1.02325
1.02234
1.09491
1.00647
1.02566
1.03289
1.03278
1.03136
1.02891
1.02718
1.02318
1.02362
1.10373
1.00647
1.02566
1.03289
1.03279
1.03135
1.02896
1.02711
1.02323
1.02578
1.11206
1.00647
1.02566
1.03289
1.03279
1.03133
1.02901
1.02701
1.02338
1.02897
1.11994
1.00647
1.02566
1.03288
1.0328
1.03132
1.02905
1.02694
1.02341
1.0332
1.12744
1.01642
1.01643
1.01641
1.01639
1.01643
1.01648
1.01632
1.01592
1.0176
1.03578
1.01748
1.01757
1.01766
1.01775
1.01781
1.0177
1.01753
1.01914
1.03033
1.06209
1.01895
1.01914
1.01933
1.01951
1.01943
1.01932
1.02102
1.03247
1.06373
1.0922
1.02073
1.02104
1.0214
1.02153
1.02156
1.02353
1.03532
1.06678
1.09807
1.10663
1.0228
1.02327
1.0238
1.02412
1.02643
1.03912
1.0701
1.10102
1.11389
1.11037
1.02561
1.02628
1.02716
1.03003
1.04316
1.07451
1.10508
1.1162
1.11547
1.11143
1.03003
1.0311
1.03434
1.04776
1.07845
1.10819
1.11948
1.1184
1.11573
1.11132
1.03673
1.03968
1.05217
1.08196
1.1101
1.1224
1.12155
1.11845
1.11502
1.11052
1.04694
1.05669
1.08409
1.11078
1.12382
1.12516
1.12158
1.1179
1.11429
1.10968
1.06273
1.08494
1.11169
1.12337
1.12723
1.12541
1.12156
1.11769
1.11381
1.10905
1.0846
1.11149
1.12437
1.12777
1.12758
1.12528
1.12218
1.11838
1.11397
1.10884
1.10649
1.1262
1.12957
1.12936
1.12848
1.12677
1.12364
1.11952
1.11444
1.10875
1.12341
1.13356
1.13313
1.13201
1.13123
1.12929
1.12548
1.12061
1.1149
1.10858
1.13612
1.13986
1.13784
1.1362
1.1349
1.13197
1.12735
1.12192
1.11572
1.10878
1.14626
1.1462
1.14335
1.14098
1.13852
1.13467
1.12947
1.12376
1.11707
1.10939
1.15386
1.15111
1.14793
1.14498
1.14149
1.13692
1.13162
1.12577
1.11863
1.11018
1.1597
1.15531
1.15194
1.14837
1.14417
1.1393
1.13388
1.12771
1.11999
1.11066
1.1631
1.15813
1.15475
1.1509
1.14658
1.14164
1.13602
1.12925
1.12089
1.11077
1.1653
1.16038
1.15695
1.15294
1.14855
1.14345
1.1376
1.13028
1.12134
1.1104
1.1667
1.16218
1.15891
1.15494
1.1506
1.14537
1.13922
1.13132
1.12182
1.10985
)
;

boundaryField
{
    inlet
    {
        type            fixedValue;
        value           uniform 1;
    }
    outlet
    {
        type            inletOutlet;
        inletValue      uniform 1;
        value           nonuniform List<scalar> 
100
(
0.998184
0.997189
0.996341
0.995918
0.996176
0.998684
1.0044
1.00923
1.0109
1.01117
1.00961
1.00411
0.996998
0.989058
0.980642
0.973243
0.967924
0.965146
0.964084
0.962085
1.00793
1.00727
1.00627
1.00513
1.00409
1.00337
1.00294
1.00255
1.00215
1.00177
1.00144
1.00113
1.00074
1.00027
0.999862
0.999679
0.999643
0.999591
0.999427
0.999067
1.00885
1.0105
1.01263
1.01501
1.0174
1.01931
1.02049
1.02123
1.02145
1.0215
1.0215
1.02145
1.02123
1.02049
1.01931
1.0174
1.01501
1.01263
1.0105
1.00885
0.999067
0.999427
0.999591
0.999643
0.999679
0.999862
1.00027
1.00074
1.00113
1.00144
1.00177
1.00215
1.00255
1.00294
1.00337
1.00409
1.00513
1.00627
1.00727
1.00793
0.962085
0.964084
0.965146
0.967924
0.973243
0.980642
0.989058
0.996998
1.00411
1.00961
1.01117
1.0109
1.00923
1.0044
0.998684
0.996176
0.995918
0.996341
0.997189
0.998184
)
;
    }
    triangle
    {
        type            zeroGradient;
    }
    top
    {
        type            symmetryPlane;
    }
    bottom
    {
        type            symmetryPlane;
    }
    defaultFaces
    {
        type            empty;
    }
}


// ************************************************************************* //
