/*--------------------------------*- C++ -*----------------------------------*\
  =========                 |
  \\      /  F ield         | OpenFOAM: The Open Source CFD Toolbox
   \\    /   O peration     | Website:  https://openfoam.org
    \\  /    A nd           | Version:  8
     \\/     M anipulation  |
\*---------------------------------------------------------------------------*/
FoamFile
{
    version     2.0;
    format      ascii;
    class       volVectorField;
    location    "0.6";
    object      U;
}
// * * * * * * * * * * * * * * * * * * * * * * * * * * * * * * * * * * * * * //

dimensions      [0 1 -1 0 0 0 0];

internalField   nonuniform List<vector> 
2600
(
(0.593593 0.0137011 0)
(1.05223 0.0935555 0)
(1.33783 0.186907 0)
(1.47951 0.245509 0)
(1.41593 0.201516 0)
(1.0982 0.149128 0)
(1.0022 0.0924012 0)
(0.999459 0.0477577 0)
(1.01318 0.0390875 0)
(1.03806 0.0231223 0)
(0.171319 -0.11581 0)
(0.644963 0.0460694 0)
(1.0954 0.153693 0)
(1.37395 0.223163 0)
(1.38514 0.195118 0)
(1.09529 0.157694 0)
(0.995151 0.0927684 0)
(0.994155 0.0479537 0)
(1.0074 0.038466 0)
(1.03389 0.0221841 0)
(-0.00558102 -0.116312 0)
(0.310597 0.00603841 0)
(0.789278 0.104894 0)
(1.18846 0.188221 0)
(1.31379 0.181892 0)
(1.0841 0.161177 0)
(0.986153 0.0912277 0)
(0.988255 0.0457747 0)
(1.00092 0.036809 0)
(1.02969 0.0208477 0)
(-0.0749189 -0.1323 0)
(0.101542 -0.0438646 0)
(0.470484 0.0495477 0)
(0.920006 0.13827 0)
(1.17024 0.154331 0)
(1.05041 0.159463 0)
(0.973963 0.085614 0)
(0.978588 0.045266 0)
(0.991815 0.0365671 0)
(1.02574 0.0195714 0)
(-0.116707 -0.124587 0)
(-0.0445581 -0.0680823 0)
(0.161051 0.00779036 0)
(0.575196 0.0912582 0)
(0.925416 0.132122 0)
(0.970069 0.158439 0)
(0.945386 0.0879094 0)
(0.958512 0.0433259 0)
(0.978133 0.033536 0)
(1.02289 0.0170872 0)
(-0.150168 -0.11607 0)
(-0.167345 -0.0791287 0)
(-0.124463 -0.0188196 0)
(0.187229 0.0353953 0)
(0.584176 0.0832197 0)
(0.818242 0.138412 0)
(0.880426 0.0821176 0)
(0.919667 0.0423823 0)
(0.957922 0.0328113 0)
(1.02113 0.0142137 0)
(-0.177927 -0.101042 0)
(-0.281493 -0.0695333 0)
(-0.355945 -0.0201896 0)
(-0.176029 0.0229167 0)
(0.209192 0.0765842 0)
(0.59313 0.11864 0)
(0.767534 0.0752896 0)
(0.860504 0.0392988 0)
(0.933928 0.0281423 0)
(1.01961 0.0112927 0)
(-0.200821 -0.0770401 0)
(-0.37238 -0.0571424 0)
(-0.510992 -0.0191023 0)
(-0.436032 0.000435415 0)
(-0.094652 0.0312815 0)
(0.35481 0.0856289 0)
(0.63027 0.0608902 0)
(0.79403 0.0321864 0)
(0.911258 0.0230419 0)
(1.02013 0.00804893 0)
(-0.218921 -0.0486278 0)
(-0.425179 -0.0360597 0)
(-0.592972 -0.0141302 0)
(-0.566526 0.000782542 0)
(-0.273301 0.0226899 0)
(0.179035 0.0594337 0)
(0.518398 0.0434805 0)
(0.741171 0.0227844 0)
(0.89595 0.0152888 0)
(1.02079 0.0047611 0)
(-0.228898 -0.0166371 0)
(-0.447994 -0.0131919 0)
(-0.619803 -0.00688671 0)
(-0.601384 0.00177492 0)
(-0.333165 0.00996628 0)
(0.101802 0.0238758 0)
(0.464683 0.0178567 0)
(0.715336 0.00941842 0)
(0.889057 0.00529437 0)
(1.02232 0.00163897 0)
(-0.228836 0.016631 0)
(-0.448178 0.0125797 0)
(-0.619271 0.00571123 0)
(-0.601265 -0.000107798 0)
(-0.333242 -0.0098201 0)
(0.101804 -0.0238644 0)
(0.464684 -0.0178598 0)
(0.715336 -0.00941862 0)
(0.889057 -0.00529453 0)
(1.02232 -0.00163898 0)
(-0.218963 0.0485935 0)
(-0.425296 0.0365485 0)
(-0.593176 0.0162663 0)
(-0.566534 -0.000697699 0)
(-0.273418 -0.0227783 0)
(0.179043 -0.0594375 0)
(0.5184 -0.0434808 0)
(0.741172 -0.0227849 0)
(0.89595 -0.0152889 0)
(1.02079 -0.00476112 0)
(-0.200828 0.0770117 0)
(-0.372431 0.0578882 0)
(-0.511247 0.0201919 0)
(-0.436364 -0.000192916 0)
(-0.094804 -0.0313419 0)
(0.354819 -0.0856756 0)
(0.630273 -0.0608909 0)
(0.794031 -0.0321864 0)
(0.911258 -0.023042 0)
(1.02013 -0.00804893 0)
(-0.177915 0.101016 0)
(-0.281438 0.0689269 0)
(-0.3556 0.019447 0)
(-0.175692 -0.0218507 0)
(0.209005 -0.076601 0)
(0.593139 -0.118631 0)
(0.767537 -0.0752909 0)
(0.860504 -0.0392986 0)
(0.933928 -0.0281423 0)
(1.01961 -0.0112927 0)
(-0.150168 0.116105 0)
(-0.167373 0.0784133 0)
(-0.124271 0.0165434 0)
(0.187364 -0.0412787 0)
(0.584127 -0.0832535 0)
(0.818246 -0.138403 0)
(0.880429 -0.0821176 0)
(0.919667 -0.0423824 0)
(0.957922 -0.0328115 0)
(1.02113 -0.0142137 0)
(-0.116722 0.124664 0)
(-0.0446732 0.0681833 0)
(0.160773 -0.00823893 0)
(0.575022 -0.0912551 0)
(0.925461 -0.132224 0)
(0.970086 -0.158417 0)
(0.945387 -0.0879016 0)
(0.958511 -0.043326 0)
(0.978133 -0.0335364 0)
(1.02289 -0.0170872 0)
(-0.0749135 0.132373 0)
(0.101399 0.0441877 0)
(0.470052 -0.0487043 0)
(0.919299 -0.136734 0)
(1.17032 -0.154024 0)
(1.05042 -0.159379 0)
(0.973962 -0.0856114 0)
(0.978587 -0.0452685 0)
(0.991815 -0.0365676 0)
(1.02574 -0.0195713 0)
(-0.00556515 0.116314 0)
(0.310492 -0.00579786 0)
(0.789007 -0.104175 0)
(1.18789 -0.18622 0)
(1.31382 -0.181284 0)
(1.0841 -0.161141 0)
(0.986146 -0.0912499 0)
(0.988254 -0.0457798 0)
(1.00092 -0.036809 0)
(1.02969 -0.0208474 0)
(0.171342 0.115721 0)
(0.645006 -0.0460705 0)
(1.09546 -0.153255 0)
(1.37401 -0.222767 0)
(1.38509 -0.195476 0)
(1.09528 -0.157758 0)
(0.995146 -0.092782 0)
(0.994156 -0.0479527 0)
(1.00741 -0.038465 0)
(1.03389 -0.022184 0)
(0.593625 -0.0137299 0)
(1.05231 -0.0936202 0)
(1.33801 -0.186925 0)
(1.47973 -0.24664 0)
(1.41579 -0.202122 0)
(1.09819 -0.1492 0)
(1.0022 -0.0924091 0)
(0.99946 -0.0477546 0)
(1.01318 -0.0390866 0)
(1.03806 -0.0231225 0)
(1.12839 0.0297708 0)
(1.39974 -0.107368 0)
(1.4913 -0.199308 0)
(1.53207 -0.265689 0)
(1.4283 -0.21884 0)
(1.1012 -0.144167 0)
(1.00808 -0.0934635 0)
(1.00453 -0.0505213 0)
(1.01915 -0.039637 0)
(1.04229 -0.0228711 0)
(1.26449 0.152315 0)
(1.5476 -0.0957456 0)
(1.55965 -0.206133 0)
(1.55749 -0.272066 0)
(1.44002 -0.233527 0)
(1.10479 -0.144318 0)
(1.01385 -0.0942978 0)
(1.01034 -0.051983 0)
(1.0253 -0.0389807 0)
(1.04624 -0.0223824 0)
(1.28474 0.178175 0)
(1.55051 -0.0998211 0)
(1.57499 -0.205172 0)
(1.56358 -0.275866 0)
(1.45232 -0.246671 0)
(1.10904 -0.146217 0)
(1.0199 -0.0954036 0)
(1.01589 -0.0540552 0)
(1.03034 -0.0408769 0)
(1.04912 -0.0235617 0)
(1.25686 0.210558 0)
(1.50883 -0.0580964 0)
(1.57725 -0.199935 0)
(1.56363 -0.281368 0)
(1.46312 -0.258762 0)
(1.11684 -0.147126 0)
(1.02659 -0.0957697 0)
(1.02176 -0.0549215 0)
(1.03491 -0.0423462 0)
(1.05157 -0.025029 0)
(1.23425 0.221209 0)
(1.47168 -0.03537 0)
(1.57644 -0.191416 0)
(1.56041 -0.282405 0)
(1.47156 -0.268539 0)
(1.12895 -0.149451 0)
(1.03409 -0.0960488 0)
(1.02752 -0.0563228 0)
(1.03888 -0.0444893 0)
(1.05356 -0.0270599 0)
(1.21178 0.230372 0)
(1.4336 0.00282927 0)
(1.56438 -0.181821 0)
(1.558 -0.282326 0)
(1.48003 -0.278466 0)
(1.14493 -0.153248 0)
(1.04216 -0.0960641 0)
(1.03342 -0.0569157 0)
(1.04277 -0.0458677 0)
(1.05552 -0.0284775 0)
(1.19065 0.235328 0)
(1.40798 0.0232376 0)
(1.54273 -0.162739 0)
(1.55551 -0.273567 0)
(1.48998 -0.285089 0)
(1.16337 -0.157411 0)
(1.05034 -0.0961744 0)
(1.03898 -0.0578256 0)
(1.04636 -0.0468269 0)
(1.05727 -0.0293319 0)
(1.1717 0.236605 0)
(1.37858 0.0513007 0)
(1.51943 -0.140325 0)
(1.55371 -0.269341 0)
(1.49527 -0.292199 0)
(1.18051 -0.1613 0)
(1.05793 -0.096275 0)
(1.04405 -0.0583819 0)
(1.04967 -0.0477307 0)
(1.05894 -0.0301583 0)
(1.15303 0.237766 0)
(1.35662 0.0666176 0)
(1.49875 -0.117062 0)
(1.54557 -0.255222 0)
(1.49739 -0.297054 0)
(1.19643 -0.165017 0)
(1.06458 -0.0966899 0)
(1.04847 -0.0597383 0)
(1.0526 -0.0490734 0)
(1.06058 -0.0308914 0)
(1.13697 0.236307 0)
(1.33264 0.0836935 0)
(1.47823 -0.0893093 0)
(1.53964 -0.246178 0)
(1.49942 -0.301134 0)
(1.21249 -0.169007 0)
(1.07053 -0.0979769 0)
(1.0521 -0.0619788 0)
(1.0552 -0.0506083 0)
(1.06213 -0.0313964 0)
(1.12227 0.234692 0)
(1.31109 0.0955793 0)
(1.46246 -0.0677332 0)
(1.52663 -0.227732 0)
(1.49743 -0.2992 0)
(1.22804 -0.173084 0)
(1.07606 -0.0998718 0)
(1.05507 -0.0646708 0)
(1.05755 -0.0518498 0)
(1.06357 -0.0315384 0)
(1.10928 0.232205 0)
(1.29156 0.104865 0)
(1.4429 -0.0417949 0)
(1.51465 -0.209264 0)
(1.48737 -0.298266 0)
(1.24155 -0.177609 0)
(1.08133 -0.102338 0)
(1.05796 -0.0673207 0)
(1.05976 -0.0528484 0)
(1.06499 -0.0316265 0)
(1.09788 0.229284 0)
(1.27243 0.114394 0)
(1.42494 -0.0243269 0)
(1.51801 -0.195584 0)
(1.46931 -0.290699 0)
(1.25699 -0.184647 0)
(1.08831 -0.10463 0)
(1.0614 -0.0695671 0)
(1.06209 -0.0540124 0)
(1.06647 -0.032106 0)
(1.0877 0.226023 0)
(1.25746 0.120203 0)
(1.39876 -0.00434853 0)
(1.52672 -0.17937 0)
(1.44849 -0.27975 0)
(1.27099 -0.191682 0)
(1.09578 -0.1073 0)
(1.0656 -0.0715618 0)
(1.06464 -0.0555496 0)
(1.06792 -0.0330498 0)
(1.07893 0.222789 0)
(1.24255 0.127283 0)
(1.37816 0.00682643 0)
(1.52155 -0.159085 0)
(1.44111 -0.266048 0)
(1.28478 -0.199569 0)
(1.10331 -0.110746 0)
(1.07023 -0.0736645 0)
(1.06742 -0.057135 0)
(1.06941 -0.0340612 0)
(1.07076 0.219242 0)
(1.23024 0.13171 0)
(1.3578 0.0196038 0)
(1.50462 -0.140601 0)
(1.44191 -0.255293 0)
(1.29924 -0.204778 0)
(1.11119 -0.114617 0)
(1.07486 -0.0757442 0)
(1.07047 -0.0579932 0)
(1.071 -0.0344653 0)
(1.06417 0.21601 0)
(1.2185 0.136116 0)
(1.34166 0.029215 0)
(1.48249 -0.123849 0)
(1.44004 -0.24019 0)
(1.31394 -0.205979 0)
(1.11968 -0.118408 0)
(1.07901 -0.077484 0)
(1.07353 -0.058197 0)
(1.07271 -0.0344714 0)
(1.05791 0.212456 0)
(1.20755 0.139503 0)
(1.32775 0.0384471 0)
(1.45922 -0.106825 0)
(1.43422 -0.225952 0)
(1.3252 -0.206315 0)
(1.12867 -0.120771 0)
(1.08258 -0.0785021 0)
(1.07621 -0.0578624 0)
(1.07429 -0.0343699 0)
(1.05293 0.209136 0)
(1.19752 0.142031 0)
(1.31481 0.0466492 0)
(1.43915 -0.0922392 0)
(1.42869 -0.214656 0)
(1.33196 -0.205688 0)
(1.13691 -0.121707 0)
(1.08538 -0.0793078 0)
(1.07828 -0.0573512 0)
(1.07566 -0.0342086 0)
(1.04905 0.206016 0)
(1.18809 0.144206 0)
(1.302 0.0542917 0)
(1.4198 -0.0766229 0)
(1.4216 -0.202662 0)
(1.33526 -0.204665 0)
(1.14526 -0.122769 0)
(1.08804 -0.0799007 0)
(1.08033 -0.0577118 0)
(1.07694 -0.0345734 0)
(0.352654 0.119309 0)
(0.418523 0.15093 0)
(0.457305 0.200358 0)
(0.501221 0.237214 0)
(0.5413 0.269672 0)
(0.582378 0.29777 0)
(0.626394 0.325836 0)
(0.67948 0.353811 0)
(0.749948 0.390513 0)
(0.873879 0.425688 0)
(0.379732 0.14489 0)
(0.429711 0.163168 0)
(0.45785 0.20201 0)
(0.498807 0.23507 0)
(0.537808 0.267092 0)
(0.579708 0.295399 0)
(0.624684 0.323634 0)
(0.679478 0.352582 0)
(0.751735 0.389411 0)
(0.873689 0.418545 0)
(0.429885 0.137977 0)
(0.468432 0.149263 0)
(0.486878 0.179436 0)
(0.51955 0.209519 0)
(0.552315 0.242294 0)
(0.591984 0.272502 0)
(0.637054 0.303254 0)
(0.693404 0.333724 0)
(0.768842 0.371749 0)
(0.894271 0.390593 0)
(0.480404 0.145653 0)
(0.513173 0.162178 0)
(0.52658 0.189905 0)
(0.555114 0.212784 0)
(0.582726 0.239314 0)
(0.618259 0.265158 0)
(0.659458 0.29318 0)
(0.712012 0.320758 0)
(0.784521 0.354614 0)
(0.902963 0.366599 0)
(0.526475 0.143301 0)
(0.554615 0.158947 0)
(0.565967 0.185196 0)
(0.592552 0.207435 0)
(0.616241 0.233879 0)
(0.648751 0.258915 0)
(0.686977 0.285744 0)
(0.737252 0.311705 0)
(0.807779 0.343199 0)
(0.92238 0.350155 0)
(0.567474 0.145009 0)
(0.590999 0.160468 0)
(0.600364 0.185314 0)
(0.624975 0.20617 0)
(0.646108 0.23104 0)
(0.676879 0.254066 0)
(0.712963 0.279109 0)
(0.760974 0.302868 0)
(0.828625 0.331785 0)
(0.936166 0.335327 0)
(0.6041 0.145218 0)
(0.623253 0.159369 0)
(0.630682 0.181485 0)
(0.652683 0.200558 0)
(0.671187 0.224055 0)
(0.700234 0.245865 0)
(0.734243 0.269837 0)
(0.779922 0.292256 0)
(0.843981 0.318988 0)
(0.945052 0.321975 0)
(0.636805 0.147206 0)
(0.652482 0.160367 0)
(0.658723 0.180362 0)
(0.678404 0.197971 0)
(0.694897 0.219763 0)
(0.722265 0.239695 0)
(0.753947 0.262 0)
(0.79686 0.282798 0)
(0.856695 0.306978 0)
(0.949939 0.309587 0)
(0.666061 0.148557 0)
(0.67897 0.160506 0)
(0.6843 0.178285 0)
(0.701778 0.194391 0)
(0.716591 0.214501 0)
(0.742254 0.23295 0)
(0.771498 0.25402 0)
(0.811557 0.273679 0)
(0.867195 0.295634 0)
(0.952816 0.298364 0)
(0.692355 0.150564 0)
(0.703191 0.161393 0)
(0.707957 0.177245 0)
(0.723588 0.192026 0)
(0.737144 0.21047 0)
(0.761046 0.227475 0)
(0.787738 0.247223 0)
(0.824817 0.265615 0)
(0.876361 0.285321 0)
(0.954689 0.288002 0)
(0.716091 0.15192 0)
(0.725319 0.161651 0)
(0.729614 0.175722 0)
(0.743589 0.189286 0)
(0.755958 0.206218 0)
(0.777867 0.222204 0)
(0.802023 0.240883 0)
(0.836269 0.258134 0)
(0.884029 0.275831 0)
(0.955527 0.278494 0)
(0.737642 0.153478 0)
(0.745601 0.162255 0)
(0.749552 0.17474 0)
(0.76206 0.187249 0)
(0.773217 0.202839 0)
(0.792864 0.21797 0)
(0.81467 0.235464 0)
(0.846323 0.251391 0)
(0.890554 0.267157 0)
(0.955966 0.269819 0)
(0.757215 0.154588 0)
(0.764023 0.162653 0)
(0.767544 0.173829 0)
(0.778528 0.18558 0)
(0.788317 0.200075 0)
(0.805623 0.214411 0)
(0.825531 0.230618 0)
(0.855047 0.245142 0)
(0.89616 0.259144 0)
(0.956255 0.261805 0)
(0.775106 0.155484 0)
(0.780697 0.16316 0)
(0.783384 0.17345 0)
(0.792536 0.184736 0)
(0.80096 0.198171 0)
(0.816271 0.211442 0)
(0.834858 0.226182 0)
(0.862694 0.23923 0)
(0.901044 0.251633 0)
(0.956482 0.254321 0)
(0.790807 0.155446 0)
(0.795122 0.163027 0)
(0.796417 0.172917 0)
(0.803652 0.184017 0)
(0.811167 0.19653 0)
(0.825295 0.208631 0)
(0.843131 0.221937 0)
(0.869679 0.233591 0)
(0.905616 0.244566 0)
(0.957072 0.247295 0)
(0.802587 0.158305 0)
(0.806112 0.1656 0)
(0.806347 0.174573 0)
(0.812541 0.184535 0)
(0.819972 0.195449 0)
(0.833607 0.206094 0)
(0.850908 0.217976 0)
(0.876257 0.228295 0)
(0.909973 0.238003 0)
(0.957455 0.24068 0)
(0.807933 0.164438 0)
(0.812162 0.170353 0)
(0.813325 0.177262 0)
(0.820047 0.184968 0)
(0.827965 0.194055 0)
(0.841322 0.203391 0)
(0.858073 0.214034 0)
(0.882295 0.223231 0)
(0.91393 0.231826 0)
(0.958332 0.234647 0)
(0.809468 0.169846 0)
(0.816727 0.174046 0)
(0.819674 0.178979 0)
(0.827185 0.185217 0)
(0.835687 0.193047 0)
(0.848862 0.201235 0)
(0.865122 0.210687 0)
(0.888225 0.218804 0)
(0.917995 0.226373 0)
(0.958877 0.229078 0)
(0.812445 0.172841 0)
(0.821451 0.175811 0)
(0.825844 0.179789 0)
(0.83388 0.185052 0)
(0.842699 0.191781 0)
(0.85561 0.198953 0)
(0.871338 0.207332 0)
(0.893296 0.214506 0)
(0.921189 0.221153 0)
(0.959478 0.224029 0)
(0.816447 0.173939 0)
(0.826325 0.176432 0)
(0.831683 0.179985 0)
(0.839996 0.184679 0)
(0.849011 0.190591 0)
(0.861671 0.196808 0)
(0.877025 0.204197 0)
(0.898143 0.210667 0)
(0.924703 0.21665 0)
(0.960213 0.219514 0)
(1.27141 1.58818e-09 0)
(1.21435 1.62612e-08 0)
(1.18906 1.90557e-06 0)
(1.1818 -4.56101e-06 0)
(1.17657 4.61999e-06 0)
(1.17174 2.38553e-06 0)
(1.16627 -1.73992e-05 0)
(1.16177 -0.000156464 0)
(0.961719 0.00586693 0)
(0.442312 0.0143863 0)
(1.27141 1.25182e-09 0)
(1.21435 1.00984e-07 0)
(1.18906 5.51718e-06 0)
(1.1818 -1.35249e-05 0)
(1.17657 1.41975e-05 0)
(1.17172 5.10477e-06 0)
(1.16638 -6.01524e-05 0)
(1.16151 -0.000242379 0)
(0.967774 0.0166783 0)
(0.467858 0.0403558 0)
(1.27141 1.22301e-08 0)
(1.21435 1.6741e-07 0)
(1.18906 9.13778e-06 0)
(1.1818 -2.24516e-05 0)
(1.17658 2.33901e-05 0)
(1.17167 2.13485e-07 0)
(1.16662 -4.79298e-05 0)
(1.16094 -0.000376713 0)
(0.974857 0.0251253 0)
(0.503224 0.0608216 0)
(1.27141 1.60135e-08 0)
(1.21435 2.41436e-07 0)
(1.18906 1.27366e-05 0)
(1.1818 -3.14126e-05 0)
(1.17659 3.2017e-05 0)
(1.17159 4.72897e-06 0)
(1.16693 -8.61716e-05 0)
(1.16006 -0.000439206 0)
(0.980729 0.033182 0)
(0.538926 0.0797272 0)
(1.27141 2.87109e-08 0)
(1.21435 2.97509e-07 0)
(1.18906 1.63027e-05 0)
(1.1818 -4.05993e-05 0)
(1.1766 4.37103e-05 0)
(1.17153 -4.13826e-06 0)
(1.1672 -7.4837e-05 0)
(1.159 -0.000456227 0)
(0.988049 0.039688 0)
(0.574309 0.0930966 0)
(1.27141 4.41275e-08 0)
(1.21435 3.42283e-07 0)
(1.18906 1.97867e-05 0)
(1.1818 -4.96901e-05 0)
(1.17661 5.48865e-05 0)
(1.17149 -7.37609e-06 0)
(1.16738 -7.71345e-05 0)
(1.15801 -0.000522476 0)
(0.996477 0.0450287 0)
(0.606994 0.105023 0)
(1.27141 6.49759e-08 0)
(1.21435 3.73751e-07 0)
(1.18906 2.32069e-05 0)
(1.1818 -5.89863e-05 0)
(1.17661 6.80555e-05 0)
(1.17147 -2.19125e-05 0)
(1.16747 -7.31163e-05 0)
(1.15733 -0.000388287 0)
(1.00589 0.0490448 0)
(0.637245 0.113723 0)
(1.27141 9.18286e-08 0)
(1.21436 3.89518e-07 0)
(1.18906 2.6476e-05 0)
(1.1818 -6.8048e-05 0)
(1.17661 8.09944e-05 0)
(1.17146 -3.52937e-05 0)
(1.16749 -5.38424e-05 0)
(1.15701 -0.000523693 0)
(1.0159 0.0519593 0)
(0.664363 0.121239 0)
(1.27141 1.25632e-07 0)
(1.21436 3.85875e-07 0)
(1.18905 2.96449e-05 0)
(1.1818 -7.7136e-05 0)
(1.1766 9.47306e-05 0)
(1.17146 -5.21149e-05 0)
(1.16749 -3.87942e-05 0)
(1.15692 -0.000352153 0)
(1.02626 0.0539385 0)
(0.688769 0.126776 0)
(1.27141 1.67269e-07 0)
(1.21436 3.59227e-07 0)
(1.18905 3.26675e-05 0)
(1.18181 -8.61754e-05 0)
(1.17659 0.000110166 0)
(1.17148 -6.966e-05 0)
(1.16746 -2.0466e-05 0)
(1.15691 -0.000274976 0)
(1.03681 0.0551809 0)
(0.71062 0.131217 0)
(1.27141 2.17047e-07 0)
(1.21436 3.07823e-07 0)
(1.18905 3.55548e-05 0)
(1.18181 -9.51933e-05 0)
(1.17657 0.00012666 0)
(1.1715 -9.09937e-05 0)
(1.16744 3.61896e-06 0)
(1.15688 -0.000222631 0)
(1.04747 0.0557224 0)
(0.730401 0.134334 0)
(1.27141 2.75163e-07 0)
(1.21436 2.31465e-07 0)
(1.18905 3.82671e-05 0)
(1.18181 -0.000104081 0)
(1.17656 0.000144307 0)
(1.17152 -0.000116771 0)
(1.16741 3.01218e-05 0)
(1.15688 -0.000184893 0)
(1.05825 0.0556136 0)
(0.748434 0.136505 0)
(1.27141 3.41115e-07 0)
(1.21436 1.31409e-07 0)
(1.18905 4.07525e-05 0)
(1.18182 -0.000112635 0)
(1.17655 0.000162566 0)
(1.17156 -0.00014589 0)
(1.16737 6.02108e-05 0)
(1.15691 -0.000152152 0)
(1.06919 0.0548692 0)
(0.765116 0.137607 0)
(1.27141 4.14844e-07 0)
(1.21436 9.03155e-09 0)
(1.18904 4.29377e-05 0)
(1.18182 -0.000120581 0)
(1.17653 0.000180948 0)
(1.17159 -0.00017864 0)
(1.16732 0.000101681 0)
(1.15696 -0.00014026 0)
(1.08031 0.0536188 0)
(0.780773 0.138071 0)
(1.27141 4.95255e-07 0)
(1.21436 -1.33044e-07 0)
(1.18904 4.47564e-05 0)
(1.18183 -0.000127665 0)
(1.17651 0.000198844 0)
(1.17164 -0.000213899 0)
(1.16724 0.00015498 0)
(1.15704 -0.00015555 0)
(1.09161 0.051741 0)
(0.795652 0.137937 0)
(1.27141 5.84485e-07 0)
(1.21436 -2.96187e-07 0)
(1.18904 4.61658e-05 0)
(1.18183 -0.000133745 0)
(1.17649 0.000216105 0)
(1.17169 -0.000252454 0)
(1.16714 0.000225178 0)
(1.15716 -0.000209648 0)
(1.10282 0.0487687 0)
(0.81001 0.13687 0)
(1.27141 6.7756e-07 0)
(1.21437 -4.73474e-07 0)
(1.18904 4.71515e-05 0)
(1.18183 -0.0001388 0)
(1.17647 0.000232844 0)
(1.17174 -0.000295016 0)
(1.16701 0.000318024 0)
(1.15734 -0.000303096 0)
(1.11321 0.0445847 0)
(0.82459 0.135534 0)
(1.27141 7.83095e-07 0)
(1.21437 -6.78566e-07 0)
(1.18904 4.77623e-05 0)
(1.18184 -0.000142894 0)
(1.17645 0.000249374 0)
(1.17181 -0.000342025 0)
(1.16684 0.000432491 0)
(1.15762 -0.000442437 0)
(1.12221 0.0395746 0)
(0.839543 0.134387 0)
(1.27141 8.85045e-07 0)
(1.21437 -8.93307e-07 0)
(1.18904 4.79748e-05 0)
(1.18184 -0.000146078 0)
(1.17643 0.000265764 0)
(1.17187 -0.000393905 0)
(1.16663 0.00057388 0)
(1.158 -0.000657882 0)
(1.12973 0.0341471 0)
(0.854778 0.133373 0)
(1.27141 9.85392e-07 0)
(1.21437 -1.13679e-06 0)
(1.18903 4.78596e-05 0)
(1.18184 -0.00014829 0)
(1.17642 0.000281468 0)
(1.17194 -0.000448535 0)
(1.16639 0.000729242 0)
(1.15849 -0.000955979 0)
(1.13575 0.028568 0)
(0.870548 0.132261 0)
(1.27141 -9.85392e-07 0)
(1.21437 1.13679e-06 0)
(1.18903 -4.78596e-05 0)
(1.18184 0.00014829 0)
(1.17642 -0.000281468 0)
(1.17194 0.000448535 0)
(1.16639 -0.000729242 0)
(1.15849 0.000955979 0)
(1.13575 -0.028568 0)
(0.870548 -0.132261 0)
(1.27141 -8.85045e-07 0)
(1.21437 8.93307e-07 0)
(1.18904 -4.79749e-05 0)
(1.18184 0.000146078 0)
(1.17643 -0.000265765 0)
(1.17187 0.000393905 0)
(1.16663 -0.00057388 0)
(1.158 0.000657882 0)
(1.12973 -0.0341471 0)
(0.854778 -0.133373 0)
(1.27141 -7.83096e-07 0)
(1.21437 6.78567e-07 0)
(1.18904 -4.77623e-05 0)
(1.18184 0.000142894 0)
(1.17645 -0.000249374 0)
(1.17181 0.000342025 0)
(1.16684 -0.000432491 0)
(1.15762 0.000442437 0)
(1.12221 -0.0395746 0)
(0.839543 -0.134387 0)
(1.27141 -6.7756e-07 0)
(1.21437 4.73474e-07 0)
(1.18904 -4.71516e-05 0)
(1.18183 0.0001388 0)
(1.17647 -0.000232844 0)
(1.17174 0.000295016 0)
(1.16701 -0.000318024 0)
(1.15734 0.000303096 0)
(1.11321 -0.0445847 0)
(0.82459 -0.135534 0)
(1.27141 -5.84485e-07 0)
(1.21436 2.96188e-07 0)
(1.18904 -4.61658e-05 0)
(1.18183 0.000133745 0)
(1.17649 -0.000216105 0)
(1.17169 0.000252454 0)
(1.16714 -0.000225178 0)
(1.15716 0.000209648 0)
(1.10282 -0.0487687 0)
(0.81001 -0.13687 0)
(1.27141 -4.95255e-07 0)
(1.21436 1.33044e-07 0)
(1.18904 -4.47564e-05 0)
(1.18183 0.000127665 0)
(1.17651 -0.000198844 0)
(1.17164 0.000213899 0)
(1.16724 -0.00015498 0)
(1.15704 0.000155551 0)
(1.09161 -0.051741 0)
(0.795652 -0.137937 0)
(1.27141 -4.14845e-07 0)
(1.21436 -9.0305e-09 0)
(1.18904 -4.29377e-05 0)
(1.18182 0.000120581 0)
(1.17653 -0.000180948 0)
(1.17159 0.00017864 0)
(1.16732 -0.000101682 0)
(1.15696 0.00014026 0)
(1.08031 -0.0536188 0)
(0.780773 -0.138071 0)
(1.27141 -3.41115e-07 0)
(1.21436 -1.31408e-07 0)
(1.18905 -4.07525e-05 0)
(1.18182 0.000112635 0)
(1.17655 -0.000162566 0)
(1.17156 0.00014589 0)
(1.16737 -6.02109e-05 0)
(1.15691 0.000152152 0)
(1.06919 -0.0548692 0)
(0.765116 -0.137607 0)
(1.27141 -2.75164e-07 0)
(1.21436 -2.31465e-07 0)
(1.18905 -3.82671e-05 0)
(1.18181 0.000104082 0)
(1.17656 -0.000144307 0)
(1.17152 0.000116771 0)
(1.16741 -3.01219e-05 0)
(1.15688 0.000184893 0)
(1.05825 -0.0556136 0)
(0.748434 -0.136505 0)
(1.27141 -2.17047e-07 0)
(1.21436 -3.07822e-07 0)
(1.18905 -3.55548e-05 0)
(1.18181 9.51934e-05 0)
(1.17657 -0.00012666 0)
(1.1715 9.09936e-05 0)
(1.16744 -3.61885e-06 0)
(1.15688 0.000222631 0)
(1.04747 -0.0557224 0)
(0.730401 -0.134334 0)
(1.27141 -1.67269e-07 0)
(1.21436 -3.59226e-07 0)
(1.18905 -3.26675e-05 0)
(1.18181 8.61754e-05 0)
(1.17659 -0.000110166 0)
(1.17148 6.96599e-05 0)
(1.16746 2.04663e-05 0)
(1.15691 0.000274977 0)
(1.03681 -0.0551809 0)
(0.71062 -0.131217 0)
(1.27141 -1.25632e-07 0)
(1.21436 -3.85874e-07 0)
(1.18905 -2.9645e-05 0)
(1.1818 7.7136e-05 0)
(1.1766 -9.47305e-05 0)
(1.17146 5.21148e-05 0)
(1.16749 3.87946e-05 0)
(1.15692 0.000352153 0)
(1.02626 -0.0539385 0)
(0.688769 -0.126776 0)
(1.27141 -9.18291e-08 0)
(1.21436 -3.89518e-07 0)
(1.18906 -2.6476e-05 0)
(1.1818 6.8048e-05 0)
(1.17661 -8.09944e-05 0)
(1.17146 3.52936e-05 0)
(1.16749 5.38428e-05 0)
(1.15701 0.000523693 0)
(1.0159 -0.0519593 0)
(0.664363 -0.121239 0)
(1.27141 -6.49764e-08 0)
(1.21435 -3.7375e-07 0)
(1.18906 -2.32069e-05 0)
(1.1818 5.89863e-05 0)
(1.17661 -6.80556e-05 0)
(1.17147 2.19126e-05 0)
(1.16747 7.31161e-05 0)
(1.15733 0.000388287 0)
(1.00589 -0.0490448 0)
(0.637245 -0.113723 0)
(1.27141 -4.41274e-08 0)
(1.21435 -3.42283e-07 0)
(1.18906 -1.97868e-05 0)
(1.1818 4.96901e-05 0)
(1.17661 -5.48866e-05 0)
(1.17149 7.37643e-06 0)
(1.16738 7.71337e-05 0)
(1.15801 0.000522475 0)
(0.996477 -0.0450287 0)
(0.606994 -0.105023 0)
(1.27141 -2.8711e-08 0)
(1.21435 -2.97508e-07 0)
(1.18906 -1.63027e-05 0)
(1.1818 4.05993e-05 0)
(1.1766 -4.37104e-05 0)
(1.17153 4.13813e-06 0)
(1.1672 7.48341e-05 0)
(1.159 0.000456226 0)
(0.988049 -0.039688 0)
(0.574309 -0.0930966 0)
(1.27141 -1.6014e-08 0)
(1.21435 -2.41435e-07 0)
(1.18906 -1.27366e-05 0)
(1.1818 3.14126e-05 0)
(1.17659 -3.20171e-05 0)
(1.17159 -4.72798e-06 0)
(1.16693 8.61624e-05 0)
(1.16006 0.000439204 0)
(0.980729 -0.033182 0)
(0.538926 -0.0797272 0)
(1.27141 -1.22305e-08 0)
(1.21435 -1.6741e-07 0)
(1.18906 -9.13779e-06 0)
(1.1818 2.24516e-05 0)
(1.17658 -2.33901e-05 0)
(1.17167 -2.20871e-07 0)
(1.16662 4.79391e-05 0)
(1.16094 0.000376717 0)
(0.974857 -0.0251253 0)
(0.503224 -0.0608216 0)
(1.27141 -1.25213e-09 0)
(1.21435 -1.00984e-07 0)
(1.18906 -5.51718e-06 0)
(1.1818 1.3525e-05 0)
(1.17657 -1.42003e-05 0)
(1.17172 -5.00735e-06 0)
(1.16638 6.01383e-05 0)
(1.16151 0.000242378 0)
(0.967774 -0.0166783 0)
(0.467858 -0.0403558 0)
(1.27141 -1.58828e-09 0)
(1.21435 -1.62612e-08 0)
(1.18906 -1.90557e-06 0)
(1.1818 4.56095e-06 0)
(1.17657 -4.61712e-06 0)
(1.17174 -2.47615e-06 0)
(1.16627 1.74153e-05 0)
(1.16177 0.000156464 0)
(0.961719 -0.00586692 0)
(0.442312 -0.0143863 0)
(0.816447 -0.173939 0)
(0.826325 -0.176432 0)
(0.831683 -0.179985 0)
(0.839996 -0.184679 0)
(0.849011 -0.190591 0)
(0.861671 -0.196808 0)
(0.877025 -0.204197 0)
(0.898143 -0.210667 0)
(0.924703 -0.21665 0)
(0.960213 -0.219514 0)
(0.812445 -0.172841 0)
(0.821451 -0.175811 0)
(0.825844 -0.179789 0)
(0.83388 -0.185052 0)
(0.842699 -0.191781 0)
(0.85561 -0.198953 0)
(0.871338 -0.207332 0)
(0.893296 -0.214506 0)
(0.921189 -0.221153 0)
(0.959478 -0.224029 0)
(0.809468 -0.169846 0)
(0.816727 -0.174046 0)
(0.819674 -0.178979 0)
(0.827185 -0.185217 0)
(0.835687 -0.193047 0)
(0.848862 -0.201235 0)
(0.865122 -0.210687 0)
(0.888225 -0.218804 0)
(0.917995 -0.226373 0)
(0.958877 -0.229078 0)
(0.807933 -0.164438 0)
(0.812162 -0.170353 0)
(0.813325 -0.177262 0)
(0.820047 -0.184968 0)
(0.827965 -0.194055 0)
(0.841322 -0.203391 0)
(0.858073 -0.214034 0)
(0.882295 -0.223231 0)
(0.91393 -0.231826 0)
(0.958332 -0.234647 0)
(0.802587 -0.158305 0)
(0.806112 -0.1656 0)
(0.806347 -0.174573 0)
(0.812541 -0.184535 0)
(0.819972 -0.195449 0)
(0.833607 -0.206094 0)
(0.850908 -0.217976 0)
(0.876257 -0.228295 0)
(0.909973 -0.238003 0)
(0.957455 -0.24068 0)
(0.790807 -0.155446 0)
(0.795122 -0.163027 0)
(0.796417 -0.172917 0)
(0.803652 -0.184017 0)
(0.811167 -0.19653 0)
(0.825295 -0.208631 0)
(0.843131 -0.221937 0)
(0.869679 -0.233591 0)
(0.905616 -0.244566 0)
(0.957072 -0.247295 0)
(0.775106 -0.155484 0)
(0.780697 -0.16316 0)
(0.783384 -0.17345 0)
(0.792536 -0.184736 0)
(0.80096 -0.198171 0)
(0.816271 -0.211442 0)
(0.834858 -0.226182 0)
(0.862694 -0.23923 0)
(0.901044 -0.251633 0)
(0.956482 -0.254321 0)
(0.757215 -0.154588 0)
(0.764023 -0.162653 0)
(0.767544 -0.173829 0)
(0.778528 -0.18558 0)
(0.788317 -0.200075 0)
(0.805623 -0.214411 0)
(0.825531 -0.230618 0)
(0.855047 -0.245142 0)
(0.89616 -0.259144 0)
(0.956255 -0.261805 0)
(0.737642 -0.153478 0)
(0.745601 -0.162255 0)
(0.749552 -0.17474 0)
(0.76206 -0.187249 0)
(0.773217 -0.202839 0)
(0.792864 -0.21797 0)
(0.81467 -0.235464 0)
(0.846323 -0.251391 0)
(0.890554 -0.267157 0)
(0.955966 -0.269819 0)
(0.716091 -0.15192 0)
(0.725319 -0.161651 0)
(0.729614 -0.175722 0)
(0.743589 -0.189286 0)
(0.755958 -0.206218 0)
(0.777867 -0.222204 0)
(0.802023 -0.240883 0)
(0.836269 -0.258134 0)
(0.884029 -0.275831 0)
(0.955527 -0.278494 0)
(0.692355 -0.150564 0)
(0.703191 -0.161393 0)
(0.707957 -0.177245 0)
(0.723588 -0.192026 0)
(0.737144 -0.21047 0)
(0.761046 -0.227475 0)
(0.787738 -0.247223 0)
(0.824817 -0.265615 0)
(0.876361 -0.285321 0)
(0.954689 -0.288002 0)
(0.666061 -0.148557 0)
(0.67897 -0.160506 0)
(0.6843 -0.178285 0)
(0.701778 -0.194391 0)
(0.716591 -0.214501 0)
(0.742254 -0.23295 0)
(0.771498 -0.25402 0)
(0.811557 -0.273679 0)
(0.867195 -0.295634 0)
(0.952816 -0.298364 0)
(0.636805 -0.147206 0)
(0.652482 -0.160367 0)
(0.658723 -0.180362 0)
(0.678404 -0.197971 0)
(0.694897 -0.219763 0)
(0.722265 -0.239695 0)
(0.753947 -0.262 0)
(0.79686 -0.282798 0)
(0.856695 -0.306978 0)
(0.949939 -0.309587 0)
(0.6041 -0.145218 0)
(0.623253 -0.159369 0)
(0.630682 -0.181485 0)
(0.652683 -0.200558 0)
(0.671187 -0.224055 0)
(0.700234 -0.245865 0)
(0.734243 -0.269837 0)
(0.779922 -0.292256 0)
(0.843981 -0.318988 0)
(0.945052 -0.321975 0)
(0.567474 -0.145009 0)
(0.590999 -0.160468 0)
(0.600364 -0.185314 0)
(0.624975 -0.20617 0)
(0.646108 -0.23104 0)
(0.676879 -0.254066 0)
(0.712963 -0.279109 0)
(0.760974 -0.302868 0)
(0.828625 -0.331785 0)
(0.936165 -0.335327 0)
(0.526475 -0.143301 0)
(0.554615 -0.158947 0)
(0.565967 -0.185196 0)
(0.592552 -0.207435 0)
(0.616241 -0.233879 0)
(0.648751 -0.258915 0)
(0.686977 -0.285744 0)
(0.737252 -0.311705 0)
(0.807779 -0.343199 0)
(0.92238 -0.350155 0)
(0.480404 -0.145653 0)
(0.513173 -0.162178 0)
(0.52658 -0.189905 0)
(0.555114 -0.212784 0)
(0.582726 -0.239314 0)
(0.618259 -0.265158 0)
(0.659458 -0.29318 0)
(0.712012 -0.320758 0)
(0.784521 -0.354614 0)
(0.902963 -0.366599 0)
(0.429885 -0.137977 0)
(0.468432 -0.149263 0)
(0.486878 -0.179436 0)
(0.51955 -0.209519 0)
(0.552315 -0.242294 0)
(0.591984 -0.272502 0)
(0.637054 -0.303254 0)
(0.693404 -0.333724 0)
(0.768842 -0.371749 0)
(0.894271 -0.390593 0)
(0.379732 -0.14489 0)
(0.429711 -0.163168 0)
(0.45785 -0.20201 0)
(0.498807 -0.23507 0)
(0.537808 -0.267092 0)
(0.579708 -0.295399 0)
(0.624684 -0.323634 0)
(0.679478 -0.352582 0)
(0.751735 -0.389411 0)
(0.873689 -0.418545 0)
(0.352654 -0.119309 0)
(0.418523 -0.15093 0)
(0.457305 -0.200358 0)
(0.501221 -0.237214 0)
(0.5413 -0.269672 0)
(0.582378 -0.29777 0)
(0.626394 -0.325836 0)
(0.67948 -0.353811 0)
(0.749948 -0.390513 0)
(0.87388 -0.425687 0)
(1.04905 -0.206016 0)
(1.18809 -0.144206 0)
(1.302 -0.0542917 0)
(1.4198 0.0766229 0)
(1.4216 0.202662 0)
(1.33526 0.204665 0)
(1.14526 0.122769 0)
(1.08804 0.0799007 0)
(1.08033 0.0577118 0)
(1.07694 0.0345734 0)
(1.05293 -0.209136 0)
(1.19752 -0.142031 0)
(1.31481 -0.0466492 0)
(1.43915 0.0922392 0)
(1.42869 0.214656 0)
(1.33196 0.205688 0)
(1.13691 0.121707 0)
(1.08538 0.0793078 0)
(1.07828 0.0573512 0)
(1.07566 0.0342086 0)
(1.05791 -0.212456 0)
(1.20755 -0.139503 0)
(1.32775 -0.0384471 0)
(1.45922 0.106825 0)
(1.43422 0.225952 0)
(1.3252 0.206315 0)
(1.12867 0.120771 0)
(1.08258 0.0785021 0)
(1.07621 0.0578624 0)
(1.07429 0.0343699 0)
(1.06417 -0.21601 0)
(1.2185 -0.136116 0)
(1.34166 -0.029215 0)
(1.48249 0.123849 0)
(1.44004 0.24019 0)
(1.31394 0.205979 0)
(1.11968 0.118408 0)
(1.07901 0.077484 0)
(1.07353 0.058197 0)
(1.07271 0.0344714 0)
(1.07076 -0.219242 0)
(1.23024 -0.13171 0)
(1.3578 -0.0196038 0)
(1.50462 0.140601 0)
(1.44191 0.255293 0)
(1.29924 0.204778 0)
(1.11119 0.114617 0)
(1.07486 0.0757442 0)
(1.07047 0.0579932 0)
(1.071 0.0344653 0)
(1.07893 -0.222789 0)
(1.24255 -0.127283 0)
(1.37816 -0.00682643 0)
(1.52155 0.159085 0)
(1.44111 0.266048 0)
(1.28478 0.199569 0)
(1.10331 0.110746 0)
(1.07023 0.0736645 0)
(1.06742 0.057135 0)
(1.06941 0.0340612 0)
(1.0877 -0.226023 0)
(1.25746 -0.120203 0)
(1.39876 0.00434853 0)
(1.52672 0.17937 0)
(1.44849 0.27975 0)
(1.27099 0.191682 0)
(1.09578 0.1073 0)
(1.0656 0.0715618 0)
(1.06464 0.0555496 0)
(1.06792 0.0330498 0)
(1.09788 -0.229284 0)
(1.27243 -0.114394 0)
(1.42494 0.0243269 0)
(1.51801 0.195584 0)
(1.46931 0.290699 0)
(1.25699 0.184647 0)
(1.08831 0.10463 0)
(1.0614 0.0695671 0)
(1.06209 0.0540124 0)
(1.06647 0.032106 0)
(1.10928 -0.232205 0)
(1.29156 -0.104865 0)
(1.4429 0.0417949 0)