/*--------------------------------*- C++ -*----------------------------------*\
  =========                 |
  \\      /  F ield         | OpenFOAM: The Open Source CFD Toolbox
   \\    /   O peration     | Website:  https://openfoam.org
    \\  /    A nd           | Version:  8
     \\/     M anipulation  |
\*---------------------------------------------------------------------------*/
FoamFile
{
    version     2.0;
    format      ascii;
    class       volScalarField;
    location    "3.1";
    object      p;
}
// * * * * * * * * * * * * * * * * * * * * * * * * * * * * * * * * * * * * * //

dimensions      [1 -1 -2 0 0 0 0];

internalField   nonuniform List<scalar> 
2600
(
1.08313
1.02029
1.01592
1.18926
1.50849
1.75375
2.03369
2.08633
2.02623
1.84485
1.10121
1.00548
1.00643
1.19536
1.53717
1.76966
2.04356
2.09502
2.04242
1.85518
1.09352
0.989758
1.01571
1.22005
1.57411
1.78364
2.04297
2.0982
2.05176
1.88138
1.09501
0.978309
1.01668
1.2526
1.61771
1.82387
2.04246
2.08052
2.01851
1.8825
1.10033
0.976698
1.00178
1.26008
1.61482
1.83275
2.04542
2.08582
2.02432
1.86358
1.11093
0.983131
0.997469
1.25658
1.61963
1.82286
2.04933
2.11457
2.05847
1.86622
1.12011
0.989915
1.01977
1.30078
1.62816
1.8276
2.05942
2.10895
2.06114
1.87641
1.12735
0.998396
1.03455
1.29599
1.60474
1.82508
2.06826
2.11605
2.05872
1.87861
1.13148
1.00561
1.03094
1.25602
1.59666
1.85366
2.06943
2.10639
2.06039
1.87934
1.13389
1.00983
1.03852
1.22884
1.57219
1.84062
2.08903
2.10969
2.03827
1.88117
1.14008
1.02
1.03221
1.20119
1.56097
1.86334
2.06452
2.08528
2.0301
1.88617
1.14298
1.02769
1.03355
1.18648
1.53472
1.8323
2.10185
2.10271
2.03673
1.87137
1.14897
1.03972
1.05219
1.21061
1.53858
1.84597
2.0922
2.10601
2.04534
1.88429
1.14883
1.04497
1.0634
1.20423
1.52723
1.85182
2.10253
2.12177
2.03104
1.88633
1.14487
1.04171
1.04831
1.16865
1.50847
1.88024
2.10492
2.12878
2.03609
1.88053
1.13646
1.04134
1.03529
1.13952
1.48518
1.89226
2.10522
2.10147
2.00725
1.85225
1.13419
1.04958
1.04201
1.12182
1.45221
1.85566
2.06072
2.07003
2.01322
1.85947
1.13716
1.06426
1.0559
1.09731
1.40839
1.83596
2.06503
2.10674
2.04738
1.88298
1.14427
1.07734
1.06807
1.07342
1.36349
1.8183
2.06661
2.10222
2.03805
1.87276
1.12959
1.07946
1.07837
1.06145
1.32264
1.79889
2.05535
2.08876
2.02082
1.85756
1.33822
1.09795
1.10082
1.05935
1.27635
1.76193
2.02994
2.06313
2.00193
1.84414
1.58264
1.13243
1.12984
1.06932
1.22864
1.72642
2.00155
2.05681
1.99732
1.84173
1.81344
1.18348
1.15783
1.08616
1.19252
1.67203
1.97913
2.05563
2.0018
1.84843
1.99375
1.27621
1.18612
1.1001
1.1717
1.60942
1.96996
2.05303
1.99933
1.84732
2.14249
1.39584
1.22358
1.1147
1.1624
1.54365
1.9416
2.04109
1.98758
1.83781
2.26713
1.51396
1.27521
1.14108
1.16385
1.47724
1.90093
2.02802
1.9714
1.82648
2.37854
1.63005
1.32534
1.17386
1.17465
1.4165
1.85326
2.01783
1.96238
1.8209
2.47482
1.74638
1.37736
1.2
1.18187
1.36102
1.80105
2.00827
1.95888
1.82006
2.55816
1.8546
1.45041
1.22464
1.18746
1.31364
1.74517
1.99291
1.95599
1.8184
2.6325
1.94715
1.53484
1.27122
1.19061
1.2766
1.68088
1.97428
1.94846
1.8121
2.69797
2.03288
1.60909
1.33695
1.20096
1.25243
1.60633
1.94756
1.93906
1.8045
2.75583
2.11473
1.67532
1.39757
1.22446
1.24207
1.53016
1.91455
1.9328
1.79719
2.80694
2.19156
1.74605
1.4472
1.25672
1.24642
1.46419
1.87568
1.92817
1.79096
2.85374
2.26136
1.81886
1.49864
1.28738
1.25129
1.40993
1.83333
1.92277
1.78647
2.89696
2.32629
1.88755
1.55877
1.31636
1.25614
1.36394
1.78493
1.91459
1.7754
2.93653
2.38752
1.94909
1.61982
1.35564
1.26011
1.32489
1.72716
1.90233
1.76479
2.97236
2.44461
2.00748
1.67427
1.40513
1.26673
1.29553
1.65888
1.88604
1.75346
3.00496
2.4965
2.0644
1.7245
1.45291
1.28165
1.27677
1.58581
1.86612
1.74312
3.03451
2.54382
2.11862
1.77634
1.49625
1.30203
1.2678
1.5164
1.84205
1.73228
3.06169
2.58848
2.17099
1.82766
1.54163
1.32134
1.2634
1.45223
1.81276
1.72207
5.57289
5.28958
5.08538
4.88311
4.69143
4.5162
4.33532
4.13791
3.84848
3.55159
5.15852
4.8929
4.76726
4.62487
4.49283
4.35352
4.19253
3.99247
3.69929
3.31195
5.00688
4.81621
4.72213
4.60112
4.48656
4.35182
4.18753
3.98025
3.6859
3.30882
4.81648
4.68899
4.62413
4.51978
4.41579
4.28425
4.12633
3.92214
3.63839
3.26266
4.66484
4.58262
4.53116
4.43384
4.33997
4.21529
4.06645
3.86668
3.5957
3.22223
4.55205
4.48002
4.43259
4.35018
4.26988
4.15133
4.01055
3.81534
3.55852
3.19855
4.44293
4.38777
4.35122
4.28044
4.20693
4.09335
3.9612
3.77167
3.52963
3.19245
4.33798
4.3021
4.27414
4.2135
4.14695
4.04026
3.91662
3.73519
3.50862
3.19765
4.25524
4.23297
4.20833
4.15471
4.09249
3.99158
3.87613
3.70384
3.49304
3.20834
4.19642
4.17857
4.15294
4.10357
4.04416
3.94877
3.84001
3.67724
3.48079
3.2203
4.15511
4.13491
4.10788
4.06038
4.00225
3.91163
3.80889
3.65602
3.47257
3.23351
4.12537
4.09832
4.06937
4.02206
3.96516
3.87918
3.78196
3.63866
3.4681
3.24877
4.10007
4.06582
4.03539
3.98821
3.93292
3.85136
3.75913
3.62525
3.46654
3.2647
4.07517
4.03616
4.00502
3.95846
3.90514
3.82789
3.74026
3.61537
3.46727
3.28077
4.04984
4.00896
3.97817
3.93308
3.8819
3.80871
3.72522
3.60848
3.46977
3.29662
4.02562
3.98547
3.95595
3.91251
3.86304
3.7933
3.71329
3.60374
3.47332
3.31193
4.00703
3.96823
3.93947
3.89662
3.84772
3.78066
3.70373
3.60061
3.47752
3.32645
3.9969
3.95724
3.92661
3.88338
3.83512
3.7703
3.69569
3.59806
3.48179
3.34011
3.98927
3.94809
3.91525
3.87115
3.82278
3.76016
3.68861
3.59646
3.48626
3.35284
3.97692
3.93369
3.90075
3.85804
3.81093
3.75095
3.68198
3.5945
3.49019
3.36481
1.00325
1.01023
1.01807
1.02702
1.03718
1.04883
1.06347
1.07536
2.69753
4.33187
1.00325
1.01023
1.01807
1.02702
1.03718
1.04883
1.06347
1.07542
2.69405
4.32337
1.00325
1.01023
1.01807
1.02702
1.03718
1.04883
1.06347
1.07545
2.68195
4.31477
1.00325
1.01023
1.01807
1.02702
1.03718
1.04882
1.06346
1.07552
2.66521
4.30228
1.00325
1.01023
1.01807
1.02702
1.03718
1.04882
1.06346
1.07556
2.64499
4.28871
1.00325
1.01023
1.01807
1.02702
1.03719
1.04881
1.06346
1.07555
2.62258
4.26899
1.00325
1.01023
1.01807
1.02701
1.03719
1.0488
1.06347
1.07547
2.59794
4.24918
1.00325
1.01023
1.01807
1.02701
1.03719
1.0488
1.06348
1.07541
2.57222
4.22777
1.00325
1.01023
1.01807
1.02701
1.0372
1.04879
1.06349
1.07536
2.54429
4.20425
1.00325
1.01023
1.01807
1.02701
1.0372
1.04879
1.0635
1.07532
2.51307
4.17943
1.00325
1.01023
1.01807
1.02701
1.0372
1.04878
1.06351
1.07529
2.47924
4.1539
1.00325
1.01022
1.01808
1.027
1.03721
1.04877
1.06353
1.07527
2.44361
4.12823
1.00325
1.01022
1.01808
1.027
1.03721
1.04877
1.06354
1.07525
2.40704
4.1032
1.00325
1.01022
1.01808
1.027
1.03721
1.04876
1.06355
1.07525
2.37013
4.07855
1.00325
1.01022
1.01808
1.027
1.03722
1.04876
1.06356
1.07524
2.3334
4.05415
1.00325
1.01022
1.01808
1.027
1.03722
1.04875
1.06357
1.07524
2.29657
4.02979
1.00325
1.01022
1.01808
1.027
1.03722
1.04875
1.06357
1.07524
2.25924
4.00541
1.00325
1.01022
1.01808
1.027
1.03722
1.04874
1.06358
1.07524
2.22103
3.98162
1.00325
1.01022
1.01808
1.027
1.03723
1.04874
1.06358
1.07525
2.1827
3.9597
1.00325
1.01022
1.01808
1.02699
1.03723
1.04874
1.06358
1.07525
2.14584
3.94104
1.00325
1.01022
1.01808
1.02699
1.03723
1.04874
1.06359
1.07525
2.14569
3.9411
1.00325
1.01022
1.01808
1.027
1.03723
1.04874
1.06358
1.07525
2.18253
3.95984
1.00325
1.01022
1.01808
1.027
1.03722
1.04874
1.06358
1.07524
2.22086
3.98183
1.00325
1.01022
1.01808
1.027
1.03722
1.04875
1.06357
1.07524
2.25908
4.00568
1.00325
1.01022
1.01808
1.027
1.03722
1.04875
1.06357
1.07524
2.29642
4.03011
1.00325
1.01022
1.01808
1.027
1.03722
1.04876
1.06356
1.07524
2.33325
4.05449
1.00325
1.01022
1.01808
1.027
1.03721
1.04876
1.06355
1.07525
2.37
4.0789
1.00325
1.01022
1.01808
1.027
1.03721
1.04877
1.06354
1.07525
2.40694
4.10355
1.00325
1.01022
1.01808
1.027
1.03721
1.04877
1.06353
1.07527
2.44352
4.12857
1.00325
1.01023
1.01807
1.02701
1.0372
1.04878
1.06351
1.07529
2.47915
4.15425
1.00325
1.01023
1.01807
1.02701
1.0372
1.04879
1.0635
1.07532
2.51295
4.17976
1.00325
1.01023
1.01807
1.02701
1.0372
1.04879
1.06349
1.07536
2.54414
4.20456
1.00325
1.01023
1.01807
1.02701
1.03719
1.0488
1.06348
1.07541
2.57205
4.22806
1.00325
1.01023
1.01807
1.02701
1.03719
1.0488
1.06347
1.07547
2.59778
4.24943
1.00325
1.01023
1.01807
1.02702
1.03719
1.04881
1.06346
1.07555
2.62245
4.26924
1.00325
1.01023
1.01807
1.02702
1.03718
1.04882
1.06346
1.07556
2.64487
4.28894
1.00325
1.01023
1.01807
1.02702
1.03718
1.04882
1.06346
1.07552
2.66511
4.30247
1.00325
1.01023
1.01807
1.02702
1.03718
1.04883
1.06347
1.07545
2.68187
4.31493
1.00325
1.01023
1.01807
1.02702
1.03718
1.04883
1.06347
1.07542
2.694
4.32347
1.00325
1.01023
1.01807
1.02702
1.03718
1.04883
1.06347
1.07539
2.69751
4.33192
3.97739
3.9343
3.90147
3.8589
3.81194
3.75209
3.68319
3.59566
3.49109
3.3651
3.98986
3.9488
3.91605
3.87206
3.82381
3.76126
3.68973
3.59745
3.48694
3.35282
3.99755
3.95799
3.92745
3.88431
3.83613
3.77133
3.6967
3.59887
3.48217
3.33973
4.00761
3.96895
3.9403
3.89754
3.84871
3.78162
3.7046
3.60122
3.47757
3.32562
4.02609
3.98614
3.95675
3.91341
3.864
3.79417
3.71402
3.60414
3.47298
3.31061
4.05028
4.00962
3.97895
3.93395
3.88281
3.8095
3.72578
3.60864
3.46904
3.29477
4.07554
4.03679
4.00576
3.95928
3.90597
3.82856
3.74065
3.61528
3.46616
3.27836
4.10036
4.06639
4.03608
3.98896
3.93367
3.85192
3.75935
3.62485
3.46501
3.26171
4.12562
4.09884
4.07
4.02275
3.96581
3.8796
3.78199
3.63792
3.46614
3.24513
4.15547
4.13543
4.10847
4.061
4.00281
3.91193
3.80873
3.65501
3.47013
3.22916
4.197
4.17919
4.15359
4.10418
4.04466
3.94896
3.83969
3.67595
3.47779
3.21531
4.25602
4.2337
4.20906
4.15535
4.09297
3.99171
3.87567
3.70225
3.48949
3.20286
4.33892
4.30293
4.27493
4.21417
4.14742
4.04033
3.91603
3.73337
3.50473
3.19165
4.44395
4.38868
4.35203
4.28112
4.20741
4.09341
3.96052
3.7697
3.52555
3.18562
4.55287
4.48085
4.43337
4.35086
4.27038
4.15142
4.00988
3.81331
3.55427
3.19114
4.6656
4.58342
4.53194
4.43454
4.34049
4.21544
4.06586
3.8647
3.59141
3.21458
4.81722
4.68975
4.62488
4.52046
4.41632
4.28446
4.1259
3.92032
3.63429
3.25507
5.00756
4.81694
4.72285
4.6018
4.48712
4.35209
4.18727
3.97878
3.68249
3.30149
5.15912
4.89356
4.76796
4.62554
4.49342
4.35385
4.19241
3.99125
3.69608
3.30529
5.57345
5.29017
5.08604
4.88374
4.69207
4.5166
4.33545
4.13707
3.84616
3.54482
3.05982
2.58288
2.16428
1.82843
1.55377
1.32511
1.25941
1.42912
1.80557
1.71755
3.032
2.53751
2.11235
1.77953
1.51106
1.30442
1.25922
1.48787
1.83683
1.72817
3.00177
2.48924
2.05828
1.73026
1.46888
1.28492
1.2624
1.55275
1.86262
1.73862
2.96857
2.43667
2.00196
1.68132
1.42335
1.26632
1.27568
1.62267
1.88379
1.74823
2.93219
2.37969
1.94391
1.62864
1.37493
1.25681
1.29873
1.69187
1.90088
1.75898
2.89223
2.31903
1.8824
1.57013
1.33255
1.25277
1.33499
1.75422
1.91439
1.77124
2.84852
2.25488
1.81417
1.50972
1.30275
1.24935
1.38482
1.80873
1.92476
1.78104
2.80097
2.18505
1.74084
1.45496
1.2723
1.24604
1.44826
1.85439
1.93196
1.78825
2.74871
2.10879
1.66835
1.40173
1.2408
1.25199
1.5212
1.89907
1.93936
1.7946
2.69049
2.02716
1.59937
1.33765
1.22712
1.26485
1.59427
1.93552
1.95179
1.80162
2.62503
1.94302
1.51944
1.2738
1.2251
1.28994
1.66286
1.96227
1.9613
1.8104
2.55117
1.85172
1.42769
1.23729
1.22834
1.32756
1.7271
1.98101
1.96639
1.81998
2.46678
1.74645
1.34569
1.22046
1.23224
1.37303
1.78715
1.99799
1.97147
1.82575
2.36773
1.6347
1.28629
1.20205
1.23064
1.42144
1.84036
2.01393
1.97364
1.82643
2.25265
1.52339
1.22111
1.17723
1.238
1.47858
1.88461
2.02933
1.98031
1.82784
2.12266
1.4101
1.15175
1.15782
1.26046
1.54599
1.9214
2.04391
1.99287
1.83367
1.9694
1.28851
1.09613
1.14519
1.30416
1.61087
1.94957
2.05149
2.00196
1.84429
1.78251
1.18399
1.06749
1.14283
1.35955
1.65954
1.97398
2.0507
2.00001
1.85227
1.54265
1.10877
1.05047
1.15285
1.41742
1.69623
1.99358
2.05553
1.99571
1.85588
1.30151
1.05386
1.02999
1.17105
1.47008
1.73197
2.01481
2.06806
2.00127
1.84948
3.43826
3.22532
2.9641
2.68931
2.39099
2.08326
1.78556
1.52432
1.23113
0.941552
3.43654
3.22377
2.96087
2.68514
2.38663
2.07929
1.78238
1.51965
1.22726
0.944098
3.43407
3.22018
2.95593
2.67858
2.37927
2.0724
1.77653
1.51138
1.22076
0.948508
3.43068
3.21367
2.94931
2.66775
2.36785
2.06187
1.76778
1.49914
1.21284
0.955483
3.42661
3.20518
2.93968
2.65419
2.353
2.04806
1.75597
1.48288
1.20327
0.965798
3.42133
3.19445
2.92671
2.63698
2.33424
2.03068
1.74079
1.46234
1.19417
0.980035
3.41394
3.18156
2.91028
2.61611
2.31162
2.00963
1.72195
1.43771
1.18596
0.998526
3.40376
3.1659
2.89018
2.5915
2.2852
1.98509
1.69915
1.40953
1.18018
1.02442
3.391
3.14714
2.86631
2.56286
2.2549
1.95691
1.67208
1.37855
1.17343
1.0597
3.37626
3.12502
2.83806
2.53012
2.22067
1.92501
1.64047
1.3463
1.16346
1.11019
3.36017
3.09964
2.8056
2.49265
2.1824
1.88924
1.60389
1.31452
1.15323
1.17195
3.34279
3.07112
2.76814
2.45062
2.13962
1.84933
1.56267
1.28504
1.15138
1.23892
3.32363
3.03885
2.72602
2.40315
2.09259
1.80451
1.51716
1.26312
1.15769
1.3144
3.30202
3.00209
2.67827
2.3503
2.04035
1.75501
1.46805
1.24829
1.1793
1.39083
3.27766
2.96023
2.62422
2.29145
1.98344
1.69939
1.41919
1.23766
1.22223
1.46632
3.25006
2.91273
2.56348
2.22619
1.92127
1.63865
1.37234
1.22995
1.29237
1.53679
3.21895
2.85868
2.49487
2.15445
1.85386
1.57255
1.33412
1.22825
1.38873
1.59317
3.1839
2.79759
2.41888
2.07566
1.78112
1.50306
1.3023
1.24428
1.50756
1.63755
3.14414
2.72825
2.33428
1.99083
1.70247
1.43346
1.27622
1.28512
1.62885
1.67084
3.09801
2.64825
2.2407
1.89977
1.61933
1.36814
1.26354
1.35321
1.7393
1.69957
3.09909
2.65321
2.24686
1.9016
1.61119
1.36023
1.26667
1.36877
1.74992
1.7042
3.14443
2.73163
2.33948
1.99367
1.69847
1.42884
1.27643
1.29215
1.63957
1.67422
3.18352
2.7995
2.4226
2.07828
1.78105
1.49851
1.3006
1.245
1.51456
1.64086
3.2181
2.85944
2.49727
2.15722
1.8541
1.57176
1.33364
1.22714
1.38986
1.59555
3.24896
2.91266
2.56484
2.22787
1.92244
1.63923
1.37094
1.22846
1.28947
1.53794
3.27646
2.95961
2.62451
2.29243
1.98425
1.70068
1.41939
1.23688
1.2177
1.46553
3.30084
3.0011
2.67781
2.35042
2.04071
1.75632
1.46916
1.24766
1.17562
1.38832
3.32255
3.03768
2.72504
2.40264
2.09241
1.80553
1.51875
1.26322
1.15577
1.31074
3.34189
3.0699
2.76687
2.44958
2.13901
1.8498
1.56436
1.28632
1.15095
1.23531
3.35944
3.09849
2.80421
2.49137
2.18141
1.88929
1.60513
1.31571
1.15357
1.16913
3.37574
3.12402
2.83674
2.52869
2.21951
1.9246
1.64112
1.34771
1.16411
1.10822
3.39068
3.14636
2.86518
2.56152
2.25362
1.95616
1.67225
1.37927
1.17411
1.05877
3.40365
3.16539
2.88929
2.5903
2.28397
1.98417
1.69886
1.40985
1.18077
1.02431
3.41406
3.18131
2.90968
2.61517
2.31053
2.00869
1.72145
1.43757
1.18633
0.998788
3.42161
3.19442
2.92639
2.63635
2.33342
2.02986
1.74021
1.46195
1.19426
0.980376
3.42693
3.20533
2.93964
2.65388
2.35246
2.04743
1.75544
1.48235
1.20303
0.96607
3.43098
3.21395
2.94951
2.66774
2.36763
2.06148
1.76736
1.49862
1.21233
0.955604
3.43433
3.22058
2.9563
2.67882
2.3793
2.07223
1.77625
1.51088
1.22006
0.94844
3.43678
3.22426
2.96135
2.68555
2.38684
2.07927
1.78222
1.51921
1.22645
0.943876
3.43848
3.22587
2.96465
2.68984
2.39132
2.08334
1.78546
1.52392
1.23025
0.941225
3.95375
3.90951
3.87947
3.83981
3.79579
3.73982
3.67428
3.59263
3.49584
3.38047
3.92918
3.88639
3.85813
3.82057
3.77939
3.72736
3.66668
3.59243
3.50463
3.4004
3.90913
3.87047
3.84493
3.8093
3.76972
3.71911
3.66213
3.59486
3.51462
3.41859
3.8946
3.85811
3.83325
3.7992
3.76205
3.71583
3.66183
3.5993
3.52495
3.43618
3.88387
3.84836
3.82412
3.79155
3.75638
3.71376
3.66255
3.60379
3.53513
3.45285
3.87553
3.84082
3.81752
3.78642
3.75248
3.71239
3.66415
3.60853
3.54435
3.46758
3.86916
3.83519
3.81275
3.78301
3.74998
3.71162
3.6661
3.61353
3.55287
3.48054
3.86416
3.83085
3.80918
3.78071
3.74866
3.71171
3.66847
3.61856
3.56077
3.49243
3.8603
3.82769
3.8068
3.77938
3.74833
3.71258
3.67117
3.6234
3.56813
3.50335
3.85706
3.82509
3.80502
3.77855
3.74854
3.71392
3.67397
3.62795
3.57504
3.51341
3.85416
3.82241
3.80314
3.77759
3.74872
3.71527
3.67664
3.63242
3.58173
3.52268
3.85171
3.81958
3.80095
3.77622
3.74851
3.71631
3.67906
3.63674
3.58795
3.53139
3.85031
3.81722
3.79885
3.77467
3.74794
3.71692
3.68116
3.64051
3.59349
3.53963
3.85062
3.81624
3.79765
3.77357
3.74734
3.71723
3.68279
3.64342
3.59813
3.54665
3.85264
3.81717
3.79802
3.77358
3.74724
3.71746
3.68387
3.6454
3.60155
3.55167
3.85679
3.82062
3.80084
3.77568
3.74858
3.71829
3.68471
3.64669
3.60375
3.55474
3.8649
3.82683
3.80529
3.77891
3.75099
3.71989
3.68573
3.64763
3.60505
3.55647
3.87593
3.83768
3.81339
3.78512
3.75535
3.7226
3.68729
3.64869
3.60612
3.55807
3.88246
3.84323
3.81811
3.7893
3.75867
3.72504
3.68905
3.64993
3.60709
3.5594
3.88709
3.84731
3.82223
3.79268
3.76178
3.72756
3.69075
3.65098
3.60793
3.56049
1.00325
1.01022
1.01808
1.02699
1.03723
1.04874
1.06359
1.07525
2.10176
3.92121
1.00325
1.01022
1.01808
1.02699
1.03723
1.04873
1.06359
1.07525
2.04996
3.89901
1.00325
1.01022
1.01808
1.02699
1.03723
1.04873
1.06359
1.07526
1.99897
3.87766
1.00325
1.01022
1.01808
1.02699
1.03723
1.04873
1.06359
1.07526
1.9489
3.85738
1.00325
1.01022
1.01808
1.02699
1.03724
1.04873
1.06359
1.07527
1.90043
3.8387
1.00325
1.01022
1.01808
1.02699
1.03724
1.04873
1.06359
1.07527
1.85438
3.82133
1.00325
1.01022
1.01808
1.02699
1.03724
1.04873
1.06359
1.07528
1.81126
3.805
1.00325
1.01022
1.01808
1.02698
1.03724
1.04873
1.06359
1.07528
1.771
3.78988
1.00325
1.01022
1.01808
1.02698
1.03724
1.04873
1.06359
1.07529
1.73343
3.77604
1.00325
1.01022
1.01809
1.02698
1.03724
1.04872
1.0636
1.0753
1.69856
3.76328
1.00325
1.01022
1.01809
1.02698
1.03724
1.04872
1.06361
1.07531
1.66665
3.7514
1.00325
1.01022
1.01809
1.02698
1.03725
1.04871
1.06362
1.07532
1.63814
3.74052
1.00325
1.01022
1.01809
1.02697
1.03725
1.04871
1.06363
1.07533
1.61322
3.73113
1.00325
1.01022
1.01809
1.02697
1.03726
1.0487
1.06366
1.07535
1.59154
3.72389
1.00325
1.01022
1.01809
1.02697
1.03726
1.0487
1.06368
1.07536
1.57248
3.71891
1.00325
1.01022
1.01809
1.02697
1.03727
1.04869
1.06371
1.07537
1.5551
3.71606
1.00325
1.01022
1.0181
1.02697
1.03728
1.04868
1.06374
1.07538
1.53953
3.71432
1.00325
1.01022
1.0181
1.02696
1.03728
1.04868
1.06376
1.07539
1.52598
3.71287
1.00325
1.01021
1.0181
1.02696
1.03728
1.04867
1.06377
1.0754
1.51588
3.71252
1.00325
1.01021
1.0181
1.02696
1.03729
1.04866
1.0638
1.0754
1.50924
3.71328
1.00325
1.01021
1.0181
1.02696
1.03729
1.04866
1.0638
1.0754
1.50919
3.71335
1.00325
1.01021
1.0181
1.02696
1.03728
1.04867
1.06377
1.0754
1.51584
3.71259
1.00325
1.01022
1.0181
1.02696
1.03728
1.04868
1.06376
1.07539
1.52594
3.71295
1.00325
1.01022
1.0181
1.02697
1.03728
1.04868
1.06374
1.07538
1.5395
3.71442
1.00325
1.01022
1.01809
1.02697
1.03727
1.04869
1.06371
1.07537
1.55511
3.71618
1.00325
1.01022
1.01809
1.02697
1.03726
1.0487
1.06368
1.07536
1.57252
3.71904
1.00325
1.01022
1.01809
1.02697
1.03726
1.0487
1.06366
1.07535
1.59162
3.72399
1.00325
1.01022
1.01809
1.02697
1.03725
1.04871
1.06363
1.07533
1.61332
3.73117
1.00325
1.01022
1.01809
1.02698
1.03725
1.04871
1.06362
1.07532
1.63823
3.74049
1.00325
1.01022
1.01809
1.02698
1.03724
1.04872
1.06361
1.07531
1.66673
3.75131
1.00325
1.01022
1.01809
1.02698
1.03724
1.04872
1.0636
1.0753
1.69864
3.76316
1.00325
1.01022
1.01808
1.02698
1.03724
1.04873
1.06359
1.07529
1.73352
3.77589
1.00325
1.01022
1.01808
1.02698
1.03724
1.04873
1.06359
1.07528
1.7711
3.78969
1.00325
1.01022
1.01808
1.02699
1.03724
1.04873
1.06359
1.07528
1.81136
3.80479
1.00325
1.01022
1.01808
1.02699
1.03724
1.04873
1.06359
1.07527
1.85445
3.82112
1.00325
1.01022
1.01808
1.02699
1.03724
1.04873
1.06359
1.07527
1.90047
3.83851
1.00325
1.01022
1.01808
1.02699
1.03723
1.04873
1.06359
1.07526
1.9489
3.85722
1.00325
1.01022
1.01808
1.02699
1.03723
1.04873
1.06359
1.07526
1.99893
3.87754
1.00325
1.01022
1.01808
1.02699
1.03723
1.04873
1.06359
1.07525
2.04988
3.89895
1.00325
1.01022
1.01808
1.02699
1.03723
1.04874
1.06359
1.07525
2.10164
3.92121
3.88724
3.8475
3.82245
3.79293
3.76206
3.72786
3.69105
3.65125
3.60812
3.56058
3.88261
3.8434
3.81832
3.78954
3.75893
3.72531
3.68931
3.65016
3.60723
3.55943
3.87608
3.83786
3.81359
3.78534
3.75557
3.72281
3.68747
3.64882
3.60616
3.558
3.86506
3.82701
3.80547
3.77909
3.75116
3.72002
3.6858
3.64763
3.60496
3.55628
3.85696
3.8208
3.801
3.7758
3.74866
3.7183
3.68465
3.64655
3.60355
3.55445
3.85281
3.8173
3.79811
3.77361
3.7472
3.71736
3.6837
3.64515
3.60127
3.55136
3.85073
3.81627
3.79763
3.77348
3.74719
3.71701
3.68252
3.64311
3.59781
3.54639
3.85032
3.81712
3.7987
3.77446
3.74767
3.71661
3.68082
3.64016
3.59317
3.53945
3.8516
3.81937
3.80069
3.77591
3.74817
3.71593
3.67868
3.63639
3.58766
3.53129
3.85395
3.82213
3.80282
3.77724
3.74834
3.71488
3.67626
3.63211
3.58153
3.52268
3.8568
3.82478
3.80469
3.7782
3.74818
3.71357
3.67366
3.62774
3.57499
3.51358
3.86
3.82737
3.80648
3.77905
3.74802
3.71232
3.67099
3.62335
3.56824
3.50375
3.86384
3.83053
3.80888
3.78043
3.74844
3.71157
3.66846
3.61873
3.5611
3.49306
3.86884
3.8349
3.8125
3.78279
3.74987
3.71163
3.66626
3.61393
3.55346
3.48139
3.87526
3.84059
3.81733
3.78631
3.75252
3.71257
3.66449
3.60916
3.54518
3.46865
3.88365
3.84823
3.82407
3.79162
3.75659
3.71411
3.66311
3.60464
3.5362
3.45407
3.89445
3.85809
3.83335
3.79946
3.76241
3.71634
3.66261
3.60034
3.52615
3.43747
3.90911
3.87057
3.84515
3.80969
3.77029
3.71983
3.66311
3.59608
3.51593
3.41986
3.92929
3.8866
3.85845
3.82113
3.78022
3.72842
3.66787
3.59373
3.50592
3.40149
3.95408
3.90999
3.88007
3.84059
3.7967
3.74094
3.67555
3.59391
3.49698
3.38117
)
;

boundaryField
{
    inlet
    {
        type            fixedValue;
        value           uniform 1;
    }
    outlet
    {
        type            zeroGradient;
    }
    triangle
    {
        type            zeroGradient;
    }
    top
    {
        type            symmetryPlane;
    }
    bottom
    {
        type            symmetryPlane;
    }
    defaultFaces
    {
        type            empty;
    }
}


// ************************************************************************* //
