/*--------------------------------*- C++ -*----------------------------------*\
  =========                 |
  \\      /  F ield         | OpenFOAM: The Open Source CFD Toolbox
   \\    /   O peration     | Website:  https://openfoam.org
    \\  /    A nd           | Version:  8
     \\/     M anipulation  |
\*---------------------------------------------------------------------------*/
FoamFile
{
    version     2.0;
    format      ascii;
    class       volScalarField;
    location    "3.1";
    object      rho;
}
// * * * * * * * * * * * * * * * * * * * * * * * * * * * * * * * * * * * * * //

dimensions      [1 -3 0 0 0 0 0];

internalField   nonuniform List<scalar> 
2600
(
1.10597
1.11176
1.21979
1.42413
1.73717
1.9722
2.20544
2.26209
2.21833
2.08199
1.08383
1.04814
1.16148
1.39214
1.72708
1.96242
2.2073
2.26482
2.22628
2.08473
1.0673
1.0092
1.11579
1.36392
1.7043
1.93475
2.19247
2.25736
2.22187
2.09045
1.0671
0.992222
1.072
1.32982
1.6636
1.90056
2.16074
2.22392
2.17304
2.05984
1.07193
0.987658
1.02909
1.27199
1.57066
1.81512
2.10848
2.19021
2.13258
1.99239
1.08007
0.989452
1.00482
1.21249
1.4894
1.71007
2.03104
2.1481
2.08812
1.92595
1.08586
0.991916
1.00823
1.2069
1.44452
1.64097
1.94232
2.05803
2.00836
1.86952
1.08988
0.995616
1.01296
1.19175
1.41447
1.60646
1.86627
1.97624
1.93824
1.82951
1.09192
0.999016
1.00845
1.16315
1.40801
1.61764
1.82234
1.90928
1.90069
1.81302
1.09301
1.00112
1.01281
1.14443
1.39083
1.61049
1.82107
1.88419
1.8732
1.8114
1.09731
1.00836
1.00817
1.12284
1.37921
1.62603
1.80392
1.86143
1.86619
1.8182
1.10003
1.01455
1.00932
1.11168
1.36803
1.6179
1.83075
1.87339
1.87896
1.82412
1.1049
1.02466
1.02494
1.13608
1.40594
1.66625
1.84335
1.89083
1.91655
1.87276
1.10539
1.03104
1.04066
1.16109
1.46676
1.7468
1.90138
1.94849
1.96852
1.93476
1.10257
1.03205
1.04381
1.18587
1.53251
1.86318
1.99027
2.03789
2.05087
1.99607
1.09545
1.03418
1.04972
1.21651
1.58293
1.95842
2.09087
2.11625
2.10135
2.02644
1.09233
1.04142
1.0701
1.25073
1.61017
1.99238
2.13886
2.16894
2.15629
2.06518
1.09488
1.05703
1.10584
1.27697
1.61722
2.01597
2.19045
2.24013
2.21212
2.10224
1.11012
1.09127
1.16132
1.3005
1.61191
2.0251
2.21572
2.25889
2.22079
2.10388
1.13766
1.14844
1.22953
1.3256
1.59713
2.0227
2.21731
2.25827
2.21431
2.09615
1.3961
1.23671
1.30763
1.35022
1.56811
1.99625
2.19839
2.24089
2.20055
2.08605
1.68754
1.32417
1.3796
1.37751
1.53262
1.96468
2.17099
2.23598
2.19651
2.08392
1.93808
1.40717
1.43447
1.40276
1.50356
1.91632
2.14806
2.2341
2.1991
2.08862
2.12438
1.52205
1.47937
1.41867
1.48452
1.86192
2.13709
2.2307
2.19556
2.08649
2.26297
1.65444
1.52679
1.43143
1.47459
1.80664
2.11527
2.22105
2.18496
2.07773
2.36489
1.76973
1.57774
1.45252
1.47453
1.75174
2.08816
2.21121
2.17225
2.06832
2.446
1.86976
1.61937
1.47823
1.48446
1.70098
2.05622
2.20432
2.16588
2.06387
2.51059
1.96222
1.6602
1.49955
1.49241
1.65368
2.01963
2.19853
2.16407
2.06336
2.5648
2.04476
1.71875
1.52189
1.4977
1.61293
1.97941
2.18778
2.1623
2.06246
2.61431
2.11424
1.7872
1.56456
1.50026
1.5812
1.93187
2.17291
2.15611
2.05834
2.66026
2.17926
1.84797
1.62387
1.50935
1.56153
1.87456
2.14941
2.1487
2.05371
2.70326
2.24246
1.90297
1.67815
1.5303
1.5547
1.813
2.11862
2.14589
2.04937
2.74295
2.30279
1.96216
1.72254
1.55946
1.56185
1.75684
2.08335
2.14588
2.04569
2.77987
2.35824
2.02306
1.76796
1.58916
1.56755
1.70971
2.04887
2.1453
2.04303
2.81374
2.40982
2.08024
1.82014
1.6175
1.57132
1.66949
2.01434
2.1406
2.03463
2.84416
2.45794
2.13101
1.87241
1.65382
1.57388
1.63573
1.97384
2.131
2.02594
2.87105
2.50206
2.17841
1.91848
1.69787
1.57886
1.6113
1.92245
2.11726
2.016
2.89494
2.54146
2.22376
1.96038
1.7395
1.59146
1.59665
1.86332
2.09992
2.00631
2.91622
2.57679
2.26623
2.00297
1.77674
1.61071
1.58889
1.80549
2.07879
1.99604
2.93565
2.60973
2.30673
2.04464
1.81536
1.62922
1.58469
1.75126
2.0533
1.98656
4.29003
4.13224
4.0241
3.92012
3.82305
3.73405
3.63873
3.53079
3.36389
3.15608
4.08086
3.93544
3.87362
3.80151
3.73421
3.66124
3.57331
3.45951
3.28508
3.03321
4.04054
3.9437
3.90336
3.84212
3.7801
3.70426
3.60914
3.48646
3.30642
3.06825
3.98818
3.92134
3.89208
3.83663
3.77788
3.70032
3.60496
3.47961
3.30095
3.05765
3.94286
3.89143
3.861
3.80402
3.74888
3.67393
3.58274
3.45816
3.28464
3.03522
3.86597
3.82421
3.79587
3.74617
3.69831
3.62718
3.54174
3.42055
3.25652
3.01478
3.78081
3.74947
3.72824
3.68623
3.6434
3.57615
3.49687
3.38019
3.2271
3.00292
3.70096
3.68139
3.666
3.63077
3.59235
3.52947
3.45596
3.34529
3.20276
2.99821
3.64232
3.63116
3.61825
3.58756
3.55128
3.49117
3.42219
3.31706
3.18542
3.00028
3.60678
3.59846
3.58539
3.55739
3.52238
3.46467
3.39837
3.29777
3.1752
3.00772
3.58837
3.57845
3.56456
3.53759
3.50308
3.44766
3.3841
3.28848
3.17273
3.01964
3.57974
3.56501
3.54952
3.52234
3.48841
3.43562
3.37512
3.28488
3.17623
3.03518
3.57321
3.55337
3.53643
3.50894
3.47589
3.42581
3.36841
3.28389
3.18237
3.05194
3.56517
3.54184
3.52394
3.49642
3.46444
3.41706
3.36261
3.28375
3.18891
3.06788
3.55492
3.53012
3.5121
3.48517
3.45433
3.4094
3.35756
3.28385
3.19502
3.08244
3.5437
3.51915
3.50177
3.47572
3.4458
3.40289
3.35316
3.28398
3.20045
3.09554
3.53549
3.51128
3.49406
3.4682
3.43854
3.39723
3.34935
3.2842
3.20535
3.10712
3.53506
3.5087
3.4889
3.46196
3.43236
3.39231
3.34581
3.28411
3.20965
3.11755
3.53806
3.50961
3.48633
3.45709
3.42639
3.38721
3.34243
3.28421
3.21373
3.12705
3.53729
3.50783
3.48329
3.45323
3.42176
3.38314
3.33944
3.28401
3.21734
3.13597
1.40325
1.41022
1.41803
1.42693
1.43699
1.44852
1.46291
1.47461
2.64437
3.63703
1.40325
1.41022
1.41803
1.42693
1.43699
1.44851
1.46291
1.47467
2.64153
3.63619
1.40325
1.41022
1.41803
1.42693
1.43699
1.44851
1.4629
1.4747
2.63222
3.63672
1.40325
1.41022
1.41803
1.42692
1.437
1.44851
1.4629
1.47477
2.61833
3.62905
1.40325
1.41022
1.41803
1.42692
1.437
1.4485
1.4629
1.47481
2.60286
3.61518
1.40325
1.41022
1.41803
1.42692
1.437
1.44849
1.4629
1.4748
2.59088
3.59947
1.40325
1.41022
1.41803
1.42692
1.43701
1.44849
1.46291
1.47472
2.58052
3.58791
1.40325
1.41022
1.41803
1.42692
1.43701
1.44848
1.46292
1.47466
2.56997
3.58187
1.40325
1.41022
1.41803
1.42691
1.43701
1.44847
1.46293
1.47461
2.55746
3.5804
1.40325
1.41022
1.41804
1.42691
1.43702
1.44847
1.46294
1.47457
2.54186
3.58098
1.40325
1.41022
1.41804
1.42691
1.43702
1.44846
1.46295
1.47454
2.52343
3.58087
1.40325
1.41022
1.41804
1.42691
1.43702
1.44846
1.46296
1.47452
2.50262
3.57849
1.40325
1.41022
1.41804
1.42691
1.43703
1.44845
1.46298
1.47451
2.48018
3.57354
1.40325
1.41022
1.41804
1.42691
1.43703
1.44844
1.46299
1.4745
2.45677
3.56611
1.40325
1.41022
1.41804
1.42691
1.43703
1.44844
1.463
1.47449
2.43299
3.55665
1.40325
1.41022
1.41804
1.4269
1.43703
1.44844
1.463
1.47449
2.40875
3.54566
1.40325
1.41022
1.41804
1.4269
1.43704
1.44843
1.46301
1.47449
2.38382
3.5336
1.40325
1.41022
1.41804
1.4269
1.43704
1.44843
1.46301
1.4745
2.35804
3.52099
1.40325
1.41022
1.41804
1.4269
1.43704
1.44842
1.46302
1.4745
2.33205
3.50877
1.40325
1.41022
1.41804
1.4269
1.43704
1.44842
1.46302
1.4745
2.30706
3.49821
1.40325
1.41022
1.41804
1.4269
1.43704
1.44842
1.46302
1.4745
2.30697
3.49823
1.40325
1.41022
1.41804
1.4269
1.43704
1.44842
1.46302
1.4745
2.33196
3.50883
1.40325
1.41022
1.41804
1.4269
1.43704
1.44843
1.46301
1.47449
2.35793
3.52112
1.40325
1.41022
1.41804
1.4269
1.43704
1.44843
1.46301
1.47449
2.38372
3.53377
1.40325
1.41022
1.41804
1.4269
1.43703
1.44844
1.463
1.47449
2.40866
3.54586
1.40325
1.41022
1.41804
1.42691
1.43703
1.44844
1.463
1.47449
2.4329
3.55687
1.40325
1.41022
1.41804
1.42691
1.43703
1.44844
1.46299
1.4745
2.4567
3.56633
1.40325
1.41022
1.41804
1.42691
1.43703
1.44845
1.46298
1.47451
2.48012
3.57375
1.40325
1.41022
1.41804
1.42691
1.43702
1.44846
1.46296
1.47452
2.50256
3.57868
1.40325
1.41022
1.41804
1.42691
1.43702
1.44846
1.46295
1.47454
2.52336
3.58103
1.40325
1.41022
1.41804
1.42691
1.43702
1.44847
1.46294
1.47457
2.54177
3.58111
1.40325
1.41022
1.41803
1.42691
1.43701
1.44847
1.46293
1.47461
2.55735
3.58053
1.40325
1.41022
1.41803
1.42692
1.43701
1.44848
1.46292
1.47466
2.56986
3.58201
1.40325
1.41022
1.41803
1.42692
1.43701
1.44849
1.46291
1.47472
2.58043
3.58806
1.40325
1.41022
1.41803
1.42692
1.437
1.44849
1.4629
1.4748
2.59081
3.59966
1.40325
1.41022
1.41803
1.42692
1.437
1.4485
1.4629
1.47481
2.60281
3.61538
1.40325
1.41022
1.41803
1.42692
1.437
1.44851
1.4629
1.47477
2.6183
3.62922
1.40325
1.41022
1.41803
1.42693
1.43699
1.44851
1.4629
1.4747
2.63221
3.63687
1.40325
1.41022
1.41803
1.42693
1.43699
1.44851
1.46291
1.47467
2.64153
3.6363
1.40325
1.41022
1.41803
1.42693
1.43699
1.44852
1.46291
1.47464
2.64436
3.63708
3.53774
3.50835
3.48383
3.45381
3.42241
3.38388
3.34022
3.28476
3.21795
3.13617
3.53859
3.51017
3.4869
3.45769
3.42705
3.38791
3.34315
3.28485
3.21417
3.12704
3.5356
3.50926
3.48946
3.46255
3.433
3.39296
3.34646
3.28464
3.20989
3.11728
3.5359
3.51175
3.49459
3.46878
3.43917
3.39783
3.34991
3.28459
3.20537
3.10655
3.544
3.51957
3.50228
3.47628
3.4464
3.40345
3.35363
3.28423
3.20023
3.09465
3.5552
3.53054
3.5126
3.48573
3.45491
3.4099
3.35792
3.28394
3.19454
3.08122
3.5654
3.54224
3.52441
3.49696
3.46498
3.4175
3.36286
3.28369
3.18817
3.06627
3.57339
3.55374
3.53689
3.50944
3.47638
3.42618
3.36855
3.28364
3.18136
3.04993
3.5799
3.56536
3.54995
3.52283
3.48887
3.43592
3.37516
3.28442
3.17494
3.03278
3.58862
3.57883
3.565
3.53807
3.50351
3.44791
3.38406
3.28787
3.17118
3.01675
3.60723
3.59895
3.58591
3.55789
3.52281
3.4649
3.39826
3.29704
3.17338
3.00443
3.64295
3.63177
3.61886
3.58811
3.55174
3.4914
3.42205
3.31617
3.18323
2.99667
3.70171
3.68209
3.66667
3.63137
3.59282
3.52969
3.45574
3.34426
3.20031
2.99423
3.78162
3.75022
3.72892
3.68683
3.64388
3.57636
3.49659
3.37906
3.22452
2.99836
3.86663
3.82489
3.79652
3.74677
3.6988
3.62741
3.54146
3.41938
3.25383
3.00972
3.94345
3.89204
3.86161
3.80458
3.74934
3.67416
3.58251
3.45703
3.28193
3.02984
3.98864
3.92184
3.89258
3.83712
3.77829
3.70055
3.6048
3.47861
3.29844
3.05219
4.04094
3.94413
3.90382
3.84256
3.7805
3.70449
3.60908
3.48567
3.30438
3.06304
4.08124
3.93586
3.87407
3.80196
3.73462
3.66151
3.57332
3.45881
3.283
3.02921
4.29038
4.13262
4.02453
3.92054
3.82348
3.73435
3.63888
3.53027
3.36223
3.15248
2.93438
2.6057
2.30159
2.0452
1.82575
1.63252
1.5812
1.73164
2.04709
1.98282
2.91451
2.57224
2.26139
2.00547
1.78951
1.61295
1.58146
1.78159
2.07424
1.99265
2.89275
2.53621
2.21897
1.96496
1.75346
1.59411
1.58439
1.83575
2.09664
2.00259
2.86845
2.49629
2.17405
1.92412
1.71408
1.57718
1.59492
1.89296
2.11476
2.01157
2.8412
2.45221
2.12685
1.8795
1.67145
1.56966
1.61322
1.94619
2.12879
2.02091
2.81051
2.40449
2.07605
1.82933
1.63308
1.56702
1.6439
1.99027
2.13915
2.03077
2.77631
2.35347
2.01914
1.77693
1.60451
1.56474
1.68718
2.02807
2.14628
2.03802
2.73886
2.29799
1.95769
1.72885
1.57423
1.56207
1.74245
2.06295
2.14999
2.0428
2.69835
2.2381
1.89683
1.6817
1.54409
1.56554
1.8056
2.10232
2.15301
2.0468
2.65508
2.17514
1.83924
1.62476
1.53179
1.5737
1.866
2.13709
2.16062
2.05114
2.60914
2.11154
1.77327
1.56731
1.53022
1.59315
1.91865
2.16249
2.16701
2.057
2.55997
2.0434
1.69794
1.53379
1.53328
1.62456
1.96544
2.17846
2.17065
2.06376
2.50503
1.96395
1.6306
1.51943
1.536
1.66383
2.00845
2.19054
2.17376
2.06774
2.43842
1.87649
1.58192
1.50553
1.53442
1.7056
2.04611
2.20077
2.174
2.06795
2.35449
1.78269
1.52605
1.48668
1.54193
1.75485
2.07717
2.21078
2.17781
2.06898
2.24804
1.67521
1.46214
1.46975
1.56357
1.81353
2.10427
2.22133
2.18698
2.07374
2.10498
1.5435
1.40369
1.4547
1.60288
1.87093
2.12738
2.22806
2.19487
2.08283
1.91193
1.41519
1.36447
1.44611
1.64964
1.91447
2.15006
2.22945
2.19488
2.09021
1.65521
1.3074
1.32895
1.4431
1.69406
1.94556
2.17047
2.23543
2.19289
2.09368
1.36798
1.20545
1.27627
1.4381
1.72646
1.96878
2.19098
2.24729
2.19842
2.08779
3.24528
3.09403
2.90961
2.71612
2.50183
2.27205
2.03909
1.82517
1.57093
1.299
3.24388
3.09274
2.90719
2.71304
2.49853
2.26891
2.03646
1.82116
1.56735
1.30155
3.24153
3.08954
2.90325
2.70809
2.49289
2.26338
2.03154
1.81398
1.56128
1.30595
3.23795
3.08366
2.89775
2.69987
2.48406
2.25484
2.02409
1.80327
1.55376
1.31285
3.2331
3.07578
2.88979
2.68949
2.47246
2.24353
2.01398
1.78894
1.54463
1.32296
3.22666
3.06588
2.87929
2.67629
2.4577
2.22922
2.00094
1.77073
1.53582
1.33681
3.21812
3.05426
2.86629
2.66026
2.43981
2.21183
1.98476
1.74878
1.52776
1.35459
3.20721
3.04077
2.85075
2.64136
2.41882
2.1915
1.96517
1.72351
1.52186
1.37897
3.19429
3.02538
2.83259
2.61935
2.3947
2.16815
1.94195
1.69554
1.51505
1.41133
3.17995
3.00792
2.81131
2.59415
2.36742
2.14174
1.91485
1.66618
1.50545
1.45679
3.16489
2.98842
2.78693
2.56528
2.33692
2.11216
1.88348
1.63694
1.49602
1.51197
3.14958
2.96686
2.75879
2.53286
2.30283
2.07918
1.84806
1.60951
1.49444
1.57105
3.13371
2.94263
2.72708
2.49622
2.26535
2.04211
1.80887
1.58851
1.50024
1.63705
3.11647
2.91508
2.69108
2.45542
2.22369
2.00109
1.76645
1.57325
1.52013
1.70374
3.09737
2.88376
2.65034
2.40994
2.1782
1.95483
1.72391
1.56196
1.55901
1.77006
3.07589
2.84835
2.60457
2.35939
2.1283
1.90406
1.68214
1.55717
1.61892
1.83242
3.05186
2.80827
2.55289
2.30361
2.07388
1.84844
1.64698
1.55768
1.7009
1.88102
3.02517
2.76321
2.49556
2.24201
2.01469
1.78937
1.61719
1.57237
1.79827
1.91895
2.99553
2.7123
2.43155
2.17519
1.95009
1.72923
1.59394
1.60729
1.89681
1.94657
2.96188
2.65369
2.36029
2.10269
1.88098
1.67151
1.58383
1.66617
1.9905
1.96804
2.96261
2.65723
2.36494
2.10418
1.87408
1.66474
1.58646
1.67957
1.99969
1.97185
2.99572
2.71469
2.43543
2.17743
1.94675
1.72537
1.59401
1.61317
1.90645
1.94922
3.02492
2.76455
2.49831
2.24405
2.0146
1.78552
1.6155
1.57308
1.80445
1.92164
3.0513
2.8088
2.55465
2.30573
2.07405
1.84776
1.64653
1.55676
1.70196
1.88293
3.07517
2.8483
2.60556
2.36067
2.12921
1.90454
1.68092
1.55595
1.6163
1.83321
3.09659
2.88332
2.65055
2.41068
2.17882
1.95589
1.72408
1.5615
1.55475
1.76918
3.1157
2.91438
2.69075
2.45551
2.22397
2.00216
1.76741
1.57281
1.51668
1.7015
3.133
2.94182
2.72638
2.49585
2.26521
2.04294
1.81023
1.58863
1.49843
1.63389
3.14897
2.96602
2.75789
2.53209
2.30236
2.07954
1.8495
1.61066
1.49403
1.56796
3.16438
2.98762
2.78595
2.56434
2.33616
2.11219
1.88453
1.63799
1.49634
1.50948
3.17957
3.00723
2.81038
2.59311
2.36654
2.14141
1.91539
1.66742
1.50606
1.45499
3.19406
3.02484
2.83179
2.61837
2.39373
2.16755
1.9421
1.69617
1.51568
1.41048
3.20711
3.04041
2.85012
2.6405
2.4179
2.19077
1.96494
1.72379
1.5224
1.37888
3.21817
3.05408
2.86587
2.65959
2.43899
2.21108
1.98435
1.74866
1.5281
1.35484
3.22683
3.06585
2.87906
2.67583
2.45708
2.22857
2.00047
1.7704
1.53591
1.33715
3.23331
3.07588
2.88976
2.68926
2.47205
2.24304
2.01355
1.78848
1.54441
1.32323
3.23815
3.08386
2.89789
2.69987
2.48388
2.25453
2.02376
1.80282
1.55329
1.31297
3.24171
3.08982
2.90351
2.70826
2.49291
2.26324
2.03131
1.81356
1.56063
1.30589
3.24405
3.09308
2.90753
2.71334
2.49869
2.2689
2.03633
1.82079
1.56661
1.30133
3.24543
3.09441
2.90999
2.7165
2.50208
2.27211
2.03902
1.82483
1.57012
1.29868
3.52741
3.49919
3.47742
3.44896
3.41812
3.38053
3.33781
3.28525
3.22303
3.14812
3.51521
3.4892
3.47069
3.44497
3.41606
3.38005
3.33895
3.28973
3.23235
3.16425
3.5063
3.4829
3.46708
3.44403
3.41731
3.38251
3.34319
3.2974
3.24371
3.18004
3.50265
3.48016
3.46454
3.44279
3.41839
3.38725
3.35023
3.30714
3.25622
3.19606
3.50258
3.48041
3.46461
3.44334
3.42026
3.39196
3.35726
3.3166
3.26864
3.21151
3.5042
3.48246
3.46685
3.44606
3.42347
3.39678
3.36414
3.32539
3.27969
3.22521
3.50684
3.4856
3.47038
3.45018
3.42783
3.40194
3.37079
3.33361
3.28958
3.2373
3.50977
3.48899
3.47418
3.45468
3.43271
3.40736
3.37727
3.34141
3.29884
3.24872
3.51264
3.49236
3.47796
3.45901
3.4375
3.41266
3.38348
3.34891
3.30802
3.26011
3.51512
3.49527
3.4813
3.46284
3.44186
3.4176
3.38934
3.35618
3.31738
3.27183
3.51709
3.49741
3.48387
3.46594
3.44563
3.42212
3.39485
3.36337
3.32682
3.28359
3.51879
3.4989
3.48575
3.46835
3.44884
3.42621
3.40007
3.37028
3.33571
3.29482
3.52073
3.50031
3.48737
3.47037
3.45158
3.42985
3.40485
3.37644
3.34348
3.30502
3.52347
3.50233
3.48931
3.47245
3.45405
3.43299
3.40895
3.38149
3.34989
3.3135
3.52701
3.50525
3.49196
3.47493
3.45649
3.43568
3.41221
3.38538
3.35482
3.31982
3.53162
3.50944
3.49579
3.47834
3.45945
3.4383
3.41484
3.38831
3.35838
3.32415
3.539
3.51535
3.50032
3.48196
3.46251
3.44087
3.41707
3.39049
3.3608
3.32695
3.54875
3.52451
3.50712
3.48712
3.4663
3.44357
3.41905
3.39219
3.36252
3.32903
3.55439
3.5295
3.51131
3.49066
3.46907
3.44566
3.42068
3.39349
3.36365
3.33042
3.55803
3.53276
3.51446
3.49318
3.47132
3.44748
3.42195
3.39431
3.36434
3.3313
1.40325
1.41022
1.41804
1.4269
1.43704
1.44842
1.46302
1.4745
2.27713
3.48751
1.40325
1.41022
1.41804
1.4269
1.43705
1.44842
1.46302
1.4745
2.24177
3.47628
1.40325
1.41022
1.41804
1.4269
1.43705
1.44842
1.46302
1.47451
2.20669
3.46605
1.40325
1.41021
1.41804
1.4269
1.43705
1.44841
1.46302
1.47451
2.17192
3.45654
1.40325
1.41021
1.41804
1.42689
1.43705
1.44841
1.46302
1.47452
2.13788
3.44767
1.40325
1.41021
1.41804
1.42689
1.43705
1.44841
1.46302
1.47452
2.10509
3.439
1.40325
1.41021
1.41804
1.42689
1.43705
1.44841
1.46302
1.47453
2.07399
3.43029
1.40325
1.41021
1.41805
1.42689
1.43705
1.44841
1.46303
1.47454
2.04458
3.42173
1.40325
1.41021
1.41805
1.42689
1.43705
1.44841
1.46303
1.47454
2.01682
3.41348
1.40325
1.41021
1.41805
1.42689
1.43706
1.44841
1.46303
1.47455
1.99079
3.40549
1.40325
1.41021
1.41805
1.42689
1.43706
1.4484
1.46304
1.47456
1.96679
3.3977
1.40325
1.41021
1.41805
1.42688
1.43706
1.4484
1.46305
1.47457
1.94526
3.39027
1.40325
1.41021
1.41805
1.42688
1.43707
1.44839
1.46307
1.47458
1.92642
3.38362
1.40325
1.41021
1.41805
1.42688
1.43707
1.44839
1.46309
1.4746
1.90998
3.37825
1.40325
1.41021
1.41805
1.42688
1.43708
1.44838
1.46311
1.47461
1.89542
3.37431
1.40325
1.41021
1.41805
1.42687
1.43708
1.44837
1.46314
1.47462
1.88198
3.37173
1.40325
1.41021
1.41806
1.42687
1.43709
1.44837
1.46317
1.47463
1.86978
3.36977
1.40325
1.41021
1.41806
1.42687
1.4371
1.44836
1.46319
1.47463
1.85888
3.36768
1.40325
1.41021
1.41806
1.42687
1.4371
1.44835
1.4632
1.47464
1.85012
3.3663
1.40326
1.41021
1.41806
1.42687
1.4371
1.44835
1.46324
1.47465
1.84399
3.36615
1.40326
1.41021
1.41806
1.42687
1.4371
1.44835
1.46324
1.47465
1.84394
3.36619
1.40325
1.41021
1.41806
1.42687
1.4371
1.44835
1.4632
1.47464
1.85008
3.36634
1.40325
1.41021
1.41806
1.42687
1.4371
1.44836
1.46319
1.47463
1.85885
3.36772
1.40325
1.41021
1.41806
1.42687
1.43709
1.44837
1.46317
1.47463
1.86976
3.36983
1.40325
1.41021
1.41805
1.42687
1.43708
1.44837
1.46314
1.47462
1.88198
3.37181
1.40325
1.41021
1.41805
1.42688
1.43708
1.44838
1.46311
1.47461
1.89546
3.37439
1.40325
1.41021
1.41805
1.42688
1.43707
1.44839
1.46309
1.4746
1.91005
3.37831
1.40325
1.41021
1.41805
1.42688
1.43707
1.44839
1.46307
1.47458
1.9265
3.38364
1.40325
1.41021
1.41805
1.42688
1.43706
1.4484
1.46305
1.47457
1.94533
3.39025
1.40325
1.41021
1.41805
1.42689
1.43706
1.4484
1.46304
1.47456
1.96684
3.39765
1.40325
1.41021
1.41805
1.42689
1.43706
1.44841
1.46303
1.47455
1.99083
3.40543
1.40325
1.41021
1.41805
1.42689
1.43705
1.44841
1.46303
1.47454
2.01687
3.4134
1.40325
1.41021
1.41805
1.42689
1.43705
1.44841
1.46303
1.47453
2.04465
3.42164
1.40325
1.41021
1.41804
1.42689
1.43705
1.44841
1.46302
1.47453
2.07406
3.43019
1.40325
1.41021
1.41804
1.42689
1.43705
1.44841
1.46302
1.47452
2.10514
3.4389
1.40325
1.41021
1.41804
1.42689
1.43705
1.44841
1.46302
1.47452
2.1379
3.44758
1.40325
1.41021
1.41804
1.4269
1.43705
1.44841
1.46302
1.47451
2.17192
3.45646
1.40325
1.41022
1.41804
1.4269
1.43705
1.44842
1.46302
1.47451
2.20666
3.46598
1.40325
1.41022
1.41804
1.4269
1.43705
1.44842
1.46302
1.4745
2.24172
3.47623
1.40325
1.41022
1.41804
1.4269
1.43704
1.44842
1.46302
1.4745
2.27706
3.48749
3.55816
3.5329
3.51462
3.49336
3.47151
3.44769
3.42215
3.3945
3.36447
3.33137
3.55451
3.52964
3.51146
3.49083
3.46925
3.44585
3.42086
3.39364
3.36374
3.33044
3.54886
3.52465
3.50727
3.48728
3.46645
3.44372
3.41918
3.39228
3.36254
3.32898
3.53912
3.51548
3.50045
3.48208
3.46262
3.44096
3.41712
3.3905
3.36075
3.32682
3.53175
3.50957
3.49591
3.47843
3.45951
3.43832
3.41482
3.38823
3.35825
3.32397
3.52713
3.50535
3.49203
3.47496
3.45648
3.43562
3.41212
3.38523
3.35464
3.31963
3.52354
3.50235
3.4893
3.47239
3.45396
3.43286
3.40879
3.3813
3.3497
3.31335
3.52071
3.50023
3.48726
3.47023
3.45141
3.42965
3.40464
3.37623
3.3433
3.30493
3.51867
3.49873
3.48555
3.46812
3.44859
3.42595
3.39982
3.37006
3.33554
3.29479
3.51691
3.49718
3.48362
3.46566
3.44534
3.42182
3.39458
3.36316
3.32671
3.28363
3.5149
3.49501
3.48103
3.46256
3.44157
3.41731
3.38907
3.35599
3.31732
3.27196
3.51239
3.4921
3.4777
3.45874
3.43725
3.41243
3.38329
3.34879
3.30803
3.26034
3.50952
3.48874
3.47394
3.45445
3.43252
3.40723
3.37718
3.34141
3.29894
3.24905
3.50662
3.48539
3.47019
3.45002
3.42774
3.40191
3.37082
3.33375
3.28982
3.23775
3.50402
3.4823
3.46672
3.44598
3.42348
3.39686
3.3643
3.32567
3.28009
3.22579
3.50246
3.48034
3.46458
3.44339
3.42038
3.39215
3.35756
3.31704
3.2692
3.21221
3.50258
3.48017
3.46462
3.44297
3.41862
3.38754
3.35067
3.30774
3.25691
3.19684
3.50635
3.48302
3.46726
3.44429
3.41766
3.38293
3.34376
3.29814
3.24451
3.18085
3.51535
3.48942
3.47096
3.44536
3.41659
3.3807
3.33968
3.29054
3.23317
3.16497
3.52774
3.49963
3.47789
3.4495
3.41871
3.38123
3.33861
3.28608
3.22378
3.14858
)
;

boundaryField
{
    inlet
    {
        type            calculated;
        value           uniform 1.40001;
    }
    outlet
    {
        type            calculated;
        value           nonuniform List<scalar> 
100
(
1.97211
1.94949
1.92191
1.8832
1.83348
1.76945
1.70177
1.63415
1.5682
1.50971
1.4552
1.41067
1.37906
1.35502
1.33731
1.3234
1.31313
1.30605
1.30149
1.29883
2.08655
2.08385
2.08825
2.08679
2.07831
2.06869
2.06413
2.06331
2.06266
2.05867
2.054
2.04961
2.04589
2.04326
2.03488
2.02624
2.01627
2.00653
1.99626
1.9868
2.0823
2.08582
2.09137
2.05933
1.99229
1.92629
1.86947
1.83005
1.81344
1.81152
1.81789
1.82402
1.87344
1.93502
1.9971
2.02718
2.06409
2.10236
2.10452
2.09711
1.98307
1.99288
2.00279
2.01182
2.02119
2.03107
2.0383
2.04302
2.04701
2.0514
2.05738
2.06411
2.06796
2.06787
2.0693
2.07415
2.08339
2.09056
2.09371
2.0875
1.29915
1.30171
1.30611
1.31301
1.32313
1.33698
1.35477
1.37916
1.41154
1.45701
1.5122
1.57129
1.63729
1.70399
1.77031
1.83266
1.88126
1.91919
1.94682
1.96829
)
;
    }
    triangle
    {
        type            calculated;
        value           nonuniform List<scalar> 
40
(
4.29003
4.13224
4.0241
3.92012
3.82305
3.73405
3.63873
3.53079
3.36389
3.15608
1.10597
1.08383
1.0673
1.0671
1.07193
1.08007
1.08586
1.08988
1.09192
1.09301
1.09731
1.10003
1.1049
1.10539
1.10257
1.09545
1.09233
1.09488
1.11012
1.13766
4.29038
4.13262
4.02453
3.92054
3.82348
3.73435
3.63888
3.53027
3.36223
3.15248
)
;
    }
    top
    {
        type            symmetryPlane;
    }
    bottom
    {
        type            symmetryPlane;
    }
    defaultFaces
    {
        type            empty;
    }
}


// ************************************************************************* //
