/*--------------------------------*- C++ -*----------------------------------*\
  =========                 |
  \\      /  F ield         | OpenFOAM: The Open Source CFD Toolbox
   \\    /   O peration     | Website:  https://openfoam.org
    \\  /    A nd           | Version:  8
     \\/     M anipulation  |
\*---------------------------------------------------------------------------*/
FoamFile
{
    version     2.0;
    format      ascii;
    class       volVectorField;
    location    "3.1";
    object      U;
}
// * * * * * * * * * * * * * * * * * * * * * * * * * * * * * * * * * * * * * //

dimensions      [0 1 -1 0 0 0 0];

internalField   nonuniform List<vector> 
2600
(
(0.740541 0.0644548 0)
(1.37602 0.207684 0)
(1.6314 0.365508 0)
(1.6545 0.351307 0)
(1.57761 0.197956 0)
(1.58698 0.14934 0)
(1.43274 0.103446 0)
(1.37238 0.0666889 0)
(1.39958 0.0224663 0)
(1.45838 0.00415384 0)
(0.259508 -0.113387 0)
(0.98569 0.171072 0)
(1.49691 0.343481 0)
(1.61357 0.336966 0)
(1.55894 0.163054 0)
(1.58441 0.140518 0)
(1.43165 0.102751 0)
(1.372 0.0655947 0)
(1.39644 0.0170696 0)
(1.45395 0.000533051 0)
(0.0394975 -0.140947 0)
(0.575696 0.0674066 0)
(1.24859 0.282794 0)
(1.51559 0.298674 0)
(1.50293 0.142159 0)
(1.56529 0.138604 0)
(1.43142 0.104957 0)
(1.37182 0.0669838 0)
(1.39082 0.013513 0)
(1.44755 -0.0108664 0)
(-0.0460577 -0.172145 0)
(0.253967 0.00928166 0)
(0.917339 0.2058 0)
(1.33211 0.24226 0)
(1.37835 0.100318 0)
(1.50762 0.10334 0)
(1.42704 0.10854 0)
(1.36923 0.0783603 0)
(1.37449 0.0292926 0)
(1.42462 -0.0123658 0)
(-0.100236 -0.168535 0)
(0.039434 -0.0406013 0)
(0.554871 0.140203 0)
(1.03691 0.213977 0)
(1.13539 0.104067 0)
(1.36124 0.0890166 0)
(1.40267 0.101072 0)
(1.34726 0.0783977 0)
(1.3327 0.0398933 0)
(1.37604 0.00844686 0)
(-0.1435 -0.157225 0)
(-0.126326 -0.0400148 0)
(0.199048 0.090178 0)
(0.62739 0.16766 0)
(0.752541 0.0835916 0)
(1.08716 0.0596789 0)
(1.32232 0.105361 0)
(1.28437 0.0682607 0)
(1.24949 0.0188084 0)
(1.28987 -0.00846628 0)
(-0.181703 -0.139332 0)
(-0.264682 -0.0451157 0)
(-0.125617 0.0832831 0)
(0.163339 0.194616 0)
(0.301782 0.0591024 0)
(0.708707 0.0330183 0)
(1.15001 0.0699364 0)
(1.16094 0.061456 0)
(1.12055 0.0366448 0)
(1.18256 0.00583417 0)
(-0.212582 -0.111368 0)
(-0.377109 -0.0367751 0)
(-0.379795 0.0586002 0)
(-0.224584 0.130945 0)
(-0.0442019 0.00388207 0)
(0.364545 -0.0376121 0)
(0.879873 0.0755804 0)
(0.981297 0.08429 0)
(0.981702 0.0269391 0)
(1.08947 -0.00602496 0)
(-0.235182 -0.0759939 0)
(-0.452208 -0.0348443 0)
(-0.526731 0.0469198 0)
(-0.447457 0.11095 0)
(-0.188448 -0.0146341 0)
(0.169635 -0.0521857 0)
(0.603889 0.0231797 0)
(0.794606 0.0595245 0)
(0.886582 0.0383822 0)
(1.03839 -0.00723658 0)
(-0.249487 -0.0368258 0)
(-0.486499 -0.0123871 0)
(-0.572209 0.0524789 0)
(-0.507401 0.0966236 0)
(-0.198399 -0.0471191 0)
(0.12298 -0.0989129 0)
(0.431054 0.0271512 0)
(0.673933 0.0755582 0)
(0.853361 0.0213359 0)
(1.02547 -0.0124859 0)
(-0.252539 0.00491169 0)
(-0.487098 0.0209634 0)
(-0.568129 0.0678825 0)
(-0.481992 0.102824 0)
(-0.0962486 -0.0775458 0)
(0.160875 -0.138262 0)
(0.389835 -0.0159615 0)
(0.638264 0.0415146 0)
(0.858004 0.00439234 0)
(1.03442 -0.0189949 0)
(-0.234492 0.0414608 0)
(-0.450781 0.0457434 0)
(-0.52652 0.0817153 0)
(-0.342082 0.101746 0)
(0.211359 -0.0746612 0)
(0.329622 -0.120293 0)
(0.420142 -0.0539341 0)
(0.652248 0.00984718 0)
(0.912087 -0.000687798 0)
(1.07418 -0.00255737 0)
(-0.221337 0.0777467 0)
(-0.373896 0.0520148 0)
(-0.405405 0.0674926 0)
(-0.0492455 0.0219316 0)
(0.659178 -0.140968 0)
(0.637944 -0.143883 0)
(0.563666 -0.0363788 0)
(0.744539 0.00875146 0)
(1.03544 -0.0309063 0)
(1.15564 -0.0206498 0)
(-0.192154 0.104532 0)
(-0.267799 0.045862 0)
(-0.185934 0.0455198 0)
(0.355834 -0.0357993 0)
(1.07241 -0.161816 0)
(0.969478 -0.127346 0)
(0.817425 -0.0559639 0)
(0.934098 -0.0286584 0)
(1.19442 -0.0254776 0)
(1.25739 -0.0116131 0)
(-0.153959 0.126039 0)
(-0.144436 0.0501747 0)
(0.0992313 0.00482741 0)
(0.761429 -0.140736 0)
(1.34552 -0.212229 0)
(1.21537 -0.125149 0)
(1.07749 -0.0258771 0)
(1.15255 -0.00279091 0)
(1.32339 -0.0346646 0)
(1.34889 -0.0149343 0)
(-0.109355 0.140733 0)
(0.000888929 0.0426104 0)
(0.427342 -0.0345471 0)
(1.11864 -0.206847 0)
(1.50689 -0.231113 0)
(1.34917 -0.120487 0)
(1.26179 -0.0280845 0)
(1.31061 -0.0413597 0)
(1.39425 -0.0537491 0)
(1.41273 -0.0279645 0)
(-0.0555848 0.155615 0)
(0.196316 0.0111761 0)
(0.783946 -0.119618 0)
(1.39016 -0.286438 0)
(1.59471 -0.255806 0)
(1.40221 -0.144633 0)
(1.35929 -0.0509754 0)
(1.39255 -0.0500635 0)
(1.42225 -0.0451049 0)
(1.44433 -0.0177715 0)
(0.0324981 0.126278 0)
(0.494643 -0.0551624 0)
(1.15579 -0.183396 0)
(1.57491 -0.339446 0)
(1.63539 -0.275866 0)
(1.41759 -0.145547 0)
(1.39835 -0.0476666 0)
(1.41562 -0.0345167 0)
(1.42799 -0.0297024 0)
(1.45486 -0.00365242 0)
(0.259152 0.111721 0)
(0.905786 -0.125261 0)
(1.45903 -0.252543 0)
(1.67027 -0.390535 0)
(1.64948 -0.303052 0)
(1.41935 -0.15016 0)
(1.40865 -0.0510432 0)
(1.41787 -0.036474 0)
(1.42895 -0.0320994 0)
(1.45843 -0.00582377 0)
(0.736233 -0.0760756 0)
(1.30227 -0.186342 0)
(1.63184 -0.283371 0)
(1.70831 -0.414004 0)
(1.65316 -0.327616 0)
(1.41921 -0.158538 0)
(1.40784 -0.0628805 0)
(1.41725 -0.0445596 0)
(1.42947 -0.0369027 0)
(1.46083 -0.00914719 0)
(1.31062 -0.000532848 0)
(1.55638 -0.199613 0)
(1.69729 -0.296754 0)
(1.71542 -0.431717 0)
(1.65797 -0.356543 0)
(1.42765 -0.168187 0)
(1.40533 -0.06891 0)
(1.41693 -0.053416 0)
(1.43095 -0.0425073 0)
(1.46343 -0.0128397 0)
(1.45692 0.115551 0)
(1.65023 -0.196035 0)
(1.71647 -0.296214 0)
(1.71745 -0.426147 0)
(1.67289 -0.39022 0)
(1.45698 -0.19191 0)
(1.41354 -0.0824493 0)
(1.41912 -0.0557326 0)
(1.43437 -0.0401691 0)
(1.46731 -0.00942696 0)
(1.46253 0.150092 0)
(1.65935 -0.177735 0)
(1.71652 -0.294867 0)
(1.71226 -0.414525 0)
(1.68319 -0.410387 0)
(1.48407 -0.214996 0)
(1.42153 -0.091856 0)
(1.4236 -0.0554586 0)
(1.43925 -0.0355914 0)
(1.4719 -0.00390887 0)
(1.41939 0.181036 0)
(1.63274 -0.141624 0)
(1.7063 -0.292522 0)
(1.70851 -0.403099 0)
(1.68802 -0.420066 0)
(1.51532 -0.236889 0)
(1.43623 -0.10182 0)
(1.43105 -0.0571786 0)
(1.44533 -0.0329147 0)
(1.4759 2.50094e-05 0)
(1.37905 0.191039 0)
(1.60313 -0.122237 0)
(1.6907 -0.283507 0)
(1.70236 -0.395403 0)
(1.69015 -0.426385 0)
(1.54728 -0.258298 0)
(1.45815 -0.110318 0)
(1.43908 -0.0607314 0)
(1.45202 -0.0346878 0)
(1.48018 -0.000667341 0)
(1.34655 0.195298 0)
(1.57393 -0.0833326 0)
(1.6744 -0.276736 0)
(1.69744 -0.397485 0)
(1.69111 -0.433284 0)
(1.57819 -0.285764 0)
(1.4822 -0.123048 0)
(1.44716 -0.0638441 0)
(1.45627 -0.0374526 0)
(1.48219 -0.00205224 0)
(1.32156 0.19676 0)
(1.54901 -0.0543005 0)
(1.65944 -0.255155 0)
(1.69539 -0.399076 0)
(1.68717 -0.439487 0)
(1.60594 -0.319154 0)
(1.50554 -0.14042 0)
(1.45188 -0.0659111 0)
(1.45765 -0.0375023 0)
(1.48279 -0.00122374 0)
(1.30168 0.195855 0)
(1.52153 -0.0263185 0)
(1.63906 -0.223581 0)
(1.69516 -0.3854 0)
(1.68015 -0.441602 0)
(1.62899 -0.352158 0)
(1.52467 -0.160379 0)
(1.45335 -0.0674248 0)
(1.45843 -0.0341555 0)
(1.4835 0.00169762 0)
(1.28325 0.196251 0)
(1.49994 -0.0111153 0)
(1.61984 -0.201256 0)
(1.6863 -0.359768 0)
(1.67986 -0.437729 0)
(1.64523 -0.376582 0)
(1.5409 -0.181822 0)
(1.4503 -0.0675283 0)
(1.45895 -0.0304287 0)
(1.48363 0.00498308 0)
(1.26667 0.194228 0)
(1.47604 0.00864961 0)
(1.602 -0.184857 0)
(1.67116 -0.338026 0)
(1.68009 -0.428841 0)
(1.65625 -0.39347 0)
(1.55878 -0.206963 0)
(1.44613 -0.0713965 0)
(1.46094 -0.0306186 0)
(1.48424 0.00584435 0)
(1.25131 0.190833 0)
(1.45348 0.0235552 0)
(1.58412 -0.163798 0)
(1.65793 -0.327275 0)
(1.67694 -0.419026 0)
(1.66179 -0.404437 0)
(1.57502 -0.232387 0)
(1.44757 -0.0771231 0)
(1.46385 -0.0322232 0)
(1.4857 0.00698869 0)
(1.23716 0.186654 0)
(1.43116 0.0354397 0)
(1.56303 -0.138199 0)
(1.6443 -0.307714 0)
(1.67331 -0.41333 0)
(1.66384 -0.41075 0)
(1.59179 -0.261071 0)
(1.45805 -0.0856191 0)
(1.46556 -0.0327586 0)
(1.48885 0.00896083 0)
(1.22417 0.182643 0)
(1.41111 0.0432991 0)
(1.54276 -0.118875 0)
(1.62979 -0.282036 0)
(1.66836 -0.407819 0)
(1.66233 -0.412632 0)
(1.60829 -0.28853 0)
(1.4739 -0.0954053 0)
(1.46819 -0.0323495 0)
(1.49391 0.0108488 0)
(1.21227 0.17838 0)
(1.39184 0.0508515 0)
(1.5233 -0.103709 0)
(1.61114 -0.254951 0)
(1.66255 -0.393243 0)
(1.66036 -0.412796 0)
(1.62358 -0.313525 0)
(1.49068 -0.105609 0)
(1.47286 -0.0323426 0)
(1.49907 0.0130941 0)
(1.20147 0.17406 0)
(1.37359 0.0575139 0)
(1.5047 -0.0895893 0)
(1.5953 -0.237572 0)
(1.6533 -0.37111 0)
(1.66008 -0.411929 0)
(1.63492 -0.333055 0)
(1.51409 -0.120835 0)
(1.47966 -0.0335066 0)
(1.50387 0.0156898 0)
(1.19154 0.169559 0)
(1.35639 0.0628179 0)
(1.48661 -0.0759392 0)
(1.57903 -0.22038 0)
(1.64004 -0.348855 0)
(1.65971 -0.407895 0)
(1.64427 -0.349688 0)
(1.53237 -0.137672 0)
(1.48732 -0.0363395 0)
(1.51038 0.0178548 0)
(1.18223 0.164872 0)
(1.34031 0.0665084 0)
(1.46814 -0.063168 0)
(1.56393 -0.203731 0)
(1.62907 -0.333976 0)
(1.65709 -0.401836 0)
(1.65127 -0.361316 0)
(1.55537 -0.162315 0)
(1.49491 -0.0403776 0)
(1.51458 0.0195543 0)
(1.17343 0.160085 0)
(1.32514 0.0690255 0)
(1.45145 -0.0538141 0)
(1.54742 -0.18511 0)
(1.61748 -0.315373 0)
(1.65426 -0.396366 0)
(1.65728 -0.369704 0)
(1.57552 -0.187292 0)
(1.5008 -0.0439981 0)
(1.51686 0.0216205 0)
(1.16526 0.155279 0)
(1.31081 0.0706693 0)
(1.43505 -0.0446881 0)
(1.53247 -0.170315 0)
(1.60521 -0.295092 0)
(1.65123 -0.389778 0)
(1.66324 -0.374755 0)
(1.59317 -0.213366 0)
(1.50681 -0.0491126 0)
(1.51889 0.02319 0)
(1.15706 0.150645 0)
(1.29739 0.0720338 0)
(1.42016 -0.0365038 0)
(1.51799 -0.156411 0)
(1.59175 -0.27462 0)
(1.64985 -0.381479 0)
(1.6622 -0.375271 0)
(1.6077 -0.236949 0)
(1.51538 -0.0538387 0)
(1.52356 0.0249038 0)
(0.357497 0.083906 0)
(0.448234 0.131913 0)
(0.499327 0.203763 0)
(0.553901 0.255761 0)
(0.598722 0.298033 0)
(0.64313 0.330214 0)
(0.690734 0.360311 0)
(0.75079 0.389636 0)
(0.833114 0.430348 0)
(0.98147 0.470372 0)
(0.392298 0.118787 0)
(0.459695 0.151045 0)
(0.492366 0.209364 0)
(0.542252 0.255742 0)
(0.58726 0.296518 0)
(0.635593 0.328082 0)
(0.687265 0.358783 0)
(0.750621 0.389118 0)
(0.835351 0.429222 0)
(0.978913 0.45788 0)
(0.451227 0.103664 0)
(0.499134 0.130727 0)
(0.515987 0.179688 0)
(0.556596 0.222294 0)
(0.596738 0.265564 0)
(0.646459 0.301126 0)
(0.700337 0.336366 0)
(0.766284 0.367834 0)
(0.855143 0.407725 0)
(1.00436 0.421905 0)
(0.509546 0.119037 0)
(0.543261 0.145054 0)
(0.555019 0.183956 0)
(0.590914 0.21267 0)
(0.621742 0.247273 0)
(0.663485 0.278613 0)
(0.710943 0.312705 0)
(0.774496 0.342827 0)
(0.864231 0.379767 0)
(1.01315 0.385659 0)
(0.565284 0.118683 0)
(0.590626 0.139303 0)
(0.598798 0.174436 0)
(0.629822 0.204744 0)
(0.653626 0.239607 0)
(0.691603 0.268164 0)
(0.735225 0.299218 0)
(0.796661 0.324712 0)
(0.88441 0.357047 0)
(1.02693 0.356441 0)
(0.620274 0.13116 0)
(0.639376 0.151853 0)
(0.644846 0.183201 0)
(0.671126 0.208485 0)
(0.690564 0.238898 0)
(0.725911 0.263416 0)
(0.766488 0.29184 0)
(0.825391 0.312424 0)
(0.908573 0.338928 0)
(1.04344 0.335665 0)
(0.67051 0.141673 0)
(0.685054 0.160286 0)
(0.688517 0.187156 0)
(0.710715 0.209911 0)
(0.727458 0.238196 0)
(0.760753 0.260208 0)
(0.799034 0.285935 0)
(0.855541 0.30264 0)
(0.933737 0.322963 0)
(1.05827 0.317563 0)
(0.715549 0.152596 0)
(0.724723 0.168765 0)
(0.72663 0.191934 0)
(0.745451 0.211982 0)
(0.760775 0.236911 0)
(0.792132 0.255372 0)
(0.828301 0.278429 0)
(0.882518 0.292604 0)
(0.955518 0.307788 0)
(1.06654 0.300856 0)
(0.75249 0.164969 0)
(0.757247 0.177435 0)
(0.75891 0.195687 0)
(0.774831 0.212316 0)
(0.789342 0.234122 0)
(0.818903 0.249731 0)
(0.853167 0.269761 0)
(0.904223 0.280662 0)
(0.971834 0.292871 0)
(1.07134 0.286255 0)
(0.777903 0.17456 0)
(0.781819 0.184381 0)
(0.784935 0.198781 0)
(0.799238 0.212293 0)
(0.813702 0.230881 0)
(0.841712 0.243761 0)
(0.874255 0.26111 0)
(0.922545 0.270225 0)
(0.983912 0.277997 0)
(1.07399 0.272197 0)
(0.795485 0.179972 0)
(0.801421 0.187668 0)
(0.806225 0.199327 0)
(0.820028 0.210425 0)
(0.834722 0.226365 0)
(0.861284 0.237141 0)
(0.892141 0.252146 0)
(0.937394 0.259713 0)
(0.994352 0.265816 0)
(1.07507 0.259164 0)
(0.810699 0.182312 0)
(0.819105 0.188164 0)
(0.824958 0.198156 0)
(0.838643 0.207618 0)
(0.853452 0.221404 0)
(0.878566 0.230408 0)
(0.907772 0.243338 0)
(0.949947 0.249615 0)
(1.00274 0.254031 0)
(1.07558 0.247458 0)
(0.82569 0.18265 0)
(0.835816 0.187345 0)
(0.842133 0.196119 0)
(0.855572 0.204112 0)
(0.87017 0.215956 0)
(0.89378 0.223505 0)
(0.921308 0.234517 0)
(0.960606 0.239924 0)
(1.00912 0.242749 0)
(1.07506 0.236549 0)
(0.839954 0.18187 0)
(0.851062 0.18579 0)
(0.857634 0.193544 0)
(0.870687 0.20023 0)
(0.884879 0.210325 0)
(0.906989 0.216624 0)
(0.932892 0.225891 0)
(0.969396 0.230481 0)
(1.01416 0.232322 0)
(1.07387 0.226447 0)
(0.852822 0.180058 0)
(0.864268 0.183345 0)
(0.871005 0.190183 0)
(0.883598 0.195679 0)
(0.897341 0.204241 0)
(0.918074 0.209557 0)
(0.942495 0.21736 0)
(0.97643 0.221296 0)
(1.01786 0.222436 0)
(1.07238 0.217132 0)
(0.864165 0.177416 0)
(0.875374 0.179978 0)
(0.882174 0.185858 0)
(0.894334 0.190381 0)
(0.907697 0.19774 0)
(0.927203 0.202344 0)
(0.950246 0.208905 0)
(0.981852 0.21234 0)
(1.02042 0.213038 0)
(1.07047 0.208207 0)
(0.873399 0.173033 0)
(0.884486 0.17517 0)
(0.891435 0.180488 0)
(0.903219 0.184318 0)
(0.916173 0.190728 0)
(0.934686 0.195034 0)
(0.956655 0.200796 0)
(0.986183 0.20384 0)
(1.02213 0.204144 0)
(1.0682 0.199728 0)
(0.880387 0.166785 0)
(0.891608 0.16859 0)
(0.898992 0.173803 0)
(0.910916 0.178035 0)
(0.923687 0.184087 0)
(0.941063 0.18799 0)
(0.961687 0.192846 0)
(0.989347 0.195612 0)
(1.02309 0.19573 0)
(1.06581 0.191741 0)
(0.886138 0.158868 0)
(0.898246 0.161993 0)
(0.905811 0.167338 0)
(0.917378 0.171473 0)
(0.929943 0.17733 0)
(0.946823 0.181504 0)
(0.966666 0.185866 0)
(0.992475 0.188146 0)
(1.0239 0.187983 0)
(1.06337 0.184266 0)
(0.890332 0.149851 0)
(0.903778 0.154812 0)
(0.912116 0.161768 0)
(0.923616 0.166154 0)
(0.935556 0.171185 0)
(0.951341 0.174957 0)
(0.970309 0.178874 0)
(0.994824 0.181164 0)
(1.02448 0.180859 0)
(1.06137 0.177494 0)
(2.07687 1.8167e-07 0)
(2.06672 -6.92957e-07 0)
(2.05555 1.44033e-06 0)
(2.04317 -2.90721e-06 0)
(2.02943 4.45013e-06 0)
(2.01436 -9.80967e-06 0)
(1.99566 1.44206e-05 0)
(1.98326 -2.43117e-05 0)
(1.08137 0.0100619 0)
(0.401375 0.0195529 0)
(2.07687 5.34825e-07 0)
(2.06672 -2.01138e-06 0)
(2.05555 4.14492e-06 0)
(2.04317 -8.31208e-06 0)
(2.02943 1.28113e-05 0)
(2.01436 -2.82496e-05 0)
(1.99567 4.51197e-05 0)
(1.98328 -8.00669e-05 0)
(1.08552 0.0311497 0)
(0.436977 0.0467974 0)
(2.07687 8.80173e-07 0)
(2.06672 -3.30431e-06 0)
(2.05555 6.82743e-06 0)
(2.04317 -1.36661e-05 0)
(2.02943 2.10447e-05 0)
(2.01436 -4.58889e-05 0)
(1.99568 7.29132e-05 0)
(1.98329 -0.000151851 0)
(1.09919 0.051149 0)
(0.488431 0.0671456 0)
(2.07687 1.21067e-06 0)
(2.06672 -4.54139e-06 0)
(2.05555 9.42907e-06 0)
(2.04317 -1.8845e-05 0)
(2.02943 2.90561e-05 0)
(2.01436 -6.24597e-05 0)
(1.9957 9.67743e-05 0)
(1.98332 -0.000194115 0)
(1.11862 0.0671396 0)
(0.546145 0.0875582 0)
(2.07687 1.52185e-06 0)
(2.06672 -5.70455e-06 0)
(2.05555 1.1919e-05 0)
(2.04317 -2.37807e-05 0)
(2.02943 3.6716e-05 0)
(2.01437 -7.793e-05 0)
(1.99571 0.000119281 0)
(1.98332 -0.00030016 0)
(1.13901 0.0803232 0)
(0.603524 0.103442 0)
(2.07687 1.80956e-06 0)
(2.06672 -6.77958e-06 0)
(2.05555 1.42701e-05 0)
(2.04317 -2.84143e-05 0)
(2.02943 4.39184e-05 0)
(2.01437 -9.1777e-05 0)
(1.99572 0.000139961 0)
(1.98323 -0.000432365 0)
(1.15926 0.0902358 0)
(0.652717 0.117883 0)
(2.07687 2.07071e-06 0)
(2.06672 -7.75633e-06 0)
(2.05555 1.64604e-05 0)
(2.04318 -3.27118e-05 0)
(2.02942 5.06783e-05 0)
(2.01438 -0.000104472 0)
(1.99572 0.000157793 0)
(1.98308 -0.000471363 0)
(1.1768 0.0973859 0)
(0.694262 0.12831 0)
(2.07687 2.30292e-06 0)
(2.06672 -8.62968e-06 0)
(2.05555 1.84731e-05 0)
(2.04318 -3.66443e-05 0)
(2.02942 5.69705e-05 0)
(2.01438 -0.000116279 0)
(1.99572 0.000178907 0)
(1.98298 -0.000546599 0)
(1.1909 0.105021 0)
(0.728317 0.135822 0)
(2.07687 2.50678e-06 0)
(2.06672 -9.39964e-06 0)
(2.05555 2.02982e-05 0)
(2.04318 -4.01975e-05 0)
(2.02942 6.27343e-05 0)
(2.01439 -0.000126569 0)
(1.99573 0.000197626 0)
(1.98288 -0.00058759 0)
(1.20638 0.111673 0)
(0.755862 0.139932 0)
(2.07687 2.68208e-06 0)
(2.06672 -1.00707e-05 0)
(2.05555 2.19344e-05 0)
(2.04318 -4.33862e-05 0)
(2.02942 6.80732e-05 0)
(2.01439 -0.000135973 0)
(1.99573 0.000216945 0)
(1.9828 -0.000624826 0)
(1.22451 0.118004 0)
(0.778886 0.142236 0)
(2.07687 2.83041e-06 0)
(2.06672 -1.06501e-05 0)
(2.05555 2.33857e-05 0)
(2.04319 -4.62157e-05 0)
(2.02942 7.29324e-05 0)
(2.0144 -0.000144112 0)
(1.99574 0.000234444 0)
(1.98272 -0.000649592 0)
(1.24523 0.123032 0)
(0.798763 0.143146 0)
(2.07687 2.95435e-06 0)
(2.06672 -1.11464e-05 0)
(2.05555 2.46637e-05 0)
(2.04319 -4.87155e-05 0)
(2.02942 7.73896e-05 0)
(2.0144 -0.000151316 0)
(1.99574 0.000251023 0)
(1.98264 -0.000667229 0)
(1.26719 0.126851 0)
(0.815717 0.144391 0)
(2.07687 3.05671e-06 0)
(2.06672 -1.15689e-05 0)
(2.05555 2.57809e-05 0)
(2.04319 -5.09063e-05 0)
(2.02942 8.14368e-05 0)
(2.01441 -0.000157537 0)
(1.99575 0.000265956 0)
(1.98257 -0.000678449 0)
(1.28907 0.129472 0)
(0.830187 0.145024 0)
(2.07687 3.14073e-06 0)
(2.06672 -1.19273e-05 0)
(2.05555 2.67521e-05 0)
(2.04319 -5.28192e-05 0)
(2.02942 8.51174e-05 0)
(2.01441 -0.000162928 0)
(1.99576 0.000279294 0)
(1.98252 -0.000683514 0)
(1.31018 0.131055 0)
(0.84252 0.14526 0)
(2.07687 3.2098e-06 0)
(2.06672 -1.22318e-05 0)
(2.05555 2.75922e-05 0)
(2.04319 -5.44817e-05 0)
(2.02942 8.84596e-05 0)
(2.01442 -0.000167568 0)
(1.99576 0.00029093 0)
(1.98247 -0.00068471 0)
(1.33039 0.131831 0)
(0.853161 0.145005 0)
(2.07687 3.26706e-06 0)
(2.06672 -1.24913e-05 0)
(2.05555 2.83157e-05 0)
(2.04319 -5.5919e-05 0)
(2.02942 9.15011e-05 0)
(2.01442 -0.000171515 0)
(1.99577 0.000300931 0)
(1.98242 -0.00068181 0)
(1.34977 0.132036 0)
(0.8625 0.144417 0)
(2.07687 3.31504e-06 0)
(2.06672 -1.27133e-05 0)
(2.05555 2.89391e-05 0)
(2.04319 -5.71533e-05 0)
(2.02942 9.4271e-05 0)
(2.01442 -0.000174835 0)
(1.99577 0.000309419 0)
(1.98239 -0.00067744 0)
(1.36851 0.132152 0)
(0.870797 0.143529 0)
(2.07687 3.35554e-06 0)
(2.06672 -1.29041e-05 0)
(2.05555 2.94794e-05 0)
(2.0432 -5.82031e-05 0)
(2.02942 9.67924e-05 0)
(2.01443 -0.000177551 0)
(1.99578 0.00031647 0)
(1.98236 -0.000671003 0)
(1.38716 0.132317 0)
(0.878113 0.142472 0)
(2.07687 3.38986e-06 0)
(2.06672 -1.3069e-05 0)
(2.05555 2.99498e-05 0)
(2.0432 -5.90928e-05 0)
(2.02942 9.90937e-05 0)
(2.01443 -0.000179717 0)
(1.99579 0.000322223 0)
(1.98233 -0.000662774 0)
(1.40611 0.132237 0)
(0.884597 0.141121 0)
(2.07687 3.41821e-06 0)
(2.06672 -1.32117e-05 0)
(2.05555 3.03584e-05 0)
(2.0432 -5.98409e-05 0)
(2.02942 0.000101159 0)
(2.01443 -0.000181377 0)
(1.99579 0.000326992 0)
(1.9823 -0.000653225 0)
(1.42526 0.131446 0)
(0.890838 0.139315 0)
(2.07687 -3.41665e-06 0)
(2.06672 1.32081e-05 0)
(2.05555 -3.03525e-05 0)
(2.0432 5.9836e-05 0)
(2.02942 -0.000101155 0)
(2.01443 0.000181379 0)
(1.99579 -0.000327019 0)
(1.9823 0.000653241 0)
(1.42533 -0.131396 0)
(0.890817 -0.139326 0)
(2.07687 -3.38821e-06 0)
(2.06672 1.30653e-05 0)
(2.05555 -2.9944e-05 0)
(2.0432 5.90887e-05 0)
(2.02942 -9.90923e-05 0)
(2.01443 0.00017972 0)
(1.99579 -0.000322248 0)
(1.98233 0.000662776 0)
(1.40618 -0.132191 0)
(0.884581 -0.141126 0)
(2.07687 -3.35381e-06 0)
(2.06672 1.29003e-05 0)
(2.05555 -2.94738e-05 0)
(2.0432 5.82005e-05 0)
(2.02942 -9.67952e-05 0)
(2.01443 0.000177555 0)
(1.99578 -0.000316497 0)
(1.98236 0.000670997 0)
(1.38722 -0.132275 0)
(0.878106 -0.142471 0)
(2.07687 -3.31318e-06 0)
(2.06672 1.27092e-05 0)
(2.05555 -2.89338e-05 0)
(2.04319 5.71525e-05 0)
(2.02942 -9.42781e-05 0)
(2.01442 0.000174842 0)
(1.99577 -0.000309453 0)
(1.98239 0.000677445 0)
(1.36857 -0.132108 0)
(0.870801 -0.143526 0)
(2.07687 -3.26503e-06 0)
(2.06672 1.2487e-05 0)
(2.05555 -2.83104e-05 0)
(2.04319 5.59199e-05 0)
(2.02942 -9.15121e-05 0)
(2.01442 0.000171527 0)
(1.99577 -0.000300977 0)
(1.98242 0.000681829 0)
(1.34983 -0.13199 0)
(0.862508 -0.144417 0)
(2.07687 -3.20757e-06 0)
(2.06672 1.22271e-05 0)
(2.05555 -2.75869e-05 0)
(2.04319 5.44839e-05 0)
(2.02942 -8.84733e-05 0)
(2.01442 0.000167586 0)
(1.99576 -0.000290988 0)
(1.98247 0.000684738 0)
(1.33046 -0.131792 0)
(0.853166 -0.145006 0)
(2.07687 -3.13832e-06 0)
(2.06672 1.19223e-05 0)
(2.05555 -2.67467e-05 0)
(2.04319 5.28222e-05 0)
(2.02942 -8.51331e-05 0)
(2.01441 0.000162954 0)
(1.99576 -0.000279365 0)
(1.98252 0.000683575 0)
(1.31026 -0.131016 0)
(0.842517 -0.145267 0)
(2.07687 -3.05416e-06 0)
(2.06672 1.15636e-05 0)
(2.05555 -2.57754e-05 0)
(2.04319 5.091e-05 0)
(2.02942 -8.14543e-05 0)
(2.01441 0.000157568 0)
(1.99575 -0.000266034 0)
(1.98257 0.000678516 0)
(1.28914 -0.129439 0)
(0.830169 -0.145031 0)
(2.07687 -2.95169e-06 0)
(2.06672 1.11409e-05 0)
(2.05555 -2.46584e-05 0)
(2.04319 4.87199e-05 0)
(2.02942 -7.7409e-05 0)
(2.0144 0.000151352 0)
(1.99574 -0.000251101 0)
(1.98264 0.000667311 0)
(1.26725 -0.126827 0)
(0.815676 -0.1444 0)
(2.07687 -2.82767e-06 0)
(2.06672 1.06445e-05 0)
(2.05555 -2.33808e-05 0)
(2.04319 4.62213e-05 0)
(2.02942 -7.2954e-05 0)
(2.0144 0.00014415 0)
(1.99574 -0.000234512 0)
(1.98272 0.000649687 0)
(1.24528 -0.123014 0)
(0.798698 -0.143157 0)
(2.07687 -2.67929e-06 0)
(2.06672 1.0065e-05 0)
(2.05555 -2.19301e-05 0)
(2.04318 4.33934e-05 0)
(2.02942 -6.80982e-05 0)
(2.01439 0.000136014 0)
(1.99573 -0.000217001 0)
(1.9828 0.000625016 0)
(1.22457 -0.11799 0)
(0.778807 -0.142281 0)
(2.07687 -2.50397e-06 0)
(2.06672 9.39392e-06 0)
(2.05555 -2.02947e-05 0)
(2.04318 4.02069e-05 0)
(2.02942 -6.27643e-05 0)
(2.01439 0.000126612 0)
(1.99573 -0.000197653 0)
(1.98288 0.000587846 0)
(1.20647 -0.111665 0)
(0.755785 -0.139968 0)
(2.07687 -2.30007e-06 0)
(2.06672 8.62402e-06 0)
(2.05555 -1.84705e-05 0)
(2.04318 3.66565e-05 0)
(2.02942 -5.70066e-05 0)
(2.01438 0.000116325 0)
(1.99572 -0.000178904 0)
(1.98298 0.000546947 0)
(1.19102 -0.10502 0)
(0.728241 -0.135856 0)
(2.07687 -2.06784e-06 0)
(2.06672 7.75075e-06 0)
(2.05555 -1.64588e-05 0)
(2.04318 3.27272e-05 0)
(2.02942 -5.07223e-05 0)
(2.01438 0.00010453 0)
(1.99572 -0.00015776 0)
(1.98308 0.000471685 0)
(1.17692 -0.0974072 0)
(0.694193 -0.128313 0)
(2.07687 -1.80668e-06 0)
(2.06672 6.77407e-06 0)
(2.05555 -1.42694e-05 0)
(2.04317 2.84325e-05 0)
(2.02943 -4.39696e-05 0)
(2.01437 9.18495e-05 0)
(1.99572 -0.000139901 0)
(1.98323 0.000432297 0)
(1.15937 -0.090272 0)
(0.652664 -0.11789 0)
(2.07687 -1.51895e-06 0)
(2.06672 5.6991e-06 0)
(2.05555 -1.19191e-05 0)
(2.04317 2.38018e-05 0)
(2.02943 -3.67753e-05 0)
(2.01437 7.80283e-05 0)
(1.99571 -0.000119243 0)
(1.98332 0.000300629 0)
(1.13908 -0.0803732 0)
(0.603495 -0.103434 0)
(2.07687 -1.20774e-06 0)
(2.06672 4.53598e-06 0)
(2.05555 -9.42982e-06 0)
(2.04317 1.88679e-05 0)
(2.02943 -2.91186e-05 0)
(2.01436 6.25827e-05 0)
(1.9957 -9.68162e-05 0)
(1.98333 0.000193749 0)
(1.11868 -0.0672021 0)
(0.546119 -0.0875502 0)
(2.07687 -8.77231e-07 0)
(2.06672 3.29895e-06 0)
(2.05555 -6.82879e-06 0)
(2.04317 1.36913e-05 0)
(2.02943 -2.1116e-05 0)
(2.01436 4.60786e-05 0)
(1.99568 -7.30508e-05 0)
(1.9833 0.000150063 0)
(1.09924 -0.0512215 0)
(0.488403 -0.0671327 0)
(2.07687 -5.31866e-07 0)
(2.06672 2.00603e-06 0)
(2.05555 -4.14655e-06 0)
(2.04317 8.33712e-06 0)
(2.02943 -1.28723e-05 0)
(2.01436 2.83629e-05 0)
(1.99567 -4.52436e-05 0)
(1.98328 8.21984e-05 0)
(1.08555 -0.031233 0)
(0.436941 -0.0467937 0)
(2.07687 -1.78693e-07 0)
(2.06672 6.87604e-07 0)
(2.05555 -1.44217e-06 0)
(2.04317 2.93295e-06 0)
(2.02943 -4.51494e-06 0)
(2.01436 1.00312e-05 0)
(1.99567 -1.5693e-05 0)
(1.98327 2.79863e-05 0)
(1.0814 -0.0101506 0)
(0.401355 -0.0195229 0)
(0.890247 -0.149919 0)
(0.903666 -0.154932 0)
(0.911968 -0.161917 0)
(0.923431 -0.166331 0)
(0.935325 -0.171374 0)
(0.951059 -0.175136 0)
(0.969984 -0.179015 0)
(0.994496 -0.181278 0)
(1.0242 -0.180914 0)
(1.0612 -0.177449 0)
(0.886027 -0.158956 0)
(0.898112 -0.162128 0)
(0.905635 -0.167494 0)
(0.917159 -0.171643 0)
(0.929672 -0.177501 0)
(0.946515 -0.181668 0)
(0.966338 -0.185996 0)
(0.992168 -0.188249 0)
(1.02366 -0.188007 0)
(1.06327 -0.18418 0)
(0.880238 -0.166903 0)
(0.891433 -0.168735 0)
(0.898774 -0.173953 0)
(0.91066 -0.178196 0)
(0.923398 -0.184257 0)
(0.940755 -0.188154 0)
(0.961374 -0.192973 0)
(0.989064 -0.195695 0)
(1.02289 -0.195728 0)
(1.06578 -0.191606 0)
(0.873227 -0.173164 0)
(0.884277 -0.175319 0)
(0.891192 -0.180646 0)
(0.902944 -0.184482 0)
(0.915869 -0.190895 0)
(0.93437 -0.195185 0)
(0.956348 -0.200908 0)
(0.985929 -0.203904 0)
(1.02197 -0.204086 0)
(1.06826 -0.199526 0)
(0.863992 -0.177569 0)
(0.875149 -0.180138 0)
(0.88191 -0.186016 0)
(0.894039 -0.190536 0)
(0.90738 -0.197894 0)
(0.926885 -0.202477 0)
(0.949957 -0.208996 0)
(0.981634 -0.212374 0)
(1.02034 -0.212934 0)
(1.07063 -0.207929 0)
(0.852643 -0.180192 0)
(0.86403 -0.183489 0)
(0.870728 -0.190325 0)
(0.88329 -0.195818 0)
(0.897019 -0.204377 0)
(0.917762 -0.209665 0)
(0.942226 -0.217417 0)
(0.976267 -0.221307 0)
(1.01786 -0.222271 0)
(1.07267 -0.216779 0)
(0.839782 -0.181977 0)
(0.850821 -0.185908 0)
(0.857355 -0.193659 0)
(0.870378 -0.200343 0)
(0.884564 -0.210437 0)
(0.906694 -0.216703 0)
(0.932657 -0.225914 0)
(0.969285 -0.230465 0)
(1.01426 -0.232101 0)
(1.0743 -0.226034 0)
(0.825548 -0.18272 0)
(0.835598 -0.187431 0)
(0.841877 -0.196204 0)
(0.855284 -0.204201 0)
(0.869879 -0.216043 0)
(0.893515 -0.223558 0)
(0.92112 -0.234509 0)
(0.960564 -0.239852 0)
(1.00935 -0.242491 0)
(1.07562 -0.236022 0)
(0.810614 -0.182348 0)
(0.818939 -0.18822 0)
(0.824752 -0.198211 0)
(0.838397 -0.207681 0)
(0.853203 -0.221468 0)
(0.878344 -0.230439 0)
(0.907644 -0.243305 0)
(0.949995 -0.249519 0)
(1.00309 -0.253728 0)
(1.07642 -0.246869 0)
(0.795459 -0.179949 0)
(0.801315 -0.187672 0)
(0.806071 -0.19934 0)
(0.819831 -0.210455 0)
(0.834519 -0.226402 0)
(0.861112 -0.237151 0)
(0.892079 -0.252095 0)
(0.937524 -0.259594 0)
(0.994861 -0.265533 0)
(1.07613 -0.258536 0)
(0.777865 -0.174465 0)
(0.781735 -0.184303 0)
(0.784807 -0.198726 0)
(0.799082 -0.212276 0)
(0.813542 -0.230889 0)
(0.841591 -0.243759 0)
(0.87426 -0.261045 0)
(0.922788 -0.270129 0)
(0.984571 -0.277627 0)
(1.07521 -0.271456 0)
(0.752353 -0.164841 0)
(0.757119 -0.177321 0)
(0.758773 -0.195597 0)
(0.774702 -0.212264 0)
(0.789222 -0.234103 0)
(0.81883 -0.249716 0)
(0.853242 -0.269698 0)
(0.904556 -0.280572 0)
(0.972658 -0.29251 0)
(1.07292 -0.285558 0)
(0.715338 -0.152454 0)
(0.724556 -0.168641 0)
(0.726487 -0.191843 0)
(0.745342 -0.211922 0)
(0.760693 -0.236881 0)
(0.792107 -0.25536 0)
(0.828444 -0.278381 0)
(0.882946 -0.292514 0)
(0.956468 -0.30744 0)
(1.06833 -0.300193 0)
(0.670341 -0.141634 0)
(0.684911 -0.16024 0)
(0.688399 -0.187111 0)
(0.710626 -0.209868 0)
(0.727404 -0.238161 0)
(0.760758 -0.260191 0)
(0.79922 -0.285882 0)
(0.856029 -0.30259 0)
(0.934896 -0.322755 0)
(1.06026 -0.316728 0)
(0.62016 -0.131121 0)
(0.639264 -0.1518 0)
(0.644747 -0.183148 0)
(0.671048 -0.208433 0)
(0.690526 -0.238852 0)
(0.725932 -0.263399 0)
(0.7667 -0.291804 0)
(0.825917 -0.31244 0)
(0.90987 -0.338826 0)
(1.04571 -0.334728 0)
(0.565193 -0.118661 0)
(0.59053 -0.139271 0)
(0.59871 -0.174401 0)
(0.629751 -0.204708 0)
(0.6536 -0.239574 0)
(0.691632 -0.26817 0)
(0.735439 -0.29922 0)
(0.797185 -0.324813 0)
(0.885791 -0.357102 0)
(1.02942 -0.355891 0)
(0.509484 -0.119023 0)
(0.543188 -0.145037 0)
(0.554947 -0.183933 0)
(0.590848 -0.212645 0)
(0.621716 -0.247241 0)
(0.6635 -0.278617 0)
(0.711116 -0.312704 0)
(0.774932 -0.342958 0)
(0.865494 -0.379977 0)
(1.01556 -0.385579 0)
(0.451171 -0.103636 0)
(0.499064 -0.130696 0)
(0.515917 -0.179651 0)
(0.556523 -0.222259 0)
(0.596695 -0.265515 0)
(0.646444 -0.301112 0)
(0.700458 -0.336345 0)
(0.766627 -0.367946 0)
(0.856084 -0.407983 0)
(1.00673 -0.422256 0)
(0.392229 -0.118761 0)
(0.459611 -0.151008 0)
(0.492284 -0.209317 0)
(0.542166 -0.255696 0)
(0.587203 -0.296462 0)
(0.635566 -0.328059 0)
(0.687354 -0.358765 0)
(0.750914 -0.389234 0)
(0.8362 -0.429512 0)
(0.980879 -0.458581 0)
(0.357423 -0.0838791 0)
(0.448143 -0.131882 0)
(0.499237 -0.203721 0)
(0.553801 -0.255718 0)
(0.598652 -0.297974 0)
(0.643089 -0.330185 0)
(0.690802 -0.360279 0)
(0.751037 -0.389731 0)
(0.833826 -0.430435 0)
(0.983455 -0.471207 0)
(1.15742 -0.150155 0)
(1.2987 -0.0702726 0)
(1.42041 0.0389049 0)
(1.51628 0.15677 0)
(1.58887 0.268984 0)
(1.65102 0.374018 0)
(1.66387 0.378096 0)
(1.61014 0.249689 0)
(1.51331 0.0600446 0)
(1.52319 -0.024075 0)
(1.16573 -0.154664 0)
(1.31227 -0.0687641 0)
(1.43587 0.0476989 0)
(1.53008 0.16992 0)
(1.60085 0.286131 0)
(1.65624 0.388905 0)
(1.66434 0.37814 0)
(1.59442 0.227548 0)
(1.50359 0.0542979 0)
(1.51806 -0.0227603 0)
(1.17401 -0.159327 0)
(1.32691 -0.0667303 0)
(1.45161 0.0559346 0)
(1.54453 0.184247 0)
(1.61303 0.305326 0)
(1.65849 0.395446 0)
(1.66323 0.377472 0)
(1.57679 0.203967 0)
(1.49668 0.048709 0)
(1.51557 -0.0212788 0)
(1.1829 -0.163974 0)
(1.34225 -0.0640796 0)
(1.46909 0.0665567 0)
(1.55983 0.201262 0)
(1.62437 0.322626 0)
(1.66094 0.401381 0)
(1.65899 0.371152 0)
(1.55672 0.17945 0)
(1.4904 0.0446767 0)
(1.51317 -0.0189357 0)
(1.19237 -0.168575 0)
(1.35859 -0.0602718 0)
(1.48653 0.0781719 0)
(1.57441 0.217593 0)
(1.63578 0.339019 0)
(1.66422 0.408651 0)
(1.65337 0.361669 0)
(1.53432 0.156368 0)
(1.48275 0.0404408 0)
(1.50915 -0.0170511 0)
(1.20244 -0.173026 0)
(1.37589 -0.0552208 0)
(1.50509 0.0927146 0)
(1.58954 0.234336 0)
(1.64707 0.358506 0)
(1.66521 0.412893 0)
(1.64575 0.346377 0)
(1.51053 0.135328 0)
(1.47412 0.0370315 0)
(1.5037 -0.0153058 0)
(1.21335 -0.177287 0)
(1.39436 -0.0487133 0)
(1.52317 0.106122 0)
(1.6044 0.252474 0)
(1.65789 0.382938 0)
(1.66602 0.412708 0)
(1.63585 0.323064 0)
(1.49123 0.120307 0)
(1.46586 0.0353166 0)
(1.49798 -0.0136596 0)
(1.22532 -0.181352 0)
(1.41366 -0.0416486 0)
(1.54336 0.123455 0)
(1.62127 0.280364 0)
(1.66539 0.395528 0)
(1.66605 0.409592 0)
(1.62428 0.294163 0)
(1.46764 0.105631 0)
(1.45929 0.0337718 0)
(1.49293 -0.0119694 0)
(1.23835 -0.185258 0)
(1.43442 -0.0327569 0)
(1.56296 0.142672 0)
(1.63424 0.308745 0)
(1.67176 0.398881 0)
(1.66699 0.404008 0)
(1.61012 0.263144 0)
(1.4516 0.0967181 0)
(1.45565 0.0323421 0)