/*--------------------------------*- C++ -*----------------------------------*\
  =========                 |
  \\      /  F ield         | OpenFOAM: The Open Source CFD Toolbox
   \\    /   O peration     | Website:  https://openfoam.org
    \\  /    A nd           | Version:  8
     \\/     M anipulation  |
\*---------------------------------------------------------------------------*/
FoamFile
{
    version     2.0;
    format      ascii;
    class       volScalarField;
    location    "4.9";
    object      p;
}
// * * * * * * * * * * * * * * * * * * * * * * * * * * * * * * * * * * * * * //

dimensions      [1 -1 -2 0 0 0 0];

internalField   nonuniform List<scalar> 
2600
(
1.08324
1.30563
1.57079
1.6876
1.59103
1.37975
2.33176
2.96289
3.17655
3.12434
1.08377
1.29208
1.56948
1.69097
1.60074
1.34365
2.31324
2.95279
3.17125
3.13498
1.09409
1.27953
1.55264
1.69463
1.60283
1.32063
2.29696
2.94087
3.16677
3.14184
1.12403
1.26148
1.51725
1.68704
1.59204
1.31077
2.28983
2.92814
3.15512
3.14516
1.15363
1.24575
1.4779
1.66639
1.5694
1.31307
2.28958
2.91414
3.14456
3.14833
1.19126
1.23557
1.43687
1.62684
1.54164
1.33693
2.29978
2.9019
3.1238
3.14728
1.21476
1.22898
1.39188
1.56817
1.51426
1.38223
2.31373
2.8811
3.1067
3.14723
1.24162
1.22764
1.3429
1.49496
1.48631
1.44755
2.32875
2.86004
3.08018
3.14669
1.26232
1.22688
1.29279
1.42135
1.4601
1.53767
2.34939
2.83243
3.05275
3.14312
1.28376
1.23048
1.2456
1.33916
1.44121
1.63958
2.37281
2.80367
3.03517
3.13659
1.30314
1.2317
1.20574
1.26365
1.43305
1.75168
2.41348
2.77491
3.0159
3.13482
1.32146
1.23341
1.17164
1.19517
1.43117
1.86215
2.46306
2.7439
2.99481
3.13129
1.33937
1.23508
1.14189
1.13707
1.45672
1.97485
2.52562
2.71821
2.97428
3.13274
1.35803
1.23494
1.11733
1.09331
1.48393
2.05339
2.5871
2.69269
2.95012
3.12933
1.37604
1.2403
1.09547
1.05714
1.53489
2.13766
2.65159
2.66774
2.92735
3.12797
1.39076
1.25526
1.08042
1.03637
1.58735
2.21431
2.70055
2.64142
2.90337
3.12808
1.40464
1.26698
1.07544
1.02453
1.6294
2.28418
2.72979
2.61631
2.87841
3.12647
1.41639
1.2798
1.06568
1.01561
1.66533
2.35339
2.73822
2.59602
2.85547
3.1259
1.42988
1.29077
1.06106
1.0134
1.67979
2.3936
2.74883
2.57067
2.839
3.11938
1.41168
1.30795
1.05384
1.01342
1.6902
2.4185
2.76113
2.55229
2.83013
3.10839
1.65142
1.30162
1.05423
1.01353
1.70069
2.43587
2.76732
2.54495
2.83104
3.09254
1.92083
1.33976
1.0583
1.02687
1.70821
2.43883
2.77511
2.54207
2.84863
3.06664
2.16364
1.37571
1.05028
1.04235
1.70859
2.44951
2.76667
2.54428
2.86986
3.04148
2.3571
1.44334
1.04991
1.05774
1.71708
2.46048
2.7605
2.55764
2.8827
3.02443
2.58146
1.53912
1.04782
1.06661
1.7229
2.46891
2.74598
2.58697
2.89135
3.01292
2.77632
1.64108
1.0503
1.08027
1.71897
2.48554
2.73
2.61549
2.89979
3.00135
2.98104
1.77003
1.06516
1.09877
1.70531
2.5007
2.72815
2.61392
2.90215
2.99003
3.16171
1.89734
1.08479
1.12976
1.68746
2.51202
2.74654
2.59571
2.88454
2.97009
3.33214
2.03344
1.12634
1.17458
1.66975
2.508
2.76918
2.57879
2.8486
2.94635
3.48678
2.15309
1.18677
1.2299
1.66103
2.49516
2.75924
2.56008
2.81364
2.91739
3.61794
2.26709
1.27592
1.30082
1.66646
2.47844
2.72754
2.55026
2.79088
2.88964
3.74131
2.35983
1.38861
1.37309
1.68932
2.46791
2.70079
2.55148
2.77944
2.86318
3.82066
2.45073
1.52658
1.45314
1.73966
2.47434
2.67741
2.55349
2.77701
2.83877
3.89038
2.54183
1.66121
1.52776
1.80679
2.48695
2.64721
2.56081
2.78327
2.82553
3.94542
2.63051
1.78525
1.61727
1.88668
2.49705
2.63131
2.57942
2.7985
2.8015
3.98302
2.7287
1.90552
1.71867
1.96856
2.50675
2.6235
2.59397
2.7975
2.78615
4.0186
2.82787
2.02759
1.83455
2.05187
2.51801
2.61799
2.60169
2.79103
2.77108
4.04668
2.93181
2.15222
1.96595
2.13503
2.52978
2.61064
2.60033
2.77492
2.75139
3.96782
3.05259
2.29235
2.10394
2.21721
2.54266
2.60027
2.58942
2.74841
2.72728
3.88906
3.18594
2.44308
2.24428
2.30194
2.55971
2.58309
2.56244
2.70512
2.69577
5.65383
6.19235
5.99622
5.89114
5.80431
5.72538
5.61956
5.45382
5.18626
4.75461
5.01844
5.81878
5.67946
5.68762
5.68141
5.6365
5.51034
5.32335
5.01771
4.45051
4.38831
5.76916
5.90018
5.87696
5.80432
5.69265
5.53018
5.34999
5.04205
4.46537
2.56462
5.01915
5.8933
5.8022
5.68436
5.57915
5.42036
5.23968
4.95679
4.43973
1.56016
2.95964
5.51852
5.81817
5.70336
5.59544
5.45451
5.28756
4.95124
4.50139
1.32155
1.4582
3.74199
5.59953
5.7012
5.56274
5.42671
5.26852
4.91256
4.57226
1.26557
1.27107
1.63836
4.42785
5.64353
5.57294
5.43783
5.27296
4.91504
4.62253
1.22216
1.23189
1.24547
2.10896
5.14436
5.5951
5.44627
5.27237
4.95294
4.6585
1.18578
1.1947
1.20048
1.24069
3.29088
5.46054
5.41587
5.26687
4.97005
4.69724
1.15822
1.1635
1.16928
1.17577
1.50467
4.50086
5.44017
5.27811
4.99845
4.72426
1.13507
1.14081
1.14805
1.15453
1.16783
2.50678
5.16411
5.26679
5.02912
4.7559
1.11769
1.12187
1.12766
1.13344
1.13874
1.29929
4.07337
5.24678
5.05761
4.7809
1.10318
1.10649
1.11046
1.11557
1.12096
1.13167
2.26561
4.94991
5.04607
4.80977
1.09243
1.09573
1.09946
1.10431
1.10964
1.11493
1.26921
3.95834
5.03317
4.83111
1.08523
1.08803
1.0914
1.09529
1.09997
1.10426
1.1166
2.42501
4.81401
4.80953
1.07884
1.08103
1.08384
1.08695
1.09092
1.09527
1.10081
1.3725
4.08784
4.81106
1.07418
1.07605
1.0784
1.08103
1.08447
1.08844
1.09252
1.11777
2.87832
4.64623
1.07065
1.07235
1.07431
1.07671
1.07947
1.08295
1.08663
1.09443
1.70303
4.29389
1.06807
1.06958
1.07132
1.07344
1.07576
1.07881
1.08211
1.08641
1.19045
3.54429
1.06599
1.06733
1.06889
1.07075
1.07284
1.07545
1.0785
1.08175
1.09761
2.57485
1.00179
1.00555
1.00972
1.0143
1.01941
1.02504
1.03131
1.03879
1.04467
1.64302
1.00179
1.00555
1.00972
1.0143
1.01941
1.02504
1.03131
1.03879
1.04472
1.55136
1.00179
1.00555
1.00972
1.0143
1.0194
1.02504
1.0313
1.0388
1.04474
1.44214
1.00179
1.00555
1.00972
1.0143
1.0194
1.02504
1.03129
1.0388
1.04463
1.3393
1.00179
1.00555
1.00972
1.0143
1.0194
1.02505
1.03129
1.03881
1.04458
1.273
1.00179
1.00555
1.00971
1.0143
1.0194
1.02505
1.03128
1.03882
1.04459
1.22854
1.00179
1.00555
1.00971
1.0143
1.0194
1.02505
1.03127
1.03883
1.0446
1.1944
1.00179
1.00555
1.00971
1.0143
1.0194
1.02505
1.03127
1.03882
1.04463
1.16194
1.00179
1.00555
1.00971
1.0143
1.01939
1.02505
1.03127
1.03882
1.04468
1.13571
1.00179
1.00555
1.00971
1.0143
1.01939
1.02506
1.03126
1.03881
1.04472
1.12023
1.00179
1.00556
1.00971
1.0143
1.01939
1.02506
1.03126
1.0388
1.04478
1.10277
1.00179
1.00556
1.00971
1.0143
1.01939
1.02506
1.03126
1.03878
1.04485
1.09124
1.00179
1.00556
1.00971
1.0143
1.01939
1.02506
1.03126
1.03876
1.04493
1.0828
1.00179
1.00556
1.00971
1.0143
1.01939
1.02506
1.03127
1.03873
1.04502
1.07526
1.00179
1.00556
1.00971
1.0143
1.01939
1.02506
1.03127
1.03871
1.04511
1.07023
1.00179
1.00556
1.00971
1.0143
1.01939
1.02506
1.03127
1.03868
1.04521
1.06629
1.00179
1.00556
1.00971
1.0143
1.01939
1.02506
1.03128
1.03866
1.04532
1.06349
1.00179
1.00556
1.00971
1.0143
1.01939
1.02506
1.03128
1.03863
1.04542
1.06131
1.00179
1.00556
1.00971
1.0143
1.01939
1.02506
1.03128
1.0386
1.04553
1.05964
1.00179
1.00556
1.00971
1.01431
1.01939
1.02506
1.03129
1.03857
1.04564
1.0584
1.00179
1.00556
1.00971
1.01431
1.01939
1.02506
1.03129
1.03857
1.04564
1.05839
1.00179
1.00556
1.00971
1.0143
1.01939
1.02506
1.03128
1.0386
1.04553
1.05963
1.00179
1.00556
1.00971
1.0143
1.01939
1.02506
1.03128
1.03863
1.04542
1.0613
1.00179
1.00556
1.00971
1.0143
1.01939
1.02506
1.03128
1.03866
1.04532
1.06347
1.00179
1.00556
1.00971
1.0143
1.01939
1.02506
1.03127
1.03868
1.04521
1.06627
1.00179
1.00556
1.00971
1.0143
1.01939
1.02506
1.03127
1.03871
1.04511
1.07021
1.00179
1.00556
1.00971
1.0143
1.01939
1.02506
1.03127
1.03873
1.04502
1.07523
1.00179
1.00556
1.00971
1.0143
1.01939
1.02506
1.03126
1.03876
1.04493
1.08276
1.00179
1.00556
1.00971
1.0143
1.01939
1.02506
1.03126
1.03878
1.04485
1.0912
1.00179
1.00556
1.00971
1.0143
1.01939
1.02506
1.03126
1.0388
1.04478
1.10273
1.00179
1.00555
1.00971
1.0143
1.01939
1.02506
1.03126
1.03881
1.04472
1.12018
1.00179
1.00555
1.00971
1.0143
1.01939
1.02505
1.03127
1.03882
1.04468
1.13565
1.00179
1.00555
1.00971
1.0143
1.0194
1.02505
1.03127
1.03882
1.04463
1.16186
1.00179
1.00555
1.00971
1.0143
1.0194
1.02505
1.03127
1.03883
1.0446
1.19433
1.00179
1.00555
1.00971
1.0143
1.0194
1.02505
1.03128
1.03882
1.04459
1.22849
1.00179
1.00555
1.00972
1.0143
1.0194
1.02505
1.03129
1.03881
1.04458
1.27297
1.00179
1.00555
1.00972
1.0143
1.0194
1.02504
1.03129
1.0388
1.04463
1.33929
1.00179
1.00555
1.00972
1.0143
1.0194
1.02504
1.0313
1.03879
1.04474
1.4422
1.00179
1.00555
1.00972
1.0143
1.01941
1.02504
1.03131
1.03879
1.04473
1.55141
1.00179
1.00555
1.00972
1.0143
1.01941
1.02504
1.03131
1.03879
1.04471
1.6431
1.06598
1.06732
1.06888
1.07073
1.07283
1.07543
1.07848
1.08172
1.09806
2.60042
1.06805
1.06956
1.0713
1.07342
1.07573
1.07878
1.08208
1.0864
1.19555
3.5684
1.07063
1.07233
1.07428
1.07668
1.07944
1.08291
1.08658
1.09449
1.72179
4.31048
1.07415
1.07602
1.07837
1.081
1.08443
1.08838
1.09246
1.1187
2.9073
4.65326
1.07881
1.08099
1.08381
1.08691
1.09087
1.09521
1.10079
1.38339
4.11092
4.81355
1.08518
1.08798
1.09134
1.09524
1.09989
1.10416
1.11679
2.45548
4.82413
4.80907
1.09237
1.09566
1.09938
1.10422
1.10955
1.11485
1.27574
3.98558
5.03812
4.82901
1.10313
1.10642
1.11039
1.11547
1.12084
1.13172
2.29107
4.96286
5.04436
4.80532
1.11764
1.12181
1.12758
1.13335
1.13866
1.30418
4.09749
5.25143
5.05645
4.77585
1.13497
1.14071
1.14792
1.15438
1.16791
2.52581
5.17994
5.26843
5.02587
4.74943
1.15813
1.16341
1.16917
1.17567
1.51131
4.51569
5.44727
5.27915
4.99366
4.71326
1.18569
1.1946
1.20037
1.2411
3.30948
5.46783
5.41793
5.26667
4.96459
4.68236
1.22204
1.23175
1.24538
2.11557
5.15416
5.59997
5.44833
5.27108
4.94663
4.63863
1.26547
1.27097
1.63973
4.43723
5.64854
5.57596
5.43914
5.27062
4.90732
4.59801
1.32143
1.45816
3.74672
5.60462
5.7049
5.56439
5.42646
5.26508
4.89826
4.5425
1.55999
2.96047
5.52299
5.82133
5.70671
5.5974
5.45436
5.2846
4.93698
4.4694
2.56482
5.02079
5.89684
5.80497
5.68705
5.58048
5.41885
5.23574
4.94223
4.40051
4.38926
5.77078
5.90278
5.87952
5.80656
5.69387
5.52924
5.34529
5.02866
4.42246
5.01928
5.82012
5.68131
5.68977
5.6837
5.63835
5.5103
5.31882
5.00429
4.40494
5.65436
6.19317
5.99738
5.89255
5.80562
5.72656
5.61976
5.45081
5.17564
4.71262
3.88482
3.14292
2.51764
2.28196
2.38283
2.2795
2.26676
2.62356
2.87369
2.70944
3.9665
3.01261
2.36789
2.17299
2.30567
2.2382
2.28216
2.69378
2.89229
2.73556
4.03876
2.90187
2.22366
2.06827
2.22757
2.1879
2.30005
2.7534
2.90606
2.76314
3.99805
2.81163
2.08264
1.96684
2.14612
2.13261
2.3011
2.80203
2.91839
2.79055
3.95052
2.72822
1.94263
1.87603
2.06423
2.07528
2.29808
2.83762
2.92901
2.81779
3.89913
2.64136
1.8103
1.79568
1.99478
2.02167
2.29388
2.8632
2.94086
2.84133
3.83296
2.55008
1.69925
1.72504
1.94018
1.97624
2.29992
2.87933
2.95597
2.8643
3.7592
2.43951
1.61505
1.6547
1.89267
1.94554
2.33656
2.90356
2.97373
2.88422
3.683
2.31922
1.54994
1.58651
1.83695
1.93319
2.38899
2.91574
2.99436
2.90584
3.55568
2.18933
1.50051
1.548
1.77711
1.92931
2.42634
2.92279
3.01975
2.93054
3.43164
2.0498
1.46012
1.52572
1.71749
1.90056
2.4474
2.92005
3.04318
2.95797
3.27399
1.91798
1.43737
1.51645
1.67161
1.82518
2.40694
2.91971
3.06993
2.9796
3.09275
1.78523
1.41593
1.51909
1.63154
1.72996
2.35745
2.91807
3.08984
2.99938
2.89677
1.67786
1.40265
1.53345
1.59375
1.65096
2.34196
2.92632
3.11249
3.01548
2.66173
1.59024
1.38748
1.55183
1.55736
1.59591
2.34894
2.94245
3.13554
3.02822
2.4336
1.52784
1.38581
1.56527
1.52765
1.57134
2.36971
2.95581
3.15354
3.04059
2.1787
1.45644
1.41893
1.58371
1.51793
1.57284
2.39092
2.96669
3.16629
3.05389
1.94866
1.39012
1.45875
1.6108
1.52408
1.56207
2.39572
2.96797
3.17275
3.07013
1.68072
1.34877
1.50422
1.64572
1.54486
1.51116
2.38086
2.96809
3.17745
3.08963
1.35123
1.3117
1.54149
1.66928
1.56816
1.43654
2.35492
2.9666
3.17809
3.10839
1.072
1.19149
4.52753
5.34802
4.60723
3.93728
3.30744
2.73691
2.13648
1.72458
1.07202
1.18935
4.54564
5.34725
4.60304
3.92568
3.29558
2.72524
2.13422
1.73583
1.072
1.18891
4.56931
5.34223
4.5939
3.90724
3.27737
2.70679
2.13165
1.74647
1.07198
1.1954
4.61127
5.3314
4.57748
3.87946
3.25193
2.68079
2.13038
1.76531
1.07194
1.2109
4.68674
5.30616
4.55191
3.84443
3.21889
2.64773
2.13117
1.79365
1.07187
1.23839
4.77625
5.25278
4.50555
3.80134
3.17821
2.60796
2.13509
1.83149
1.07181
1.28564
4.87159
5.17524
4.43684
3.74684
3.12778
2.5633
2.14141
1.87839
1.07178
1.35909
4.95265
5.08149
4.35115
3.67938
3.06635
2.51494
2.1479
1.93315
1.07176
1.47572
5.00924
4.96622
4.2538
3.59786
2.99472
2.46727
2.15385
1.99474
1.07177
1.65323
5.02678
4.84919
4.14227
3.50338
2.9154
2.42135
2.16053
2.05939
1.07182
1.86844
5.00892
4.72197
4.01332
3.40131
2.8317
2.38461
2.17432
2.12683
1.07201
2.06842
4.95315
4.58503
3.89233
3.28681
2.74453
2.35821
2.19528
2.19823
1.07622
2.23835
4.83488
4.3929
3.71968
3.16566
2.65984
2.34374
2.22858
2.27242
1.1242
2.58682
4.60148
4.17846
3.56227
3.04646
2.5777
2.33523
2.28736
2.34226
1.33725
2.98189
4.27807
3.95567
3.40258
2.92194
2.50375
2.33133
2.36262
2.40153
1.72113
3.31824
3.91493
3.68816
3.22978
2.79871
2.44677
2.32937
2.43854
2.45138
2.19397
3.54004
3.57799
3.38045
3.05062
2.67607
2.39577
2.33855
2.52197
2.5003
2.52066
3.62497
3.3028
3.04645
2.8649
2.55938
2.3469
2.36305
2.61732
2.55523
3.06679
3.53139
3.03248
2.73013
2.69015
2.4399
2.30238
2.41483
2.72388
2.61307
3.60893
3.36401
2.75301
2.46041
2.50943
2.3447
2.27322
2.51955
2.82411
2.67047
3.60342
3.39732
2.68261
2.45034
2.43648
2.59072
2.55977
2.52002
2.6443
2.64815
3.05167
3.53899
2.98182
2.71485
2.63129
2.64315
2.53953
2.48076
2.58287
2.60285
2.51001
3.62983
3.26302
3.01636
2.83428
2.69538
2.52335
2.44856
2.51765
2.55893
2.17344
3.54062
3.54805
3.342
3.0058
2.77215
2.51982
2.40961
2.44143
2.5048
1.70673
3.30542
3.8893
3.64428
3.18333
2.86218
2.54171
2.37088
2.3626
2.43882
1.33267
2.96692
4.25372
3.91451
3.35974
2.96243
2.5859
2.34712
2.29523
2.3724
1.12406
2.57118
4.57339
4.14423
3.52425
3.07122
2.64383
2.33188
2.23693
2.30632
1.07647
2.22079
4.80493
4.36194
3.68893
3.18096
2.71385
2.33621
2.19178
2.2348
1.07203
2.04947
4.92032
4.55784
3.85962
3.29561
2.79138
2.35802
2.16417
2.15733
1.07182
1.85303
4.97432
4.69214
3.99356
3.40537
2.87048
2.39411
2.14717
2.07639
1.07177
1.64345
4.99264
4.82093
4.12259
3.50584
2.94724
2.43946
2.13981
1.99858
1.07176
1.47107
4.98127
4.94201
4.23794
3.59906
3.0197
2.48864
2.1356
1.93209
1.07178
1.35821
4.93391
5.064
4.34094
3.6808
3.08515
2.53687
2.13294
1.87917
1.07181
1.28689
4.86166
5.16339
4.43168
3.74906
3.14184
2.58161
2.13164
1.83916
1.07187
1.24045
4.7748
5.24279
4.50326
3.80437
3.18944
2.62153
2.13105
1.8099
1.07193
1.21319
4.69124
5.29963
4.55139
3.84828
3.22876
2.65634
2.1313
1.78897
1.07197
1.19807
4.62094
5.32811
4.57697
3.88468
3.26164
2.68566
2.13207
1.77509
1.072
1.19222
4.58344
5.34243
4.59697
3.91365
3.28734
2.70893
2.13305
1.76725
1.07201
1.19345
4.56519
5.35047
4.60582
3.93453
3.3058
2.72551
2.13485
1.76572
1.07201
1.19642
4.54894
5.35887
4.61138
3.94837
3.31783
2.73559
2.13607
1.75617
1.06409
1.06527
1.06663
1.06824
1.07005
1.07222
1.07476
1.07774
1.08144
1.48606
1.06249
1.06351
1.06471
1.06605
1.06759
1.06935
1.07137
1.07395
1.07599
1.10182
1.06148
1.06238
1.06342
1.06458
1.06591
1.06739
1.06913
1.07112
1.0735
1.07528
1.06087
1.0617
1.06264
1.06367
1.06485
1.06614
1.06767
1.06928
1.07157
1.07296
1.06052
1.0613
1.06217
1.06313
1.06421
1.06537
1.06674
1.06816
1.07015
1.07151
1.06032
1.06107
1.0619
1.0628
1.06381
1.06491
1.06615
1.06748
1.06919
1.07045
1.06023
1.06095
1.06174
1.06262
1.06357
1.06463
1.06579
1.06708
1.0686
1.06981
1.0602
1.06092
1.0617
1.06254
1.06347
1.06448
1.06561
1.06683
1.06826
1.06958
1.06019
1.0609
1.06168
1.06253
1.06345
1.06445
1.06555
1.06673
1.06805
1.06959
1.06018
1.0609
1.06169
1.06254
1.06347
1.06447
1.06557
1.06675
1.06801
1.06956
1.0602
1.06092
1.06171
1.06256
1.06349
1.06449
1.06558
1.06676
1.06801
1.06954
1.06023
1.06094
1.06173
1.06258
1.0635
1.0645
1.06558
1.06676
1.06801
1.06953
1.06026
1.06097
1.06175
1.0626
1.06352
1.06451
1.06559
1.06678
1.06802
1.06955
1.06029
1.061
1.06178
1.06263
1.06354
1.06454
1.06561
1.0668
1.06804
1.06958
1.06032
1.06103
1.06181
1.06265
1.06357
1.06457
1.06565
1.06684
1.06809
1.06963
1.06033
1.06105
1.06183
1.06268
1.0636
1.06461
1.0657
1.0669
1.06815
1.0697
1.06035
1.06107
1.06186
1.06272
1.06365
1.06467
1.06576
1.06696
1.06821
1.06974
1.06038
1.06111
1.0619
1.06277
1.0637
1.06471
1.0658
1.06699
1.06824
1.06977
1.06041
1.06114
1.06194
1.06279
1.06372
1.06472
1.0658
1.06698
1.06823
1.06974
1.06048
1.06119
1.06195
1.06278
1.06369
1.06467
1.06574
1.06691
1.06816
1.06967
1.00179
1.00556
1.00971
1.01431
1.01939
1.02506
1.03129
1.03854
1.04576
1.05727
1.00179
1.00556
1.00971
1.01431
1.01939
1.02506
1.0313
1.03851
1.04589
1.05634
1.00179
1.00556
1.00971
1.01431
1.01939
1.02506
1.0313
1.03849
1.046
1.0558
1.00179
1.00556
1.00971
1.01431
1.01939
1.02506
1.0313
1.03848
1.04609
1.05548
1.00179
1.00556
1.00971
1.01431
1.01939
1.02506
1.03131
1.03847
1.04615
1.0553
1.00179
1.00556
1.00971
1.01431
1.01939
1.02506
1.03131
1.03847
1.0462
1.05523
1.00179
1.00556
1.00971
1.01431
1.01938
1.02506
1.03131
1.03846
1.04624
1.0552
1.00179
1.00556
1.00971
1.01431
1.01938
1.02506
1.03131
1.03845
1.04627
1.05519
1.00178
1.00556
1.00971
1.01431
1.01938
1.02506
1.03132
1.03844
1.0463
1.05519
1.00178
1.00556
1.00971
1.01431
1.01938
1.02506
1.03132
1.03842
1.04632
1.05519
1.00178
1.00556
1.00971
1.01431
1.01938
1.02506
1.03133
1.03841
1.04633
1.0552
1.00178
1.00556
1.00971
1.01431
1.01939
1.02506
1.03133
1.0384
1.04633
1.05522
1.00178
1.00556
1.00971
1.01431
1.01939
1.02506
1.03134
1.03839
1.04633
1.05525
1.00178
1.00556
1.00971
1.01431
1.01939
1.02505
1.03134
1.03839
1.04631
1.05527
1.00178
1.00556
1.00971
1.01431
1.01939
1.02505
1.03134
1.03839
1.0463
1.05528
1.00178
1.00556
1.00971
1.01431
1.01939
1.02505
1.03134
1.03839
1.04628
1.05528
1.00178
1.00556
1.00971
1.01431
1.01939
1.02505
1.03134
1.0384
1.04627
1.05529
1.00178
1.00556
1.00971
1.01431
1.01939
1.02505
1.03134
1.0384
1.04626
1.0553
1.00178
1.00556
1.00971
1.0143
1.01939
1.02504
1.03135
1.0384
1.04625
1.05531
1.00178
1.00556
1.00971
1.0143
1.01939
1.02504
1.03134
1.03841
1.04623
1.05537
1.00178
1.00556
1.00971
1.0143
1.01939
1.02504
1.03134
1.03841
1.04623
1.05537
1.00178
1.00556
1.00971
1.0143
1.01939
1.02504
1.03135
1.0384
1.04625
1.05531
1.00178
1.00556
1.00971
1.01431
1.01939
1.02505
1.03134
1.0384
1.04626
1.0553
1.00178
1.00556
1.00971
1.01431
1.01939
1.02505
1.03134
1.03839
1.04627
1.05528
1.00178
1.00556
1.00971
1.01431
1.01939
1.02505
1.03134
1.03839
1.04628
1.05528
1.00178
1.00556
1.00971
1.01431
1.01939
1.02505
1.03134
1.03839
1.0463
1.05528
1.00178
1.00556
1.00971
1.01431
1.01939
1.02505
1.03134
1.03839
1.04631
1.05527
1.00178
1.00556
1.00971
1.01431
1.01939
1.02506
1.03134
1.03839
1.04633
1.05525
1.00178
1.00556
1.00971
1.01431
1.01939
1.02506
1.03133
1.0384
1.04633
1.05523
1.00178
1.00556
1.00971
1.01431
1.01938
1.02506
1.03133
1.03841
1.04633
1.0552
1.00178
1.00556
1.00971
1.01431
1.01938
1.02506
1.03132
1.03842
1.04632
1.05519
1.00178
1.00556
1.00971
1.01431
1.01938
1.02506
1.03132
1.03844
1.0463
1.05519
1.00179
1.00556
1.00971
1.01431
1.01938
1.02506
1.03131
1.03845
1.04627
1.05519
1.00179
1.00556
1.00971
1.01431
1.01938
1.02506
1.03131
1.03846
1.04624
1.0552
1.00179
1.00556
1.00971
1.01431
1.01939
1.02506
1.03131
1.03847
1.0462
1.05522
1.00179
1.00556
1.00971
1.01431
1.01939
1.02506
1.03131
1.03847
1.04615
1.0553
1.00179
1.00556
1.00971
1.01431
1.01939
1.02506
1.0313
1.03848
1.04609
1.05548
1.00179
1.00556
1.00971
1.01431
1.01939
1.02506
1.0313
1.03849
1.046
1.0558
1.00179
1.00556
1.00971
1.01431
1.01939
1.02506
1.0313
1.03851
1.04589
1.05634
1.00179
1.00556
1.00971
1.01431
1.01939
1.02506
1.03129
1.03854
1.04576
1.05727
1.06048
1.06119
1.06196
1.06279
1.06369
1.06467
1.06574
1.06691
1.06816
1.06967
1.06041
1.06114
1.06194
1.0628
1.06372
1.06472
1.06581
1.06698
1.06823
1.06974
1.06038
1.06111
1.0619
1.06277
1.06371
1.06472
1.06581
1.067
1.06825
1.06978
1.06035
1.06107
1.06185
1.06272
1.06365
1.06467
1.06576
1.06696
1.06821
1.06975
1.06033
1.06105
1.06183
1.06268
1.0636
1.06461
1.0657
1.0669
1.06815
1.06971
1.06032
1.06103
1.06181
1.06265
1.06357
1.06457
1.06565
1.06683
1.06808
1.06963
1.06029
1.06101
1.06178
1.06263
1.06354
1.06454
1.06561
1.0668
1.06804
1.06958
1.06026
1.06097
1.06175
1.0626
1.06352
1.06451
1.06559
1.06677
1.06802
1.06954
1.06023
1.06094
1.06173
1.06258
1.0635
1.0645
1.06558
1.06676
1.06801
1.06953
1.0602
1.06092
1.0617
1.06256
1.06348
1.06449
1.06557
1.06676
1.06801
1.06954
1.06018
1.0609
1.06169
1.06254
1.06347
1.06447
1.06557
1.06675
1.06801
1.06956
1.06019
1.0609
1.06168
1.06253
1.06345
1.06445
1.06555
1.06673
1.06805
1.06959
1.0602
1.06091
1.0617
1.06254
1.06347
1.06448
1.06561
1.06683
1.06826
1.06958
1.06023
1.06095
1.06174
1.06262
1.06357
1.06463
1.06579
1.06708
1.0686
1.06981
1.06032
1.06107
1.0619
1.0628
1.06381
1.06491
1.06615
1.06748
1.06919
1.07045
1.06052
1.06129
1.06217
1.06313
1.06421
1.06537
1.06674
1.06816
1.07015
1.0715
1.06087
1.06169
1.06264
1.06367
1.06485
1.06614
1.06766
1.06928
1.07156
1.07296
1.06148
1.06238
1.06342
1.06457
1.06591
1.06739
1.06912
1.07112
1.07349
1.07529
1.06249
1.06351
1.0647
1.06604
1.06758
1.06934
1.07136
1.07394
1.07597
1.10293
1.06408
1.06526
1.06662
1.06823
1.07004
1.07222
1.07475
1.07772
1.08145
1.49793
)
;

boundaryField
{
    inlet
    {
        type            fixedValue;
        value           uniform 1;
    }
    outlet
    {
        type            zeroGradient;
    }
    triangle
    {
        type            zeroGradient;
    }
    top
    {
        type            symmetryPlane;
    }
    bottom
    {
        type            symmetryPlane;
    }
    defaultFaces
    {
        type            empty;
    }
}


// ************************************************************************* //
