/*--------------------------------*- C++ -*----------------------------------*\
  =========                 |
  \\      /  F ield         | OpenFOAM: The Open Source CFD Toolbox
   \\    /   O peration     | Website:  https://openfoam.org
    \\  /    A nd           | Version:  8
     \\/     M anipulation  |
\*---------------------------------------------------------------------------*/
FoamFile
{
    version     2.0;
    format      ascii;
    class       volScalarField;
    location    "4.9";
    object      T;
}
// * * * * * * * * * * * * * * * * * * * * * * * * * * * * * * * * * * * * * //

dimensions      [0 0 0 1 0 0 0];

internalField   nonuniform List<scalar> 
2600
(
1.67005
1.69117
1.80511
1.94101
1.88917
1.65319
1.65988
1.7068
1.87758
1.85779
1.71215
1.77978
1.88442
1.97045
1.90631
1.66736
1.68601
1.7467
1.90935
1.87946
1.73981
1.82163
1.91761
1.98032
1.91254
1.68024
1.71033
1.78754
1.93092
1.89086
1.75431
1.82312
1.91892
1.97944
1.91195
1.69284
1.73603
1.82751
1.94272
1.89612
1.76078
1.8183
1.91116
1.96847
1.90145
1.706
1.76448
1.86365
1.94837
1.89905
1.77203
1.81259
1.89443
1.94401
1.88054
1.72647
1.79672
1.89369
1.94872
1.90044
1.77927
1.80644
1.87054
1.91213
1.85792
1.75168
1.82982
1.91416
1.94843
1.90125
1.78898
1.8003
1.84379
1.88166
1.83891
1.77794
1.85995
1.9264
1.94396
1.90102
1.79553
1.79321
1.81958
1.85952
1.82571
1.80507
1.88498
1.93106
1.93614
1.89897
1.80081
1.78928
1.80189
1.84106
1.81986
1.82939
1.90438
1.93255
1.92779
1.89401
1.8043
1.78802
1.79201
1.82775
1.82334
1.85378
1.92213
1.93184
1.91521
1.88602
1.80814
1.7903
1.78672
1.81413
1.83264
1.87865
1.93663
1.92744
1.89557
1.87272
1.81352
1.79419
1.78413
1.79866
1.85168
1.908
1.95153
1.92071
1.86908
1.85505
1.82121
1.79732
1.78226
1.77976
1.86754
1.93161
1.96581
1.91196
1.83845
1.83212
1.83158
1.8025
1.77429
1.74789
1.8812
1.9594
1.98304
1.90354
1.80845
1.8067
1.8443
1.81203
1.75758
1.70792
1.88443
1.98581
2.00215
1.89879
1.78068
1.7804
1.85958
1.82004
1.73422
1.65394
1.8652
2.00572
2.02083
1.89898
1.7553
1.75386
1.87321
1.82603
1.69851
1.58744
1.82168
2.0155
2.03416
1.90143
1.73186
1.72788
1.87932
1.82595
1.65749
1.52355
1.75577
2.00721
2.04328
1.89905
1.7097
1.70144
1.83415
1.79834
1.60279
1.4656
1.68388
1.97859
2.04555
1.88826
1.68732
1.67505
1.74277
1.69373
1.52336
1.40683
1.61034
1.9213
2.03072
1.85677
1.66096
1.64649
1.67411
1.57638
1.43021
1.35361
1.54015
1.84258
1.98591
1.79651
1.63112
1.61555
1.63009
1.48324
1.34852
1.3102
1.48236
1.76572
1.90431
1.71983
1.59996
1.58699
1.58872
1.4255
1.29051
1.27384
1.43861
1.69592
1.80232
1.64295
1.56835
1.5618
1.55721
1.38757
1.2456
1.23985
1.4021
1.63368
1.70056
1.57857
1.53911
1.53921
1.53055
1.36018
1.21053
1.21163
1.36873
1.58089
1.61638
1.52908
1.51372
1.51824
1.52213
1.34789
1.18579
1.19011
1.33791
1.5361
1.55571
1.48931
1.49099
1.49942
1.52505
1.34388
1.16895
1.17859
1.31098
1.49915
1.51558
1.45814
1.46895
1.48177
1.53516
1.34791
1.1637
1.17498
1.28861
1.46779
1.48744
1.43419
1.4489
1.46641
1.5512
1.35516
1.16555
1.17528
1.27261
1.44238
1.46213
1.41518
1.43385
1.45293
1.56978
1.36721
1.17558
1.18113
1.2642
1.42247
1.44014
1.40227
1.42515
1.44193
1.59008
1.38079
1.19425
1.19123
1.2622
1.40852
1.42498
1.39526
1.4212
1.43332
1.60604
1.39738
1.22095
1.20641
1.26781
1.40169
1.41531
1.39202
1.42015
1.42693
1.62011
1.41587
1.24875
1.22187
1.27946
1.39962
1.40879
1.39177
1.42151
1.42378
1.63101
1.43497
1.27569
1.24124
1.29554
1.39948
1.40678
1.39563
1.42522
1.42155
1.63887
1.45526
1.30228
1.26322
1.31294
1.40147
1.40756
1.40065
1.4279
1.42207
1.64505
1.47498
1.32929
1.28813
1.33098
1.4056
1.41059
1.40506
1.43078
1.42325
1.64539
1.49493
1.35699
1.31577
1.3489
1.41041
1.41411
1.40824
1.43274
1.42459
1.63693
1.51548
1.38692
1.34426
1.36644
1.41533
1.41649
1.40985
1.43372
1.42579
1.62823
1.53511
1.41612
1.37236
1.38398
1.42067
1.41723
1.40891
1.43258
1.42612
2.23964
2.27944
2.24637
2.21825
2.19605
2.17779
2.15839
2.13498
2.10166
2.04984
2.06424
2.15533
2.14425
2.14493
2.14295
2.13542
2.11904
2.09656
2.05949
1.96999
1.79134
1.97322
2.02419
2.04052
2.04867
2.04855
2.04111
2.02806
1.99648
1.88881
1.4067
1.74562
1.87851
1.89636
1.9066
1.91656
1.91604
1.91069
1.88987
1.79388
1.15539
1.43387
1.74426
1.82403
1.82237
1.82585
1.82496
1.81975
1.7973
1.72453
1.08891
1.12514
1.55508
1.76739
1.79434
1.78337
1.7742
1.76283
1.73493
1.68889
1.07284
1.07395
1.17673
1.65171
1.78294
1.77573
1.76251
1.74651
1.71317
1.67961
1.0607
1.06298
1.06638
1.2881
1.74032
1.78073
1.76675
1.74849
1.71526
1.68252
1.05092
1.05315
1.05451
1.06604
1.52761
1.78712
1.77826
1.75773
1.72235
1.69138
1.04348
1.04481
1.04624
1.0479
1.14543
1.70373
1.79016
1.76965
1.73494
1.7036
1.03722
1.0387
1.04056
1.04218
1.04589
1.38584
1.76747
1.7735
1.74808
1.71716
1.0325
1.03359
1.0351
1.0366
1.03798
1.08589
1.66026
1.78088
1.75886
1.72731
1.02856
1.02944
1.03048
1.03183
1.03323
1.03626
1.33612
1.74862
1.75812
1.73414
1.02563
1.02651
1.02751
1.0288
1.03021
1.03163
1.07704
1.64573
1.76148
1.7392
1.02367
1.02442
1.02533
1.02637
1.02762
1.02875
1.03232
1.37322
1.73521
1.73556
1.02193
1.02252
1.02328
1.02412
1.02519
1.02634
1.02787
1.10594
1.65173
1.73662
1.02066
1.02116
1.0218
1.02251
1.02344
1.02451
1.0256
1.03288
1.46957
1.71907
1.01969
1.02016
1.02069
1.02134
1.02209
1.02303
1.02401
1.02624
1.19471
1.66988
1.01899
1.0194
1.01987
1.02045
1.02108
1.0219
1.02279
1.02397
1.05342
1.59464
1.01842
1.01878
1.01921
1.01972
1.02029
1.02099
1.02182
1.02269
1.02737
1.44309
1.00051
1.00158
1.00277
1.00406
1.00551
1.00709
1.00884
1.01094
1.01255
1.36743
1.00051
1.00158
1.00277
1.00406
1.00551
1.00709
1.00884
1.01094
1.01256
1.30277
1.00051
1.00158
1.00277
1.00406
1.0055
1.00709
1.00884
1.01094
1.01257
1.19913
1.00051
1.00158
1.00277
1.00406
1.0055
1.00709
1.00884
1.01094
1.01254
1.12377
1.00051
1.00158
1.00277
1.00406
1.0055
1.00709
1.00884
1.01094
1.01253
1.08536
1.00051
1.00158
1.00277
1.00406
1.0055
1.00709
1.00884
1.01094
1.01253
1.06634
1.00051
1.00158
1.00277
1.00406
1.0055
1.00709
1.00883
1.01095
1.01254
1.05468
1.00051
1.00158
1.00277
1.00406
1.0055
1.00709
1.00883
1.01094
1.01255
1.04506
1.00051
1.00158
1.00277
1.00406
1.0055
1.00709
1.00883
1.01094
1.01256
1.03773
1.00051
1.00158
1.00276
1.00406
1.0055
1.00709
1.00883
1.01094
1.01257
1.03338
1.00051
1.00158
1.00276
1.00406
1.0055
1.00709
1.00883
1.01094
1.01259
1.02857
1.00051
1.00158
1.00276
1.00406
1.0055
1.00709
1.00883
1.01093
1.01261
1.02538
1.00051
1.00158
1.00276
1.00407
1.0055
1.0071
1.00883
1.01093
1.01263
1.02305
1.00051
1.00158
1.00276
1.00407
1.0055
1.0071
1.00883
1.01092
1.01265
1.02097
1.00051
1.00158
1.00276
1.00407
1.0055
1.0071
1.00883
1.01091
1.01268
1.01959
1.00051
1.00158
1.00276
1.00407
1.0055
1.0071
1.00883
1.0109
1.01271
1.01851
1.00051
1.00158
1.00276
1.00407
1.0055
1.00709
1.00884
1.0109
1.01274
1.01774
1.00051
1.00158
1.00276
1.00407
1.0055
1.00709
1.00884
1.01089
1.01277
1.01714
1.00051
1.00158
1.00276
1.00407
1.0055
1.00709
1.00884
1.01088
1.0128
1.01668
1.00051
1.00158
1.00276
1.00407
1.0055
1.00709
1.00884
1.01087
1.01283
1.01634
1.00051
1.00158
1.00276
1.00407
1.0055
1.00709
1.00884
1.01087
1.01283
1.01634
1.00051
1.00158
1.00276
1.00407
1.0055
1.00709
1.00884
1.01088
1.0128
1.01668
1.00051
1.00158
1.00276
1.00407
1.0055
1.00709
1.00884
1.01089
1.01277
1.01713
1.00051
1.00158
1.00276
1.00407
1.0055
1.00709
1.00884
1.0109
1.01274
1.01773
1.00051
1.00158
1.00276
1.00407
1.0055
1.0071
1.00883
1.0109
1.01271
1.0185
1.00051
1.00158
1.00276
1.00407
1.0055
1.0071
1.00883
1.01091
1.01268
1.01958
1.00051
1.00158
1.00276
1.00407
1.0055
1.0071
1.00883
1.01092
1.01265
1.02096
1.00051
1.00158
1.00276
1.00407
1.0055
1.0071
1.00883
1.01093
1.01263
1.02304
1.00051
1.00158
1.00276
1.00406
1.0055
1.00709
1.00883
1.01093
1.01261
1.02537
1.00051
1.00158
1.00276
1.00406
1.0055
1.00709
1.00883
1.01094
1.01259
1.02856
1.00051
1.00158
1.00276
1.00406
1.0055
1.00709
1.00883
1.01094
1.01257
1.03337
1.00051
1.00158
1.00277
1.00406
1.0055
1.00709
1.00883
1.01094
1.01256
1.03771
1.00051
1.00158
1.00277
1.00406
1.0055
1.00709
1.00883
1.01094
1.01255
1.04503
1.00051
1.00158
1.00277
1.00406
1.0055
1.00709
1.00883
1.01095
1.01254
1.05466
1.00051
1.00158
1.00277
1.00406
1.0055
1.00709
1.00884
1.01094
1.01253
1.0663
1.00051
1.00158
1.00277
1.00406
1.0055
1.00709
1.00884
1.01094
1.01253
1.08532
1.00051
1.00158
1.00277
1.00406
1.0055
1.00709
1.00884
1.01094
1.01254
1.12374
1.00051
1.00158
1.00277
1.00406
1.0055
1.00709
1.00884
1.01094
1.01257
1.19914
1.00051
1.00158
1.00277
1.00406
1.00551
1.00709
1.00884
1.01094
1.01256
1.30283
1.00051
1.00158
1.00277
1.00406
1.00551
1.00709
1.00884
1.01094
1.01256
1.36749
1.01842
1.01878
1.01921
1.01971
1.02028
1.02099
1.02182
1.02269
1.02753
1.44861
1.01898
1.01939
1.01987
1.02044
1.02107
1.0219
1.02279
1.02396
1.05486
1.59773
1.01969
1.02015
1.02068
1.02133
1.02208
1.02302
1.02399
1.02626
1.19978
1.67224
1.02065
1.02116
1.02179
1.0225
1.02343
1.02449
1.02558
1.03315
1.47542
1.72058
1.02192
1.02251
1.02327
1.02411
1.02517
1.02632
1.02786
1.10908
1.65448
1.73745
1.02366
1.02441
1.02531
1.02635
1.0276
1.02872
1.03238
1.38015
1.73686
1.73606
1.02561
1.0265
1.02749
1.02878
1.03018
1.0316
1.07898
1.64938
1.76243
1.73954
1.02854
1.02942
1.03047
1.03181
1.0332
1.03628
1.34201
1.75046
1.75852
1.7342
1.03249
1.03358
1.03508
1.03658
1.03796
1.08734
1.66351
1.7819
1.75932
1.72722
1.03719
1.03867
1.04053
1.04214
1.04592
1.39002
1.7692
1.77438
1.74844
1.71692
1.04346
1.04479
1.04621
1.04787
1.14736
1.7056
1.79111
1.77015
1.73497
1.70282
1.0509
1.05312
1.05448
1.06618
1.53103
1.78828
1.77895
1.75813
1.7222
1.68991
1.06067
1.06294
1.06635
1.28956
1.74138
1.7815
1.76733
1.74872
1.71498
1.68032
1.0728
1.07391
1.17711
1.65297
1.78359
1.77623
1.7629
1.74656
1.71271
1.67703
1.08885
1.12512
1.5559
1.76799
1.7948
1.78367
1.77433
1.76261
1.73358
1.68568
1.15532
1.43398
1.74486
1.82432
1.82268
1.82599
1.82491
1.81929
1.7955
1.72041
1.4067
1.74577
1.87895
1.89656
1.90674
1.91645
1.91564
1.90982
1.88757
1.78639
1.79146
1.97337
2.0245
2.0407
2.04867
2.04836
2.04057
2.02695
1.99401
1.87977
2.06443
2.15549
2.14442
2.14504
2.14294
2.13525
2.11853
2.09543
2.05712
1.9614
2.2398
2.27953
2.24644
2.21821
2.1959
2.17752
2.15788
2.13404
2.09988
2.04259
1.6282
1.52938
1.43315
1.37767
1.39187
1.37499
1.36909
1.42901
1.45282
1.41955
1.63729
1.50936
1.40767
1.35469
1.37543
1.36448
1.37039
1.44122
1.45097
1.41785
1.64509
1.48971
1.38009
1.33181
1.35859
1.35279
1.37067
1.45099
1.44995
1.41724
1.64296
1.47187
1.35081
1.30964
1.34113
1.34044
1.3684
1.45506
1.44985
1.41723
1.63531
1.4552
1.32003
1.29012
1.32363
1.32767
1.3655
1.45465
1.44909
1.41824
1.62593
1.43755
1.28923
1.27471
1.30952
1.31555
1.36277
1.45283
1.44815
1.42035
1.61379
1.41873
1.26286
1.26421
1.30107
1.30592
1.36237
1.45081
1.44789
1.42458
1.59953
1.39736
1.24642
1.25429
1.29894
1.30228
1.36736
1.45173
1.44947
1.43141
1.58438
1.37595
1.2376
1.2478
1.29847
1.30568
1.37669
1.45247
1.45473
1.4418
1.5646
1.35606
1.23471
1.24982
1.29966
1.31358
1.38556
1.45383
1.46518
1.45613
1.54809
1.33841
1.23679
1.25933
1.30485
1.32097
1.39353
1.45577
1.4798
1.47486
1.53336
1.32597
1.24901
1.27959
1.31956
1.32408
1.39299
1.46073
1.49913
1.4964
1.52439
1.31799
1.26853
1.31154
1.34258
1.32844
1.39485
1.46897
1.52142
1.52064
1.52255
1.31723
1.29528
1.35511
1.37221
1.34132
1.40816
1.48288
1.54807
1.54718
1.53085
1.32829
1.32504
1.40815
1.41186
1.36661
1.43366
1.50248
1.5795
1.57711
1.55857
1.35919
1.36019
1.47048
1.46994
1.40766
1.46776
1.52621
1.61663
1.61297
1.59211
1.39926
1.41035
1.54948
1.55367
1.46867
1.50743
1.55431
1.66114
1.65696
1.62876
1.44324
1.47713
1.64824
1.65841
1.53851
1.5491
1.58595
1.71342
1.70925
1.65397
1.49912
1.5693
1.7623
1.76455
1.59649
1.58967
1.6226
1.7719
1.76589
1.66129
1.57928
1.68677
1.86849
1.84527
1.63223
1.62742
1.66465
1.83034
1.8191
1.02006
1.0609
1.73537
1.82663
1.7515
1.67649
1.59593
1.51324
1.41391
1.32906
1.02006
1.05797
1.73246
1.82528
1.75036
1.67493
1.5943
1.51138
1.4135
1.33142
1.02006
1.05553
1.72705
1.82186
1.74766
1.67226
1.59172
1.50838
1.41294
1.3335
1.02005
1.05594
1.72468
1.81712
1.74376
1.66824
1.58791
1.50403
1.41254
1.33722
1.02004
1.05943
1.72785
1.81108
1.73902
1.66313
1.58269
1.49837
1.41255
1.34288
1.02002
1.06712
1.73365
1.80216
1.73203
1.65665
1.57597
1.4915
1.41318
1.35054
1.02001
1.07976
1.73834
1.7896
1.7221
1.64808
1.5674
1.48376
1.41435
1.36013
1.02
1.09751
1.73952
1.77302
1.70917
1.63678
1.55673
1.47543
1.41578
1.37136
1.01999
1.12449
1.73776
1.75189
1.69314
1.62207
1.54409
1.46731
1.41739
1.38357
1.02
1.16856
1.73353
1.73171
1.67235
1.60402
1.52989
1.45959
1.41927
1.39534
1.02001
1.22585
1.72896
1.71218
1.64851
1.58442
1.51472
1.45343
1.42168
1.40624
1.02006
1.27897
1.72259
1.69347
1.62785
1.56409
1.49873
1.44852
1.4229
1.41691
1.02107
1.318
1.71146
1.6734
1.60582
1.54474
1.48274
1.44424
1.42324
1.42713
1.03198
1.37599
1.69412
1.65666
1.58997
1.52722
1.46633
1.43907
1.42739
1.43403
1.08043
1.4481
1.67389
1.64192
1.5745
1.50881
1.44982
1.43148
1.43506
1.43659
1.18863
1.53539
1.64449
1.6169
1.55363
1.48873
1.43437
1.42115
1.44031
1.43651
1.34712
1.59768
1.60385
1.5756
1.52531
1.46581
1.41853
1.41131
1.44347
1.43526
1.4613
1.61373
1.56305
1.52082
1.49038
1.44111
1.40246
1.40523
1.44723
1.43247
1.54521
1.58744
1.51618
1.46428
1.45495
1.41436
1.38699
1.40567
1.45178
1.42837
1.59542
1.55981
1.4702
1.41312
1.41815
1.39134
1.37469
1.4152
1.45443
1.42353
1.59448
1.56362
1.45705
1.41271
1.4111
1.43044
1.41719
1.40765
1.43138
1.42702
1.54295
1.58751
1.50755
1.46411
1.44946
1.44649
1.41834
1.41043
1.43261
1.4318
1.45861
1.61337
1.55673
1.51894
1.48857
1.46271
1.42283
1.41588
1.43212
1.43707
1.34167
1.59684
1.59972
1.57218
1.5209
1.48111
1.43161
1.42063
1.42915
1.43951
1.18478
1.5327
1.64175
1.61239
1.54839
1.49864
1.44569
1.42512
1.42553
1.43814
1.07935
1.44498
1.67121
1.63727
1.56927
1.51493
1.46125
1.43137
1.42228
1.43485
1.03195
1.37205
1.69027
1.6522
1.58508
1.53095
1.47587
1.43581
1.41938
1.4299
1.02114
1.31292
1.70669
1.66891
1.60189
1.54721
1.49057
1.44125
1.41786
1.42201
1.02007
1.2735
1.71744
1.68945
1.62387
1.5657
1.50559
1.44765
1.41805
1.41044
1.02001
1.22142
1.72413
1.70834
1.6463
1.58538
1.52043
1.45468
1.41641
1.39721
1.02
1.16593
1.72956
1.72858
1.67042
1.60469
1.53456
1.46245
1.41479
1.38345
1.01999
1.12337
1.73512
1.74975
1.69174
1.62248
1.54766
1.47071
1.41361
1.3708
1.02
1.09739
1.73795
1.77179
1.7085
1.63717
1.55934
1.4789
1.41288
1.36022
1.02001
1.08023
1.73743
1.78898
1.72201
1.64856
1.5693
1.48662
1.4126
1.35204
1.02002
1.06782
1.73369
1.80172
1.73223
1.65721
1.57748
1.49359
1.41256
1.34606
1.02004
1.06018
1.72859
1.81086
1.73931
1.66374
1.58403
1.49966
1.4128
1.34187
1.02005
1.05677
1.72586
1.81699
1.74388
1.66895
1.58922
1.50469
1.41324
1.3392
1.02006
1.05651
1.72867
1.82194
1.74806
1.67304
1.59303
1.50856
1.41371
1.33784
1.02006
1.05937
1.7351
1.82577
1.75075
1.67596
1.59562
1.51122
1.4142
1.33784
1.02006
1.06295
1.73863
1.82795
1.75204
1.67776
1.59726
1.51281
1.41444
1.33592
1.0179
1.01822
1.01859
1.01903
1.01953
1.02012
1.02081
1.02161
1.02264
1.15418
1.01746
1.01774
1.01807
1.01843
1.01886
1.01933
1.01989
1.02059
1.02114
1.02902
1.01719
1.01743
1.01772
1.01803
1.0184
1.0188
1.01928
1.01982
1.02046
1.02095
1.01702
1.01725
1.01751
1.01779
1.01811
1.01846
1.01888
1.01932
1.01994
1.02032
1.01693
1.01714
1.01738
1.01764
1.01794
1.01825
1.01863
1.01901
1.01956
1.01992
1.01687
1.01708
1.0173
1.01755
1.01783
1.01813
1.01847
1.01883
1.01929
1.01964
1.01685
1.01705
1.01726
1.0175
1.01776
1.01805
1.01837
1.01872
1.01913
1.01947
1.01684
1.01704
1.01725
1.01748
1.01773
1.01801
1.01832
1.01865
1.01904
1.0194
1.01684
1.01703
1.01725
1.01748
1.01773
1.018
1.0183
1.01862
1.01899
1.0194
1.01684
1.01703
1.01725
1.01748
1.01774
1.01801
1.01831
1.01863
1.01897
1.0194
1.01684
1.01704
1.01725
1.01749
1.01774
1.01801
1.01831
1.01863
1.01897
1.01939
1.01685
1.01704
1.01726
1.01749
1.01774
1.01802
1.01831
1.01863
1.01897
1.01939
1.01686
1.01705
1.01726
1.0175
1.01775
1.01802
1.01832
1.01864
1.01898
1.01939
1.01686
1.01706
1.01727
1.0175
1.01775
1.01803
1.01832
1.01864
1.01898
1.0194
1.01687
1.01707
1.01728
1.01751
1.01776
1.01804
1.01833
1.01865
1.01899
1.01942
1.01688
1.01707
1.01729
1.01752
1.01777
1.01805
1.01834
1.01867
1.01901
1.01944
1.01688
1.01708
1.01729
1.01753
1.01778
1.01806
1.01836
1.01869
1.01903
1.01945
1.01689
1.01709
1.01731
1.01754
1.0178
1.01807
1.01837
1.0187
1.01904
1.01946
1.0169
1.0171
1.01732
1.01755
1.0178
1.01808
1.01837
1.01869
1.01903
1.01945
1.01692
1.01711
1.01732
1.01755
1.01779
1.01806
1.01836
1.01867
1.01902
1.01943
1.00051
1.00158
1.00276
1.00407
1.0055
1.00709
1.00884
1.01086
1.01286
1.01603
1.00051
1.00158
1.00276
1.00407
1.0055
1.00709
1.00884
1.01085
1.0129
1.01578
1.00051
1.00158
1.00276
1.00407
1.0055
1.00709
1.00884
1.01085
1.01293
1.01563
1.00051
1.00158
1.00276
1.00407
1.0055
1.00709
1.00884
1.01084
1.01295
1.01554
1.00051
1.00158
1.00276
1.00407
1.0055
1.0071
1.00884
1.01084
1.01297
1.01549
1.00051
1.00158
1.00276
1.00407
1.0055
1.0071
1.00884
1.01084
1.01298
1.01547
1.00051
1.00158
1.00276
1.00407
1.0055
1.0071
1.00885
1.01084
1.013
1.01546
1.00051
1.00158
1.00276
1.00407
1.0055
1.0071
1.00885
1.01084
1.01301
1.01546
1.00051
1.00158
1.00276
1.00407
1.0055
1.0071
1.00885
1.01083
1.01301
1.01546
1.00051
1.00158
1.00276
1.00407
1.0055
1.0071
1.00885
1.01083
1.01302
1.01546
1.00051
1.00158
1.00276
1.00407
1.0055
1.0071
1.00885
1.01082
1.01302
1.01547
1.00051
1.00158
1.00276
1.00407
1.0055
1.0071
1.00885
1.01082
1.01302
1.01547
1.00051
1.00158
1.00276
1.00407
1.0055
1.00709
1.00885
1.01082
1.01302
1.01548
1.00051
1.00158
1.00276
1.00407
1.0055
1.00709
1.00885
1.01082
1.01302
1.01548
1.00051
1.00158
1.00276
1.00407
1.0055
1.00709
1.00885
1.01082
1.01301
1.01549
1.00051
1.00158
1.00276
1.00407
1.0055
1.00709
1.00885
1.01082
1.01301
1.01549
1.00051
1.00158
1.00276
1.00407
1.0055
1.00709
1.00886
1.01082
1.013
1.01549
1.00051
1.00158
1.00276
1.00407
1.0055
1.00709
1.00886
1.01082
1.013
1.01549
1.00051
1.00158
1.00276
1.00407
1.0055
1.00709
1.00886
1.01082
1.013
1.0155
1.00051
1.00158
1.00276
1.00407
1.0055
1.00709
1.00886
1.01082
1.01299
1.01551
1.00051
1.00158
1.00276
1.00407
1.0055
1.00709
1.00886
1.01082
1.01299
1.01551
1.00051
1.00158
1.00276
1.00407
1.0055
1.00709
1.00886
1.01082
1.013
1.0155
1.00051
1.00158
1.00276
1.00407
1.0055
1.00709
1.00886
1.01082
1.013
1.01549
1.00051
1.00158
1.00276
1.00407
1.0055
1.00709
1.00886
1.01082
1.013
1.01549
1.00051
1.00158
1.00276
1.00407
1.0055
1.00709
1.00885
1.01082
1.01301
1.01549
1.00051
1.00158
1.00276
1.00407
1.0055
1.00709
1.00885
1.01082
1.01301
1.01549
1.00051
1.00158
1.00276
1.00407
1.0055
1.00709
1.00885
1.01082
1.01302
1.01548
1.00051
1.00158
1.00276
1.00407
1.0055
1.00709
1.00885
1.01082
1.01302
1.01548
1.00051
1.00158
1.00276
1.00407
1.0055
1.0071
1.00885
1.01082
1.01302
1.01547
1.00051
1.00158
1.00276
1.00407
1.0055
1.0071
1.00885
1.01082
1.01302
1.01547
1.00051
1.00158
1.00276
1.00407
1.0055
1.0071
1.00885
1.01083
1.01302
1.01546
1.00051
1.00158
1.00276
1.00407
1.0055
1.0071
1.00885
1.01083
1.01301
1.01546
1.00051
1.00158
1.00276
1.00407
1.0055
1.0071
1.00885
1.01084
1.01301
1.01546
1.00051
1.00158
1.00276
1.00407
1.0055
1.0071
1.00885
1.01084
1.013
1.01546
1.00051
1.00158
1.00276
1.00407
1.0055
1.0071
1.00884
1.01084
1.01298
1.01547
1.00051
1.00158
1.00276
1.00407
1.0055
1.0071
1.00884
1.01084
1.01297
1.01549
1.00051
1.00158
1.00276
1.00407
1.0055
1.00709
1.00884
1.01084
1.01295
1.01554
1.00051
1.00158
1.00276
1.00407
1.0055
1.00709
1.00884
1.01085
1.01293
1.01563
1.00051
1.00158
1.00276
1.00407
1.0055
1.00709
1.00884
1.01085
1.0129
1.01577
1.00051
1.00158
1.00276
1.00407
1.0055
1.00709
1.00884
1.01086
1.01286
1.01603
1.01692
1.01711
1.01732
1.01755
1.0178
1.01806
1.01836
1.01867
1.01902
1.01943
1.0169
1.0171
1.01732
1.01755
1.0178
1.01808
1.01837
1.01869
1.01903
1.01945
1.01689
1.01709
1.01731
1.01754
1.0178
1.01808
1.01837
1.0187
1.01904
1.01946
1.01688
1.01708
1.01729
1.01753
1.01778
1.01806
1.01836
1.01869
1.01903
1.01945
1.01688
1.01707
1.01729
1.01752
1.01777
1.01805
1.01834
1.01867
1.01901
1.01944
1.01687
1.01707
1.01728
1.01751
1.01776
1.01803
1.01833
1.01865
1.01899
1.01942
1.01686
1.01706
1.01727
1.0175
1.01775
1.01803
1.01832
1.01864
1.01898
1.0194
1.01686
1.01705
1.01727
1.0175
1.01775
1.01802
1.01831
1.01864
1.01898
1.01939
1.01685
1.01704
1.01726
1.01749
1.01774
1.01802
1.01831
1.01863
1.01897
1.01939
1.01684
1.01704
1.01725
1.01749
1.01774
1.01801
1.01831
1.01863
1.01897
1.01939
1.01684
1.01703
1.01725
1.01748
1.01774
1.01801
1.01831
1.01863
1.01897
1.0194
1.01684
1.01703
1.01725
1.01748
1.01773
1.018
1.0183
1.01862
1.01899
1.01941
1.01684
1.01704
1.01725
1.01748
1.01773
1.01801
1.01832
1.01865
1.01904
1.01941
1.01685
1.01705
1.01726
1.0175
1.01776
1.01805
1.01837
1.01872
1.01913
1.01947
1.01687
1.01708
1.0173
1.01755
1.01783
1.01813
1.01847
1.01883
1.0193
1.01964
1.01693
1.01714
1.01738
1.01764
1.01794
1.01825
1.01863
1.01901
1.01956
1.01992
1.01702
1.01725
1.0175
1.01779
1.01811
1.01846
1.01888
1.01932
1.01994
1.02032
1.01719
1.01743
1.01772
1.01803
1.0184
1.0188
1.01927
1.01982
1.02046
1.02095
1.01746
1.01774
1.01807
1.01843
1.01885
1.01933
1.01988
1.02058
1.02113
1.02938
1.0179
1.01822
1.01859
1.01903
1.01952
1.02011
1.0208
1.0216
1.02264
1.15803
)
;

boundaryField
{
    inlet
    {
        type            fixedValue;
        value           uniform 1;
    }
    outlet
    {
        type            inletOutlet;
        inletValue      uniform 1;
        value           nonuniform List<scalar> 
100
(
1.42687
1.43178
1.43702
1.43943
1.43803
1.43475
1.42981
1.42191
1.41032
1.39708
1.38334
1.3707
1.36014
1.35197
1.346
1.34182
1.33915
1.33779
1.33778
1.33585
1.64648
1.61553
1.58706
1.56196
1.5394
1.51844
1.49959
1.48186
1.46647
1.453
1.44199
1.43334
1.42693
1.4238
1.42159
1.42209
1.42324
1.42453
1.42566
1.42591
1.85759
1.87924
1.8906
1.89585
1.89877
1.90013
1.90098
1.90075
1.89876
1.89388
1.886
1.87278
1.85519
1.83231
1.80687
1.78059
1.75405
1.72804
1.70152
1.67508
1.41931
1.41759
1.41698
1.41697
1.418
1.42014
1.42441
1.43128
1.44167
1.456
1.47478
1.49637
1.52064
1.54717
1.57709
1.61293
1.6569
1.70914
1.76573
1.81891
1.32898
1.33133
1.3334
1.33711
1.34276
1.35041
1.36002
1.37127
1.38351
1.39529
1.40616
1.4168
1.42703
1.43395
1.43654
1.43645
1.43515
1.4323
1.42816
1.4233
)
;
    }
    triangle
    {
        type            zeroGradient;
    }
    top
    {
        type            symmetryPlane;
    }
    bottom
    {
        type            symmetryPlane;
    }
    defaultFaces
    {
        type            empty;
    }
}


// ************************************************************************* //
