/*--------------------------------*- C++ -*----------------------------------*\
  =========                 |
  \\      /  F ield         | OpenFOAM: The Open Source CFD Toolbox
   \\    /   O peration     | Website:  https://openfoam.org
    \\  /    A nd           | Version:  8
     \\/     M anipulation  |
\*---------------------------------------------------------------------------*/
FoamFile
{
    version     2.0;
    format      ascii;
    class       volVectorField;
    location    "4.9";
    object      U;
}
// * * * * * * * * * * * * * * * * * * * * * * * * * * * * * * * * * * * * * //

dimensions      [0 1 -1 0 0 0 0];

internalField   nonuniform List<vector> 
2600
(
(1.06985 0.134055 0)
(1.63362 0.18211 0)
(1.29491 0.0468789 0)
(0.81191 -0.113714 0)
(0.883498 -0.211992 0)
(1.40887 0.0975521 0)
(1.40643 0.348258 0)
(1.16374 0.243751 0)
(1.10902 0.0666175 0)
(1.22419 -0.0291034 0)
(0.411674 -0.178381 0)
(1.15647 0.147482 0)
(0.887401 0.0785111 0)
(0.480151 -0.110153 0)
(0.588248 -0.24545 0)
(1.21336 0.0543398 0)
(1.31462 0.362308 0)
(1.09594 0.250143 0)
(1.01042 0.0674258 0)
(1.11833 -0.0329865 0)
(0.0490486 -0.156481 0)
(0.573091 0.151607 0)
(0.458304 0.128997 0)
(0.180627 -0.0916113 0)
(0.32887 -0.285302 0)
(1.02831 -0.00492459 0)
(1.21524 0.36931 0)
(1.01656 0.256742 0)
(0.902114 0.0692425 0)
(1.01512 -0.037671 0)
(-0.123413 -0.196351 0)
(0.12285 0.120199 0)
(0.105833 0.133344 0)
(-0.0622284 -0.10485 0)
(0.108691 -0.338102 0)
(0.848633 -0.0711601 0)
(1.10819 0.377099 0)
(0.924428 0.265229 0)
(0.793424 0.0707981 0)
(0.92701 -0.0429535 0)
(-0.212892 -0.165599 0)
(-0.140973 0.133991 0)
(-0.144828 0.161484 0)
(-0.230496 -0.105764 0)
(-0.0786364 -0.381511 0)
(0.667689 -0.143247 0)
(0.992157 0.37113 0)
(0.820022 0.273396 0)
(0.693958 0.0763813 0)
(0.861383 -0.0484053 0)
(-0.25324 -0.131036 0)
(-0.274039 0.141759 0)
(-0.31007 0.172656 0)
(-0.328139 -0.122339 0)
(-0.226641 -0.428015 0)
(0.481131 -0.201005 0)
(0.863107 0.366734 0)
(0.707542 0.285428 0)
(0.612764 0.0722441 0)
(0.820858 -0.0565228 0)
(-0.255917 -0.0877223 0)
(-0.336966 0.165686 0)
(-0.408012 0.192856 0)
(-0.38007 -0.134437 0)
(-0.331208 -0.468419 0)
(0.300407 -0.258819 0)
(0.723942 0.349222 0)
(0.593393 0.290865 0)
(0.55721 0.072165 0)
(0.802047 -0.0641746 0)
(-0.262214 -0.0477638 0)
(-0.364895 0.189327 0)
(-0.458274 0.210003 0)
(-0.405459 -0.148877 0)
(-0.391335 -0.508335 0)
(0.121533 -0.290269 0)
(0.578675 0.338344 0)
(0.486767 0.303288 0)
(0.530793 0.0619052 0)
(0.799005 -0.0756345 0)
(-0.250385 -0.00727218 0)
(-0.370615 0.212436 0)
(-0.476889 0.233839 0)
(-0.418499 -0.160602 0)
(-0.420437 -0.537104 0)
(-0.0415367 -0.31584 0)
(0.438157 0.319892 0)
(0.397468 0.305276 0)
(0.531267 0.0398939 0)
(0.807787 -0.085591 0)
(-0.238005 0.0313446 0)
(-0.367142 0.233519 0)
(-0.477921 0.254638 0)
(-0.403184 -0.162289 0)
(-0.421349 -0.563558 0)
(-0.174618 -0.327076 0)
(0.304775 0.302537 0)
(0.335714 0.313053 0)
(0.565193 0.021349 0)
(0.830571 -0.0898678 0)
(-0.223115 0.0677268 0)
(-0.347229 0.250766 0)
(-0.460989 0.267579 0)
(-0.329977 -0.162111 0)
(-0.369928 -0.572553 0)
(-0.259136 -0.325563 0)
(0.183222 0.274885 0)
(0.304392 0.312061 0)
(0.634366 -0.000585603 0)
(0.866435 -0.0969871 0)
(-0.207508 0.102062 0)
(-0.309352 0.261927 0)
(-0.414439 0.273701 0)
(-0.193272 -0.157806 0)
(-0.261447 -0.562182 0)
(-0.286895 -0.317753 0)
(0.08306 0.241931 0)
(0.299235 0.297213 0)
(0.723442 -0.0211291 0)
(0.913889 -0.0986451 0)
(-0.18424 0.131355 0)
(-0.248359 0.263629 0)
(-0.320754 0.264494 0)
(0.0053948 -0.158062 0)
(-0.119498 -0.559278 0)
(-0.280267 -0.296124 0)
(0.0139909 0.213628 0)
(0.313985 0.276511 0)
(0.810616 -0.0479827 0)
(0.968999 -0.101695 0)
(-0.15265 0.152714 0)
(-0.163008 0.251594 0)
(-0.159246 0.2551 0)
(0.271681 -0.150779 0)
(0.052578 -0.518219 0)
(-0.241499 -0.273548 0)
(-0.0139925 0.176026 0)
(0.352799 0.250323 0)
(0.890474 -0.0730474 0)
(1.02754 -0.103833 0)
(-0.116356 0.162167 0)
(-0.0580379 0.243034 0)
(0.0744526 0.203047 0)
(0.614104 -0.158334 0)
(0.273893 -0.470645 0)
(-0.161874 -0.255956 0)
(-0.00554814 0.139324 0)
(0.416522 0.219235 0)
(0.962836 -0.100064 0)
(1.08553 -0.10391 0)
(-0.0810653 0.167162 0)
(0.0590414 0.209512 0)
(0.370702 0.164009 0)
(1.0218 -0.142624 0)
(0.535645 -0.406963 0)
(-0.0390291 -0.23109 0)
(0.0328558 0.113141 0)
(0.49758 0.180766 0)
(1.03123 -0.126415 0)
(1.13943 -0.107183 0)
(-0.0398577 0.169713 0)
(0.195171 0.16101 0)
(0.68874 0.0752283 0)
(1.4344 -0.172603 0)
(0.810169 -0.326075 0)
(0.125893 -0.207144 0)
(0.105453 0.0951226 0)
(0.59463 0.138225 0)
(1.0985 -0.15318 0)
(1.18803 -0.107301 0)
(0.0325493 0.156174 0)
(0.402952 0.103163 0)
(1.0394 0.00620105 0)
(1.76389 -0.188433 0)
(1.06457 -0.254407 0)
(0.326331 -0.173492 0)
(0.217259 0.0834997 0)
(0.713842 0.0918162 0)
(1.16843 -0.176072 0)
(1.23112 -0.108955 0)
(0.254723 0.128005 0)
(0.767912 0.0212248 0)
(1.42019 -0.0733902 0)
(1.97742 -0.214593 0)
(1.2709 -0.196226 0)
(0.551023 -0.148138 0)
(0.373623 0.0806901 0)
(0.8598 0.0403946 0)
(1.24164 -0.193429 0)
(1.26966 -0.111359 0)
(0.855762 -0.0023379 0)
(1.29304 -0.0061784 0)
(1.78885 -0.118788 0)
(2.09939 -0.211403 0)
(1.4222 -0.15087 0)
(0.775354 -0.100282 0)
(0.57351 0.0645057 0)
(1.03559 0.00845356 0)
(1.31602 -0.203437 0)
(1.30543 -0.114352 0)
(1.56046 0.0230987 0)
(1.80613 -0.0607438 0)
(2.07765 -0.136528 0)
(2.15772 -0.212495 0)
(1.54915 -0.129454 0)
(0.998219 -0.0770939 0)
(0.828697 0.0661985 0)
(1.23412 -0.0398609 0)
(1.3952 -0.206883 0)
(1.34511 -0.117791 0)
(1.68158 0.255756 0)
(2.07092 -0.0198863 0)
(2.22357 -0.128293 0)
(2.19189 -0.187831 0)
(1.64867 -0.107467 0)
(1.19058 -0.0480848 0)
(1.09796 0.0576079 0)
(1.41962 -0.0730865 0)
(1.47291 -0.196911 0)
(1.39117 -0.12434 0)
(1.73199 0.262198 0)
(2.11567 -0.0579084 0)
(2.25481 -0.116375 0)
(2.20541 -0.168565 0)
(1.72103 -0.109419 0)
(1.33254 -0.0430599 0)
(1.31098 0.0525144 0)
(1.54978 -0.102751 0)
(1.53948 -0.185858 0)
(1.4426 -0.12702 0)
(1.72129 0.361276 0)
(2.09344 0.00409189 0)
(2.25311 -0.0917696 0)
(2.20927 -0.141724 0)
(1.7788 -0.101084 0)
(1.43193 -0.0387687 0)
(1.45251 0.0428835 0)
(1.63183 -0.119793 0)
(1.59987 -0.176401 0)
(1.49816 -0.126039 0)
(1.75238 0.386643 0)
(2.08539 0.00341671 0)
(2.25564 -0.0840265 0)
(2.2153 -0.131652 0)
(1.83451 -0.11369 0)
(1.50198 -0.0448673 0)
(1.54051 0.0207064 0)
(1.68423 -0.126401 0)
(1.65764 -0.169899 0)
(1.55615 -0.121554 0)
(1.7682 0.456304 0)
(2.07228 0.0817061 0)
(2.25549 -0.0407852 0)
(2.22259 -0.114416 0)
(1.89794 -0.119124 0)
(1.56113 -0.0451521 0)
(1.60261 -0.00331802 0)
(1.72867 -0.128996 0)
(1.71319 -0.163923 0)
(1.61437 -0.117262 0)
(1.78601 0.4964 0)
(2.0841 0.105296 0)
(2.27376 -0.0172164 0)
(2.23327 -0.124879 0)
(1.96283 -0.149831 0)
(1.61927 -0.0501057 0)
(1.65773 -0.0283556 0)
(1.77588 -0.148385 0)
(1.76426 -0.161034 0)
(1.66948 -0.110612 0)
(1.78433 0.536657 0)
(2.07411 0.184194 0)
(2.27387 0.0479635 0)
(2.23585 -0.10701 0)
(2.02555 -0.16996 0)
(1.68174 -0.0504843 0)
(1.71979 -0.041195 0)
(1.83039 -0.166657 0)
(1.80769 -0.164017 0)
(1.71857 -0.108806 0)
(1.77201 0.564287 0)
(2.07443 0.223204 0)
(2.28928 0.0927427 0)
(2.23268 -0.126196 0)
(2.06452 -0.206868 0)
(1.74319 -0.0652744 0)
(1.78579 -0.0551155 0)
(1.88328 -0.184036 0)
(1.84023 -0.176376 0)
(1.75916 -0.104932 0)
(1.75821 0.580264 0)
(2.05258 0.287812 0)
(2.28148 0.162539 0)
(2.21604 -0.106857 0)
(2.09053 -0.227638 0)
(1.79827 -0.078855 0)
(1.84565 -0.0795309 0)
(1.92684 -0.199562 0)
(1.86339 -0.187079 0)
(1.78964 -0.10654 0)
(1.73653 0.595532 0)
(2.041 0.332854 0)
(2.28723 0.196921 0)
(2.18634 -0.119146 0)
(2.09167 -0.253924 0)
(1.83717 -0.105939 0)
(1.89209 -0.109889 0)
(1.95613 -0.209181 0)
(1.88079 -0.194273 0)
(1.81116 -0.104184 0)
(1.71888 0.606424 0)
(2.01628 0.385945 0)
(2.28015 0.239462 0)
(2.14994 -0.101063 0)
(2.08608 -0.265437 0)
(1.86479 -0.131239 0)
(1.92427 -0.13615 0)
(1.97341 -0.215911 0)
(1.89207 -0.197613 0)
(1.82722 -0.103527 0)
(1.69232 0.616761 0)
(1.98337 0.433536 0)
(2.26711 0.255391 0)
(2.12675 -0.0892139 0)
(2.06797 -0.277614 0)
(1.88145 -0.156518 0)
(1.94208 -0.163663 0)
(1.9822 -0.223911 0)
(1.89922 -0.19699 0)
(1.839 -0.102197 0)
(1.6743 0.627441 0)
(1.9672 0.467715 0)
(2.25016 0.27531 0)
(2.10914 -0.0594076 0)
(2.04981 -0.281713 0)
(1.89336 -0.181318 0)
(1.95537 -0.188533 0)
(1.9867 -0.226718 0)
(1.90316 -0.194936 0)
(1.84708 -0.0989768 0)
(1.6558 0.636897 0)
(1.92548 0.499603 0)
(2.22325 0.299009 0)
(2.09463 -0.0300556 0)
(2.03926 -0.282586 0)
(1.90817 -0.204297 0)
(1.97236 -0.205713 0)
(1.98732 -0.225439 0)
(1.90399 -0.188773 0)
(1.85376 -0.0942974 0)
(1.64184 0.646472 0)
(1.89621 0.520614 0)
(2.19548 0.317895 0)
(2.08557 -0.00738897 0)
(2.0349 -0.281806 0)
(1.92439 -0.223844 0)
(1.98073 -0.219939 0)
(1.9865 -0.224611 0)
(1.90594 -0.182819 0)
(1.86014 -0.0876594 0)
(1.6259 0.658765 0)
(1.86845 0.536237 0)
(2.16514 0.333042 0)
(2.08098 0.0168826 0)
(2.02962 -0.277511 0)
(1.93371 -0.239899 0)
(1.9819 -0.231955 0)
(1.98196 -0.226349 0)
(1.90662 -0.180795 0)
(1.86276 -0.0822089 0)
(1.62678 0.665077 0)
(1.83632 0.551112 0)
(2.12664 0.341933 0)
(2.08555 0.0307789 0)
(2.01724 -0.271204 0)
(1.93245 -0.25331 0)
(1.97458 -0.239777 0)
(1.97295 -0.227932 0)
(1.90613 -0.179605 0)
(1.86387 -0.0780651 0)
(1.62937 0.682368 0)
(1.80419 0.567697 0)
(2.07109 0.349372 0)
(2.09426 0.0456332 0)
(1.99491 -0.257629 0)
(1.92475 -0.261786 0)
(1.96299 -0.248763 0)
(1.96371 -0.234832 0)
(1.90622 -0.183038 0)
(1.86488 -0.074348 0)
(1.6335 0.688675 0)
(1.78581 0.571379 0)
(2.00953 0.348701 0)
(2.09048 0.0556858 0)
(1.96314 -0.237976 0)
(1.92013 -0.267966 0)
(1.95131 -0.25838 0)
(1.95587 -0.243604 0)
(1.90811 -0.191517 0)
(1.86575 -0.0762415 0)
(0.761518 0.259382 0)
(0.68876 0.318898 0)
(0.752911 0.36635 0)
(0.776256 0.410778 0)
(0.799238 0.43493 0)
(0.825921 0.449422 0)
(0.862545 0.465139 0)
(0.914687 0.488998 0)
(0.995997 0.520115 0)
(1.16273 0.565617 0)
(0.940192 0.423094 0)
(0.771603 0.445303 0)
(0.78982 0.476638 0)
(0.804847 0.481915 0)
(0.829353 0.481332 0)
(0.859117 0.484715 0)
(0.892971 0.50112 0)
(0.939598 0.520714 0)
(1.01687 0.539995 0)
(1.17238 0.579496 0)
(1.28725 0.512581 0)
(1.02071 0.56525 0)
(1.0061 0.518129 0)
(1.00054 0.484017 0)
(0.996813 0.477256 0)
(0.999175 0.485629 0)
(1.0106 0.498627 0)
(1.03742 0.509964 0)
(1.09727 0.51752 0)
(1.25099 0.553194 0)
(1.92689 0.464082 0)
(1.33101 0.627073 0)
(1.15576 0.659601 0)
(1.15531 0.638719 0)
(1.13903 0.628564 0)
(1.12646 0.618216 0)
(1.12502 0.609969 0)
(1.13794 0.60411 0)
(1.18958 0.590031 0)
(1.33224 0.618552 0)
(2.36302 0.218426 0)
(1.9495 0.491084 0)
(1.32084 0.676143 0)
(1.25807 0.713548 0)
(1.26789 0.695693 0)
(1.26882 0.67697 0)
(1.26654 0.664837 0)
(1.28111 0.648395 0)
(1.31748 0.621687 0)
(1.43498 0.636298 0)
(2.44292 0.136305 0)
(2.42237 0.169839 0)
(1.72822 0.58947 0)
(1.33363 0.723344 0)
(1.31564 0.726464 0)
(1.33729 0.719639 0)
(1.34802 0.710983 0)
(1.36901 0.700123 0)
(1.39843 0.681122 0)
(1.48933 0.683291 0)
(2.47602 0.102606 0)
(2.4704 0.112338 0)
(2.38296 0.205698 0)
(1.57419 0.665473 0)
(1.34072 0.730006 0)
(1.35571 0.726023 0)
(1.37379 0.723988 0)
(1.40378 0.7186 0)
(1.44549 0.704178 0)
(1.5194 0.693098 0)
(2.48591 0.0979616 0)
(2.48315 0.0987629 0)
(2.47916 0.10573 0)
(2.2494 0.33606 0)
(1.44173 0.695941 0)
(1.35612 0.718487 0)
(1.37511 0.721226 0)
(1.40834 0.720628 0)
(1.45475 0.715994 0)
(1.5223 0.701866 0)
(2.50657 0.0677672 0)
(2.50433 0.069961 0)
(2.5018 0.0743199 0)
(2.49498 0.0877207 0)
(1.85109 0.553649 0)
(1.355 0.726669 0)
(1.36796 0.72476 0)
(1.4049 0.720851 0)
(1.45275 0.715565 0)
(1.51643 0.703833 0)
(2.51552 0.0561988 0)
(2.51229 0.060342 0)
(2.50951 0.063493 0)
(2.50625 0.0682392 0)
(2.45751 0.155287 0)
(1.51736 0.669129 0)
(1.37261 0.718053 0)
(1.40347 0.717553 0)
(1.44953 0.713502 0)
(1.51085 0.704692 0)
(2.52256 0.0449455 0)
(2.5206 0.0457523 0)
(2.5173 0.0502214 0)
(2.51609 0.0496322 0)
(2.51123 0.0590221 0)
(2.12589 0.44022 0)
(1.39669 0.714456 0)
(1.39767 0.718747 0)
(1.44128 0.712464 0)
(1.50108 0.703052 0)
(2.52988 0.0321222 0)
(2.52792 0.034182 0)
(2.52555 0.0366142 0)
(2.52283 0.0396603 0)
(2.52013 0.0437179 0)
(2.51647 0.08838 0)
(1.59519 0.64289 0)
(1.39868 0.714384 0)
(1.4361 0.709887 0)
(1.48901 0.702289 0)
(2.53557 0.0238963 0)
(2.53317 0.0261883 0)
(2.53088 0.0279087 0)
(2.52745 0.031468 0)
(2.52468 0.0329476 0)
(2.51957 0.0405745 0)
(2.20088 0.394208 0)
(1.44762 0.704925 0)
(1.4315 0.70793 0)
(1.47692 0.701927 0)
(2.53711 0.0205935 0)
(2.53509 0.0217614 0)
(2.53278 0.0233545 0)
(2.53016 0.0249932 0)
(2.52712 0.0271325 0)
(2.52481 0.0292729 0)
(2.52597 0.0744326 0)
(1.62676 0.638488 0)
(1.43659 0.700941 0)
(1.47111 0.699545 0)
(2.53975 0.0140897 0)
(2.53808 0.0148822 0)
(2.53598 0.0164314 0)
(2.53388 0.0176886 0)
(2.53107 0.0202045 0)
(2.52877 0.0216391 0)
(2.5235 0.0302791 0)
(2.12411 0.439563 0)
(1.46568 0.700761 0)
(1.46657 0.699776 0)
(2.54147 0.010678 0)
(2.53985 0.0116109 0)
(2.53793 0.0128781 0)
(2.53592 0.0142571 0)
(2.53341 0.0163113 0)
(2.5307 0.0182738 0)
(2.52811 0.021245 0)
(2.50371 0.109915 0)
(1.6541 0.640048 0)
(1.46898 0.693503 0)
(2.54308 0.00781995 0)
(2.54148 0.00872504 0)
(2.53983 0.00946345 0)
(2.53784 0.0107396 0)
(2.5356 0.0121415 0)
(2.53315 0.0136761 0)
(2.53057 0.0158536 0)
(2.52685 0.027166 0)
(1.93588 0.535213 0)
(1.48186 0.707204 0)
(2.54415 0.00603566 0)
(2.54263 0.00672225 0)
(2.54111 0.00725729 0)
(2.53914 0.00849647 0)
(2.53735 0.00909623 0)
(2.5347 0.0112517 0)
(2.53252 0.0120004 0)
(2.52872 0.0170588 0)
(2.41209 0.236395 0)
(1.59685 0.671091 0)
(2.54495 0.00465713 0)
(2.54359 0.00501182 0)
(2.54201 0.00571856 0)
(2.54036 0.00628455 0)
(2.53842 0.00730253 0)
(2.53625 0.00840546 0)
(2.53382 0.00964171 0)
(2.53144 0.0121164 0)
(2.5402 0.0451496 0)
(1.75506 0.606152 0)
(2.54571 0.00326487 0)
(2.54434 0.00368278 0)
(2.54287 0.00414993 0)
(2.54119 0.00480262 0)
(2.53937 0.00555331 0)
(2.53731 0.00645416 0)
(2.53489 0.00774976 0)
(2.53265 0.00885088 0)
(2.52774 0.0174673 0)
(2.027 0.490398 0)
(2.6483 -9.23065e-08 0)
(2.64124 2.78659e-07 0)
(2.63355 -7.17471e-07 0)
(2.62518 1.199e-06 0)
(2.61603 -2.49702e-06 0)
(2.60602 3.6555e-06 0)
(2.59526 -8.95159e-06 0)
(2.58232 1.16884e-05 0)
(2.57353 -2.86135e-05 0)
(1.97217 0.0486877 0)
(2.6483 -2.6535e-07 0)
(2.64124 8.03963e-07 0)
(2.63355 -2.05566e-06 0)
(2.62518 3.45922e-06 0)
(2.61603 -6.98097e-06 0)
(2.60602 1.03264e-05 0)
(2.59526 -2.37498e-05 0)
(2.58232 3.62083e-05 0)
(2.57351 -9.03817e-05 0)
(2.09085 0.162723 0)
(2.6483 -4.34918e-07 0)
(2.64124 1.321e-06 0)
(2.63355 -3.36063e-06 0)
(2.62518 5.67825e-06 0)
(2.61603 -1.14095e-05 0)
(2.60602 1.68583e-05 0)
(2.59526 -3.67214e-05 0)
(2.58233 5.70913e-05 0)
(2.57338 -0.000218227 0)
(2.28691 0.170568 0)
(2.6483 -5.97481e-07 0)
(2.64124 1.81862e-06 0)
(2.63355 -4.58997e-06 0)
(2.62518 7.79069e-06 0)
(2.61603 -1.55278e-05 0)
(2.60602 2.31935e-05 0)
(2.59526 -4.95843e-05 0)
(2.58233 7.6247e-05 0)
(2.57311 -0.000210934 0)
(2.40325 0.144552 0)
(2.6483 -7.50357e-07 0)
(2.64124 2.28989e-06 0)
(2.63355 -5.72406e-06 0)
(2.62518 9.76757e-06 0)
(2.61603 -1.92763e-05 0)
(2.60601 2.90424e-05 0)
(2.59526 -6.03891e-05 0)
(2.58234 9.79651e-05 0)
(2.57293 -0.000261145 0)
(2.44743 0.114947 0)
(2.6483 -8.91729e-07 0)
(2.64124 2.72913e-06 0)
(2.63355 -6.74823e-06 0)
(2.62518 1.15854e-05 0)
(2.61603 -2.26127e-05 0)
(2.60601 3.43984e-05 0)
(2.59527 -6.95459e-05 0)
(2.58235 0.000116394 0)
(2.57286 -0.000257498 0)
(2.47806 0.0909298 0)
(2.6483 -1.0204e-06 0)
(2.64124 3.13232e-06 0)
(2.63355 -7.65586e-06 0)
(2.62518 1.32308e-05 0)
(2.61604 -2.55219e-05 0)
(2.60602 3.92374e-05 0)
(2.59527 -7.78051e-05 0)
(2.58237 0.000134676 0)
(2.57283 -0.000267081 0)
(2.49771 0.0764308 0)
(2.6483 -1.13575e-06 0)
(2.64124 3.49682e-06 0)
(2.63355 -8.44623e-06 0)
(2.62518 1.46967e-05 0)
(2.61604 -2.80003e-05 0)
(2.60602 4.34637e-05 0)
(2.59527 -8.41781e-05 0)
(2.58239 0.000146723 0)
(2.57278 -0.000277185 0)
(2.51846 0.0564254 0)
(2.6483 -1.23768e-06 0)
(2.64124 3.82154e-06 0)
(2.63356 -9.12403e-06 0)
(2.62518 1.59881e-05 0)
(2.61604 -3.01014e-05 0)
(2.60602 4.72086e-05 0)
(2.59527 -9.03058e-05 0)
(2.58241 0.000161219 0)
(2.57273 -0.000280106 0)
(2.52578 0.0508921 0)
(2.6483 -1.3265e-06 0)
(2.64124 4.10654e-06 0)
(2.63356 -9.69593e-06 0)
(2.62518 1.71066e-05 0)
(2.61604 -3.18258e-05 0)
(2.60602 5.04088e-05 0)
(2.59527 -9.48353e-05 0)
(2.58244 0.00017183 0)
(2.57265 -0.00028722 0)
(2.53524 0.0352987 0)
(2.6483 -1.40283e-06 0)
(2.64124 4.35321e-06 0)
(2.63356 -1.01723e-05 0)
(2.62518 1.80661e-05 0)
(2.61604 -3.32254e-05 0)
(2.60602 5.3106e-05 0)
(2.59527 -9.82366e-05 0)
(2.58248 0.000182039 0)
(2.57256 -0.000300701 0)
(2.54049 0.0277568 0)
(2.6483 -1.4675e-06 0)
(2.64124 4.56351e-06 0)
(2.63356 -1.05629e-05 0)
(2.62518 1.88802e-05 0)
(2.61604 -3.43677e-05 0)
(2.60602 5.54652e-05 0)
(2.59527 -0.000100837 0)
(2.58252 0.000191944 0)
(2.57245 -0.000309543 0)
(2.54349 0.0233206 0)
(2.6483 -1.52141e-06 0)
(2.64124 4.74e-06 0)
(2.63356 -1.08769e-05 0)
(2.62518 1.95562e-05 0)
(2.61604 -3.52464e-05 0)
(2.60602 5.7419e-05 0)
(2.59526 -0.000102544 0)
(2.58257 0.00019868 0)
(2.57231 -0.000318073 0)
(2.54828 0.0152612 0)
(2.6483 -1.56555e-06 0)
(2.64124 4.88565e-06 0)
(2.63356 -1.11247e-05 0)
(2.62518 2.0113e-05 0)
(2.61604 -3.59243e-05 0)
(2.60602 5.91055e-05 0)
(2.59526 -0.000103936 0)
(2.58262 0.00020633 0)
(2.57216 -0.000327773 0)
(2.54985 0.0125081 0)
(2.6483 -1.60083e-06 0)
(2.64124 5.00319e-06 0)
(2.63356 -1.13134e-05 0)
(2.62518 2.05566e-05 0)
(2.61604 -3.63989e-05 0)
(2.60602 6.03899e-05 0)
(2.59525 -0.000104165 0)
(2.58268 0.000210826 0)
(2.57199 -0.00033583 0)
(2.55118 0.00901841 0)
(2.6483 -1.62814e-06 0)
(2.64124 5.0955e-06 0)
(2.63356 -1.14512e-05 0)
(2.62518 2.09039e-05 0)
(2.61604 -3.67301e-05 0)
(2.60603 6.15429e-05 0)
(2.59524 -0.000104268 0)
(2.58274 0.00021496 0)
(2.57181 -0.000338961 0)
(2.55226 0.00665951 0)
(2.6483 -1.64827e-06 0)
(2.64124 5.16489e-06 0)
(2.63356 -1.15427e-05 0)
(2.62518 2.11577e-05 0)
(2.61604 -3.68808e-05 0)
(2.60603 6.24102e-05 0)
(2.59523 -0.000103742 0)
(2.58281 0.000217763 0)
(2.57161 -0.000338712 0)
(2.55312 0.00496103 0)
(2.6483 -1.66197e-06 0)
(2.64124 5.21343e-06 0)
(2.63356 -1.1592e-05 0)
(2.62518 2.13293e-05 0)
(2.61604 -3.68721e-05 0)
(2.60603 6.30345e-05 0)
(2.59522 -0.000102846 0)
(2.58287 0.000219152 0)
(2.5714 -0.000333606 0)
(2.55392 0.00344518 0)
(2.6483 -1.66986e-06 0)
(2.64124 5.24259e-06 0)
(2.63356 -1.15976e-05 0)
(2.62518 2.14231e-05 0)
(2.61604 -3.67164e-05 0)
(2.60603 6.33614e-05 0)
(2.59521 -0.000101497 0)
(2.58293 0.000219448 0)
(2.5712 -0.000321813 0)
(2.55439 0.00255564 0)
(2.6483 -1.67243e-06 0)
(2.64124 5.25495e-06 0)
(2.63356 -1.15654e-05 0)
(2.62518 2.14446e-05 0)
(2.61604 -3.64254e-05 0)
(2.60604 6.34261e-05 0)
(2.5952 -9.96525e-05 0)
(2.58299 0.000218771 0)
(2.571 -0.00030723 0)
(2.5548 0.00172449 0)
(2.6483 1.67232e-06 0)
(2.64124 -5.25456e-06 0)
(2.63356 1.15649e-05 0)
(2.62518 -2.14435e-05 0)
(2.61604 3.64251e-05 0)
(2.60604 -6.34247e-05 0)
(2.5952 9.96495e-05 0)
(2.58299 -0.000218765 0)
(2.57099 0.000307045 0)
(2.5548 -0.00171888 0)
(2.6483 1.66974e-06 0)
(2.64124 -5.24217e-06 0)
(2.63356 1.1597e-05 0)
(2.62518 -2.14217e-05 0)
(2.61604 3.67155e-05 0)
(2.60603 -6.33583e-05 0)
(2.59521 0.000101491 0)
(2.58293 -0.00021944 0)
(2.5712 0.000321571 0)
(2.5544 -0.0025499 0)
(2.6483 1.66183e-06 0)
(2.64124 -5.21298e-06 0)
(2.63356 1.15914e-05 0)
(2.62518 -2.13278e-05 0)
(2.61604 3.68706e-05 0)
(2.60603 -6.30304e-05 0)
(2.59522 0.000102834 0)
(2.58287 -0.00021914 0)
(2.5714 0.000333394 0)
(2.55392 -0.00343586 0)
(2.6483 1.64812e-06 0)
(2.64124 -5.16443e-06 0)
(2.63356 1.15421e-05 0)
(2.62518 -2.11561e-05 0)
(2.61604 3.68786e-05 0)
(2.60603 -6.24049e-05 0)
(2.59523 0.000103725 0)
(2.58281 -0.000217756 0)
(2.57161 0.000338506 0)
(2.55313 -0.0049494 0)
(2.6483 1.62797e-06 0)
(2.64124 -5.09505e-06 0)
(2.63356 1.14506e-05 0)
(2.62518 -2.09027e-05 0)
(2.61604 3.67279e-05 0)
(2.60603 -6.15381e-05 0)
(2.59524 0.000104249 0)
(2.58274 -0.000214965 0)
(2.57181 0.000338862 0)
(2.55227 -0.00664796 0)
(2.6483 1.60065e-06 0)
(2.64124 -5.00276e-06 0)
(2.63356 1.13129e-05 0)
(2.62518 -2.05559e-05 0)
(2.61604 3.63968e-05 0)
(2.60602 -6.03841e-05 0)
(2.59525 0.000104141 0)
(2.58268 -0.000210834 0)
(2.57199 0.000335763 0)
(2.55119 -0.00899763 0)
(2.6483 1.56535e-06 0)
(2.64124 -4.88526e-06 0)
(2.63356 1.11244e-05 0)
(2.62518 -2.01131e-05 0)
(2.61604 3.5923e-05 0)
(2.60602 -5.91016e-05 0)
(2.59526 0.000103911 0)
(2.58262 -0.000206338 0)
(2.57216 0.000327765 0)
(2.54986 -0.012486 0)
(2.6483 1.5212e-06 0)
(2.64124 -4.73965e-06 0)
(2.63356 1.08769e-05 0)
(2.62518 -1.95573e-05 0)
(2.61604 3.52463e-05 0)
(2.60602 -5.7417e-05 0)
(2.59526 0.000102518 0)
(2.58257 -0.000198692 0)
(2.57231 0.000318121 0)
(2.54829 -0.0152515 0)
(2.6483 1.46726e-06 0)
(2.64124 -4.56319e-06 0)
(2.63356 1.05632e-05 0)
(2.62518 -1.88825e-05 0)
(2.61604 3.43694e-05 0)
(2.60602 -5.54653e-05 0)
(2.59527 0.00010081 0)
(2.58252 -0.000191953 0)
(2.57245 0.000309645 0)
(2.54351 -0.0232932 0)
(2.6483 1.40257e-06 0)
(2.64124 -4.35292e-06 0)
(2.63356 1.01729e-05 0)
(2.62518 -1.80694e-05 0)
(2.61604 3.32289e-05 0)
(2.60602 -5.31094e-05 0)
(2.59527 9.82205e-05 0)
(2.58248 -0.000182089 0)
(2.57256 0.000300805 0)
(2.54051 -0.0277437 0)
(2.6483 1.32622e-06 0)
(2.64124 -4.10631e-06 0)
(2.63356 9.69689e-06 0)
(2.62518 -1.71111e-05 0)
(2.61604 3.18318e-05 0)
(2.60602 -5.04167e-05 0)
(2.59527 9.48219e-05 0)
(2.58244 -0.00017187 0)
(2.57265 0.000287356 0)
(2.53529 -0.0352635 0)
(2.6483 1.2374e-06 0)
(2.64124 -3.82138e-06 0)
(2.63356 9.12541e-06 0)
(2.62518 -1.59938e-05 0)
(2.61604 3.01103e-05 0)
(2.60602 -4.72223e-05 0)
(2.59527 9.03072e-05 0)
(2.58241 -0.000161272 0)
(2.57273 0.000280234 0)
(2.52582 -0.0508789 0)
(2.6483 1.13547e-06 0)
(2.64124 -3.49677e-06 0)
(2.63355 8.448e-06 0)
(2.62518 -1.47034e-05 0)
(2.61604 2.80108e-05 0)
(2.60602 -4.34806e-05 0)
(2.59527 8.41732e-05 0)
(2.58239 -0.000146757 0)
(2.57278 0.000277358 0)
(2.51851 -0.0564055 0)
(2.6483 1.02014e-06 0)
(2.64124 -3.13241e-06 0)
(2.63355 7.65822e-06 0)
(2.62518 -1.32389e-05 0)
(2.61604 2.55387e-05 0)
(2.60602 -3.9269e-05 0)
(2.59527 7.78514e-05 0)
(2.58237 -0.000134681 0)
(2.57283 0.000267277 0)
(2.49779 -0.0764346 0)
(2.6483 8.91487e-07 0)
(2.64124 -2.72936e-06 0)
(2.63355 6.75104e-06 0)
(2.62518 -1.1594e-05 0)
(2.61603 2.26289e-05 0)
(2.60601 -3.44257e-05 0)
(2.59527 6.95216e-05 0)
(2.58235 -0.000116367 0)
(2.57286 0.000257669 0)
(2.47821 -0.0909016 0)
(2.6483 7.50138e-07 0)
(2.64124 -2.29026e-06 0)
(2.63355 5.72746e-06 0)
(2.62518 -9.77759e-06 0)
(2.61603 1.93012e-05 0)
(2.60601 -2.90988e-05 0)
(2.59526 6.05415e-05 0)
(2.58234 -9.7872e-05 0)
(2.57293 0.000261614 0)
(2.44761 -0.114947 0)
(2.6483 5.97279e-07 0)
(2.64124 -1.81911e-06 0)
(2.63355 4.59377e-06 0)
(2.62518 -7.80092e-06 0)
(2.61603 1.55507e-05 0)
(2.60602 -2.32309e-05 0)
(2.59526 4.95332e-05 0)
(2.58233 -7.59933e-05 0)
(2.5731 0.000209904 0)
(2.40342 -0.144601 0)
(2.6483 4.34729e-07 0)
(2.64124 -1.32157e-06 0)
(2.63355 3.36486e-06 0)
(2.62518 -5.68956e-06 0)
(2.61603 1.14405e-05 0)
(2.60602 -1.6935e-05 0)
(2.59526 3.70829e-05 0)
(2.58234 -5.69601e-05 0)
(2.57338 0.00022149 0)
(2.28705 -0.170665 0)
(2.6483 2.65167e-07 0)
(2.64124 -8.04587e-07 0)
(2.63355 2.06011e-06 0)
(2.62518 -3.47047e-06 0)
(2.61603 7.00676e-06 0)
(2.60602 -1.03512e-05 0)
(2.59526 2.3456e-05 0)
(2.58233 -3.60167e-05 0)
(2.57353 8.94852e-05 0)
(2.09087 -0.162824 0)
(2.6483 9.21248e-08 0)
(2.64124 -2.79315e-07 0)
(2.63355 7.22099e-07 0)
(2.62518 -1.21072e-06 0)
(2.61603 2.5261e-06 0)
(2.60602 -3.7061e-06 0)
(2.59526 9.2573e-06 0)
(2.58232 -1.28906e-05 0)
(2.57354 2.59863e-05 0)
(1.97213 -0.0486961 0)
(2.54572 -0.00325638 0)
(2.54435 -0.0036773 0)
(2.54288 -0.00413767 0)
(2.5412 -0.00480147 0)
(2.53938 -0.00553229 0)
(2.5373 -0.00645908 0)
(2.5349 -0.00771394 0)
(2.53266 -0.008857 0)
(2.52787 -0.017619 0)
(2.02022 -0.495476 0)
(2.54495 -0.00464118 0)
(2.5436 -0.00499894 0)
(2.54202 -0.00570073 0)
(2.54036 -0.00627 0)
(2.53843 -0.00728512 0)
(2.53626 -0.00838583 0)
(2.53383 -0.0096246 0)
(2.53145 -0.0120967 0)
(2.5403 -0.0467266 0)
(1.75135 -0.607985 0)
(2.54416 -0.00602402 0)
(2.54264 -0.00670726 0)
(2.54112 -0.00724245 0)
(2.53915 -0.00848013 0)
(2.53736 -0.00907558 0)
(2.5347 -0.011238 0)
(2.53254 -0.0119628 0)
(2.52867 -0.0171212 0)
(2.40501 -0.243497 0)
(1.59293 -0.672232 0)
(2.54309 -0.00779533 0)
(2.54149 -0.00870626 0)
(2.53984 -0.00943486 0)
(2.53785 -0.0107197 0)
(2.53562 -0.012115 0)
(2.53317 -0.013634 0)
(2.53058 -0.0158437 0)
(2.52707 -0.0273804 0)
(1.92519 -0.540031 0)
(1.48015 -0.707148 0)
(2.54148 -0.0106632 0)
(2.53986 -0.011586 0)
(2.53794 -0.0128691 0)
(2.53594 -0.0142159 0)
(2.53342 -0.0163058 0)
(2.53073 -0.0182174 0)
(2.52811 -0.0212334 0)
(2.50108 -0.113839 0)
(1.64991 -0.641795 0)
(1.46812 -0.693268 0)
(2.53976 -0.014075 0)
(2.53809 -0.0148588 0)
(2.536 -0.016402 0)
(2.53389 -0.0176665 0)
(2.5311 -0.0201376 0)
(2.52878 -0.021627 0)
(2.52353 -0.0303243 0)
(2.11244 -0.446617 0)
(1.46238 -0.701421 0)
(1.46582 -0.699727 0)
(2.53713 -0.0205536 0)
(2.53511 -0.0217396 0)
(2.53282 -0.0232991 0)
(2.53018 -0.0249799 0)
(2.52716 -0.0270616 0)
(2.52485 -0.0292305 0)
(2.5251 -0.0764961 0)
(1.62312 -0.640351 0)
(1.43536 -0.700001 0)
(1.47111 -0.698988 0)
(2.53561 -0.0238217 0)
(2.5332 -0.0261357 0)
(2.53092 -0.0278441 0)
(2.5275 -0.0313997 0)
(2.52471 -0.0329062 0)
(2.51961 -0.0405649 0)
(2.19149 -0.400755 0)
(1.44404 -0.705551 0)
(1.43058 -0.706936 0)
(1.47742 -0.700206 0)
(2.5299 -0.0321057 0)
(2.52796 -0.0341219 0)
(2.52557 -0.0365979 0)
(2.5229 -0.0395631 0)
(2.52017 -0.0436693 0)
(2.51586 -0.0896492 0)
(1.58983 -0.645236 0)
(1.39809 -0.71311 0)
(1.43544 -0.708723 0)
(1.48964 -0.700867 0)
(2.52259 -0.0449378 0)
(2.52062 -0.0457414 0)
(2.51733 -0.0501778 0)
(2.51608 -0.0496291 0)
(2.51129 -0.0589817 0)
(2.11733 -0.443952 0)
(1.3953 -0.714466 0)
(1.39678 -0.717978 0)
(1.44086 -0.711663 0)
(1.50205 -0.70109 0)
(2.51562 -0.0560979 0)
(2.51236 -0.060275 0)
(2.50959 -0.0634063 0)
(2.5063 -0.0681881 0)
(2.45598 -0.157375 0)
(1.51401 -0.669955 0)
(1.37134 -0.717039 0)
(1.4029 -0.716907 0)
(1.44965 -0.713318 0)
(1.51224 -0.703751 0)
(2.50664 -0.0677202 0)
(2.5044 -0.069902 0)
(2.50187 -0.0742681 0)
(2.49512 -0.0877876 0)
(1.84547 -0.555618 0)
(1.3532 -0.726404 0)
(1.36718 -0.723695 0)
(1.40482 -0.719946 0)
(1.45359 -0.714853 0)
(1.51864 -0.702843 0)
(2.486 -0.0979044 0)
(2.48324 -0.0987106 0)
(2.47925 -0.105677 0)
(2.2489 -0.337856 0)
(1.43798 -0.696603 0)
(1.35489 -0.717884 0)
(1.37443 -0.720705 0)
(1.40838 -0.719981 0)
(1.45612 -0.71507 0)
(1.52543 -0.70034 0)
(2.47613 -0.102567 0)
(2.4705 -0.112298 0)
(2.38268 -0.206096 0)
(1.57272 -0.665951 0)
(1.33962 -0.729783 0)
(1.3549 -0.725742 0)
(1.37319 -0.723635 0)
(1.40399 -0.718093 0)
(1.44705 -0.703655 0)
(1.52348 -0.691666 0)
(2.44308 -0.136284 0)
(2.42253 -0.169812 0)
(1.72755 -0.590037 0)
(1.33246 -0.723329 0)
(1.31494 -0.72623 0)
(1.33698 -0.719253 0)
(1.34785 -0.710408 0)
(1.36987 -0.699222 0)
(1.40045 -0.680486 0)
(1.49525 -0.680413 0)
(2.36332 -0.218412 0)
(1.94947 -0.491223 0)
(1.32048 -0.67633 0)
(1.2576 -0.713464 0)
(1.26735 -0.695641 0)
(1.26864 -0.67697 0)
(1.26668 -0.664785 0)
(1.2822 -0.648444 0)
(1.32016 -0.621364 0)
(1.44106 -0.635288 0)
(1.92709 -0.464253 0)
(1.33093 -0.627318 0)
(1.15557 -0.659627 0)
(1.15517 -0.638705 0)
(1.13881 -0.628633 0)
(1.12666 -0.618051 0)
(1.12559 -0.609893 0)
(1.13977 -0.60382 0)
(1.19251 -0.589539 0)
(1.33991 -0.616174 0)
(1.28722 -0.512837 0)
(1.02056 -0.565491 0)
(1.00586 -0.518261 0)
(1.00043 -0.484025 0)
(0.996646 -0.477319 0)
(0.99922 -0.485595 0)
(1.0111 -0.498692 0)
(1.03877 -0.510014 0)
(1.10029 -0.517569 0)
(1.25844 -0.552453 0)
(0.940041 -0.423237 0)
(0.771381 -0.445346 0)
(0.789486 -0.476656 0)
(0.804498 -0.481857 0)
(0.829021 -0.481089 0)
(0.858905 -0.484378 0)
(0.893153 -0.500929 0)
(0.940629 -0.520684 0)
(1.02012 -0.540605 0)
(1.18106 -0.579557 0)
(0.761315 -0.259422 0)
(0.688491 -0.318872 0)
(0.752484 -0.366328 0)
(0.775777 -0.410644 0)
(0.79873 -0.434745 0)
(0.825455 -0.449168 0)
(0.862401 -0.46486 0)
(0.915426 -0.488868 0)
(0.999152 -0.520688 0)
(1.1726 -0.566959 0)
(1.62917 -0.687814 0)
(1.81512 -0.571555 0)
(1.97093 -0.334955 0)
(1.97007 -0.0777111 0)
(2.03841 0.154268 0)
(2.0222 0.352994 0)
(1.96065 0.403949 0)
(1.86148 0.27457 0)
(1.83422 0.145139 0)
(1.86871 0.0401312 0)
(1.62604 -0.679662 0)
(1.83689 -0.565374 0)
(2.00167 -0.333617 0)
(1.98737 -0.071486 0)
(2.06627 0.150442 0)
(2.03099 0.353043 0)
(1.98446 0.39885 0)
(1.84979 0.261237 0)
(1.83419 0.144579 0)
(1.87124 0.0388721 0)
(1.62415 -0.663555 0)
(1.86696 -0.544346 0)
(2.03836 -0.323496 0)
(2.0089 -0.0621123 0)
(2.09112 0.147497 0)
(2.03743 0.352774 0)
(2.00751 0.393512 0)
(1.836 0.250829 0)
(1.83522 0.141588 0)
(1.87303 0.0360605 0)
(1.62588 -0.656771 0)
(1.8892 -0.525047 0)
(2.07073 -0.31647 0)
(2.03562 -0.0576906 0)
(2.11584 0.142478 0)
(2.05315 0.35149 0)
(2.0176 0.386037 0)
(1.82145 0.246152 0)
(1.83514 0.140259 0)
(1.87167 0.0337214 0)
(1.64465 -0.646446 0)
(1.9193 -0.500437 0)
(2.10333 -0.296657 0)
(2.06648 -0.0529671 0)
(2.13844 0.137275 0)
(2.07121 0.35698 0)
(2.01636 0.378887 0)
(1.80345 0.238165 0)
(1.83062 0.136229 0)
(1.86519 0.0310441 0)
(1.66007 -0.638054 0)
(1.94003 -0.474779 0)
(2.12795 -0.279411 0)
(2.09885 -0.0602963 0)
(2.15668 0.125211 0)
(2.08845 0.364561 0)
(2.01316 0.371885 0)
(1.7856 0.231796 0)
(1.82139 0.130803 0)
(1.85466 0.027557 0)
(1.68079 -0.629562 0)
(1.97823 -0.439517 0)
(2.1522 -0.251961 0)
(2.13437 -0.0669862 0)
(2.16419 0.10663 0)
(2.10272 0.366588 0)
(2.00711 0.360068 0)
(1.77026 0.224538 0)
(1.8078 0.12535 0)
(1.84346 0.0243927 0)
(1.69921 -0.618086 0)
(1.99702 -0.408445 0)
(2.1668 -0.230963 0)
(2.16106 -0.0782657 0)
(2.16255 0.0847125 0)
(2.11107 0.358126 0)
(2.00313 0.342444 0)
(1.7615 0.218394 0)
(1.7968 0.117132 0)
(1.8308 0.0230274 0)
(1.72886 -0.604712 0)
(2.03066 -0.365085 0)
(2.18229 -0.205275 0)
(2.17232 -0.0849559 0)
(2.15272 0.0630059 0)
(2.10839 0.339133 0)
(1.99972 0.322861 0)
(1.75565 0.213371 0)
(1.78219 0.110576 0)
(1.80923 0.0189142 0)
(1.74907 -0.590378 0)
(2.05179 -0.322987 0)
(2.18868 -0.173316 0)
(2.16966 -0.0852088 0)
(2.13506 0.0434534 0)