/*--------------------------------*- C++ -*----------------------------------*\
  =========                 |
  \\      /  F ield         | OpenFOAM: The Open Source CFD Toolbox
   \\    /   O peration     | Website:  https://openfoam.org
    \\  /    A nd           | Version:  7
     \\/     M anipulation  |
\*---------------------------------------------------------------------------*/
FoamFile
{
    version     2.0;
    format      ascii;
    class       volVectorField;
    location    "0.8";
    object      U;
}
// * * * * * * * * * * * * * * * * * * * * * * * * * * * * * * * * * * * * * //

dimensions      [0 1 -1 0 0 0 0];

internalField   nonuniform List<vector> 
325
(
(1.01377 -0.156535 0)
(-0.191728 0.182536 0)
(0.147345 -0.0152229 0)
(0.897869 -0.166499 0)
(1.46986 -0.209438 0)
(-0.0915103 0.176443 0)
(0.448725 -0.110347 0)
(1.38086 -0.277072 0)
(1.84015 -0.267008 0)
(0.0374418 0.174739 0)
(0.863423 -0.174688 0)
(1.83208 -0.368019 0)
(2.09248 -0.299569 0)
(0.199296 0.0843533 0)
(1.35607 -0.369004 0)
(2.16805 -0.496186 0)
(2.21942 -0.332738 0)
(0.596826 0.0706413 0)
(1.9048 -0.437937 0)
(2.38164 -0.540016 0)
(2.2593 -0.361257 0)
(1.27627 -0.320712 0)
(2.31802 -0.59464 0)
(2.45677 -0.582954 0)
(2.2492 -0.391401 0)
(1.94422 -0.0548821 0)
(2.5255 -0.560782 0)
(2.42606 -0.585814 0)
(2.22371 -0.40415 0)
(2.02793 0.148334 0)
(2.51048 -0.529789 0)
(2.34669 -0.558261 0)
(2.23477 -0.441556 0)
(1.99112 0.219578 0)
(2.39401 -0.359084 0)
(2.34328 -0.5123 0)
(2.25668 -0.47067 0)
(1.90777 0.313864 0)
(2.31555 -0.290765 0)
(2.34415 -0.48206 0)
(2.2679 -0.48831 0)
(1.87486 0.338544 0)
(2.23704 -0.163267 0)
(2.30466 -0.390065 0)
(2.25552 -0.482079 0)
(1.83462 0.404339 0)
(2.1914 -0.0955458 0)
(2.28282 -0.347855 0)
(2.23081 -0.465545 0)
(1.83896 0.43544 0)
(2.15299 -0.0196861 0)
(2.22596 -0.231767 0)
(2.22487 -0.436956 0)
(1.84786 0.499785 0)
(2.12758 0.0533151 0)
(2.20137 -0.181664 0)
(2.22037 -0.409143 0)
(1.88183 0.543244 0)
(2.12152 0.115525 0)
(2.16007 -0.0943015 0)
(2.20566 -0.348792 0)
(1.91482 0.596932 0)
(2.119 0.194071 0)
(2.14606 -0.0547564 0)
(2.20372 -0.322664 0)
(1.94407 0.639848 0)
(2.1364 0.253132 0)
(2.14142 -0.00407112 0)
(2.2131 -0.268052 0)
(1.96279 0.672096 0)
(2.14823 0.32755 0)
(2.15699 0.0298432 0)
(2.24467 -0.245302 0)
(1.96822 0.695832 0)
(2.16621 0.381083 0)
(2.18755 0.0814443 0)
(2.27943 -0.189162 0)
(1.96692 0.710123 0)
(2.17254 0.439406 0)
(2.23163 0.120843 0)
(2.3224 -0.155893 0)
(1.95417 0.726804 0)
(2.17339 0.486482 0)
(2.27351 0.169858 0)
(2.36018 -0.0987987 0)
(1.94111 0.736377 0)
(2.16192 0.527047 0)
(2.30957 0.202462 0)
(2.4009 -0.0527571 0)
(1.92267 0.735771 0)
(2.14598 0.548506 0)
(2.32584 0.248046 0)
(2.43481 -0.00981145 0)
(1.89569 0.742007 0)
(2.12315 0.566409 0)
(2.3325 0.276571 0)
(2.44497 0.0200246 0)
(1.87516 0.749881 0)
(2.10085 0.578686 0)
(2.318 0.314845 0)
(2.42322 0.0660547 0)
(1.8456 0.752624 0)
(2.06293 0.594562 0)
(2.29397 0.343869 0)
(2.39528 0.100539 0)
(0.911587 0.488859 0)
(0.980783 0.516724 0)
(1.08506 0.562221 0)
(1.28049 0.615086 0)
(0.915022 0.48568 0)
(0.985463 0.518832 0)
(1.09158 0.565609 0)
(1.27922 0.617764 0)
(0.951194 0.446763 0)
(1.01577 0.479051 0)
(1.12024 0.522539 0)
(1.30104 0.553003 0)
(1.01524 0.490378 0)
(1.06725 0.503723 0)
(1.16409 0.525247 0)
(1.34114 0.555837 0)
(1.166 0.53772 0)
(1.18387 0.528098 0)
(1.249 0.528855 0)
(1.40156 0.558747 0)
(1.32239 0.66638 0)
(1.32702 0.624477 0)
(1.35013 0.593755 0)
(1.47972 0.60217 0)
(1.48015 0.757885 0)
(1.48434 0.71082 0)
(1.48313 0.665694 0)
(1.58444 0.644452 0)
(1.58222 0.824901 0)
(1.59581 0.79194 0)
(1.60318 0.746957 0)
(1.67559 0.717119 0)
(1.62973 0.859483 0)
(1.66115 0.834542 0)
(1.68258 0.806012 0)
(1.75233 0.77145 0)
(1.63246 0.878326 0)
(1.6822 0.861977 0)
(1.72052 0.846187 0)
(1.79575 0.815821 0)
(1.64775 0.879497 0)
(1.68967 0.87355 0)
(1.73734 0.867494 0)
(1.81124 0.842719 0)
(1.66291 0.885199 0)
(1.68968 0.885635 0)
(1.7315 0.879547 0)
(1.80493 0.855885 0)
(1.70697 0.871168 0)
(1.68573 0.890254 0)
(1.72481 0.876751 0)
(1.7977 0.850477 0)
(2.03893 0.725446 0)
(1.71261 0.876307 0)
(1.7262 0.870799 0)
(1.78312 0.849451 0)
(2.7185 0.400892 0)
(1.76011 0.887068 0)
(1.7178 0.868725 0)
(1.76408 0.849494 0)
(2.98701 0.0827769 0)
(2.07728 0.721828 0)
(1.72972 0.864123 0)
(1.75253 0.848595 0)
(2.97442 0.0534345 0)
(2.60604 0.462307 0)
(1.75389 0.898968 0)
(1.7322 0.839116 0)
(2.98081 0.0407022 0)
(3.00629 0.0959531 0)
(1.96733 0.783798 0)
(1.72972 0.828139 0)
(2.98519 0.0309721 0)
(2.98951 0.0383754 0)
(2.25418 0.621705 0)
(1.72763 0.834359 0)
(2.98494 0.0307501 0)
(2.81153 0.277026 0)
(1.79011 0.809408 0)
(1.82731 0.716661 0)
(2.01894 0.611514 0)
(2.24017 0.386845 0)
(2.3466 0.153504 0)
(1.80645 0.698504 0)
(1.94833 0.620309 0)
(2.16482 0.427268 0)
(2.26832 0.23206 0)
(1.84497 0.655972 0)
(1.88265 0.610153 0)
(2.0667 0.45676 0)
(2.17845 0.302838 0)
(1.8895 0.658269 0)
(1.83114 0.582427 0)
(1.98873 0.48323 0)
(2.08652 0.360421 0)
(1.97378 0.608007 0)
(1.78311 0.596713 0)
(1.92133 0.518505 0)
(2.01729 0.416822 0)
(2.13934 0.505749 0)
(1.74719 0.601957 0)
(1.85709 0.542665 0)
(1.94658 0.451005 0)
(2.41258 0.412749 0)
(1.72992 0.610884 0)
(1.80788 0.571601 0)
(1.89338 0.475587 0)
(2.67165 0.3088 0)
(1.72843 0.62943 0)
(1.762 0.591123 0)
(1.84586 0.48991 0)
(3.05134 0.169452 0)
(1.78903 0.645707 0)
(1.74111 0.601067 0)
(1.8038 0.501499 0)
(3.24362 -0.00486848 0)
(1.94159 0.648339 0)
(1.73101 0.585758 0)
(1.7784 0.514636 0)
(3.11931 -0.0337504 0)
(2.14068 0.635608 0)
(1.70921 0.603326 0)
(1.77421 0.550307 0)
(3.04142 -0.00971287 0)
(2.32561 0.596237 0)
(1.70462 0.636563 0)
(1.74734 0.589504 0)
(3.01497 -0.0080342 0)
(2.54151 0.504438 0)
(1.73108 0.67297 0)
(1.74126 0.623468 0)
(3.00299 -0.00547176 0)
(2.71241 0.396176 0)
(1.78573 0.716318 0)
(1.74616 0.639123 0)
(2.99919 -0.00296453 0)
(2.92846 0.258187 0)
(1.90204 0.77471 0)
(1.75137 0.611289 0)
(2.99849 -0.00145464 0)
(3.10599 0.0991311 0)
(2.08809 0.834355 0)
(1.71622 0.484716 0)
(2.99865 -0.000643775 0)
(3.10455 0.0129705 0)
(2.34564 0.883329 0)
(1.61146 0.290104 0)
(2.99851 -0.000375758 0)
(3.02906 0.000268661 0)
(2.57874 0.840516 0)
(1.59946 0.205509 0)
(2.99823 -0.000129639 0)
(3.00036 -0.00151591 0)
(2.57947 0.583766 0)
(1.53386 0.037012 0)
(2.99816 0.000472403 0)
(2.99738 -0.00100215 0)
(2.62085 0.346628 0)
(1.56673 0.0689645 0)
(2.99221 0.0160046 0)
(2.99014 0.0218307 0)
(3.01101 0.0285783 0)
(2.04605 0.665713 0)
(2.99345 0.0132545 0)
(2.99514 0.0142288 0)
(2.66379 0.317856 0)
(2.99667 0.00662083 0)
(2.99595 0.00893359 0)
(3.00462 0.0215383 0)
(2.99814 0.0035015 0)
(2.9973 0.00546074 0)
(3.00161 0.00419884 0)
(2.99874 0.00194759 0)
(2.99806 0.00286847 0)
(2.99855 0.0026692 0)
(2.99911 0.00093845 0)
(2.99873 0.00157045 0)
(2.99894 0.00126723 0)
(2.99925 0.000487815 0)
(2.99903 0.000812656 0)
(2.99906 0.00062044 0)
(2.99933 0.000252261 0)
(2.99916 0.000449217 0)
(2.9991 0.000305829 0)
(2.99938 0.000135036 0)
(2.99922 0.000277801 0)
(2.99912 0.000200274 0)
(2.99942 8.95965e-05 0)
(2.99926 0.000140397 0)
(2.99914 0.000179194 0)
(2.99945 9.23778e-05 0)
(2.99931 5.42759e-05 0)
(2.99917 0.000170029 0)
(2.99946 5.94529e-05 0)
(2.99935 3.52872e-05 0)
(2.99904 5.66368e-05 0)
(2.99946 3.11179e-07 0)
(2.99935 -1.09032e-05 0)
(2.99901 -1.67766e-05 0)
(2.99945 -6.61961e-05 0)
(2.99933 -8.52868e-05 0)
(2.99901 -8.77172e-05 0)
(2.99942 -9.34817e-05 0)
(2.99931 -0.000120752 0)
(2.999 -0.000127919 0)
(2.99939 -9.5686e-05 0)
(2.99927 -0.000141205 0)
(2.99899 -0.000117852 0)
(2.99936 -5.56983e-05 0)
(2.99923 -0.0001533 0)
(2.99909 -1.78848e-05 0)
(2.99933 -1.00739e-05 0)
(2.99918 -9.63737e-05 0)
(2.99899 -1.20367e-05 0)
(2.99929 -2.87543e-06 0)
(2.99914 -2.2947e-05 0)
(2.99893 -5.13822e-05 0)
(2.99928 -1.35643e-05 0)
(2.99911 7.38116e-05 0)
(2.99892 -4.74343e-05 0)
)
;

boundaryField
{
    inlet
    {
        type            fixedValue;
        value           nonuniform 0();
    }
    outlet
    {
        type            inletOutlet;
        inletValue      nonuniform 0();
        value           nonuniform 0();
    }
    triangle
    {
        type            slip;
    }
    top
    {
        type            symmetryPlane;
    }
    bottom
    {
        type            symmetryPlane;
    }
    defaultFaces
    {
        type            empty;
    }
    procBoundary6to2
    {
        type            processor;
        value           nonuniform List<vector> 5((0.545329 -0.0997922 0) (-0.264488 0.15492 0) (-0.103703 0.0187731 0) (0.425345 -0.100929 0) (0.425345 -0.100929 0));
    }
    procBoundary6to5
    {
        type            processor;
        value           nonuniform List<vector> 
43
(
(0.864702 0.467394 0)
(0.863912 0.467698 0)
(0.9062 0.425389 0)
(0.986242 0.488867 0)
(1.17392 0.551231 0)
(1.35027 0.699681 0)
(1.49799 0.792746 0)
(1.57518 0.844826 0)
(1.5984 0.876386 0)
(1.61144 0.880393 0)
(1.66474 0.878552 0)
(1.95113 0.778723 0)
(2.60904 0.466686 0)
(2.95551 0.110834 0)
(2.96086 0.0784541 0)
(2.97196 0.058357 0)
(2.97846 0.0431017 0)
(2.98311 0.033738 0)
(2.98743 0.0256133 0)
(2.98872 0.0233567 0)
(2.98872 0.0233567 0)
(2.98872 0.0233567 0)
(2.99275 0.0152331 0)
(2.99547 0.00945182 0)
(2.99547 0.00945182 0)
(2.99707 0.00635527 0)
(2.99827 0.00338551 0)
(2.99885 0.00184967 0)
(2.99916 0.000992833 0)
(2.99933 0.000532341 0)
(2.99942 0.000298933 0)
(2.99948 0.000171151 0)
(2.99952 9.39514e-05 0)
(2.99954 4.0338e-05 0)
(2.99956 9.6029e-06 0)
(2.99956 -8.41632e-06 0)
(2.99955 -6.09344e-05 0)
(2.99953 -9.88537e-05 0)
(2.99949 -0.000123293 0)
(2.99946 -0.000103807 0)
(2.99943 -4.53476e-05 0)
(2.99941 1.55424e-05 0)
(2.9994 5.1565e-05 0)
)
;
    }
    procBoundary6to7
    {
        type            processor;
        value           nonuniform List<vector> 
47
(
(1.32367 -0.100179 0)
(1.63621 -0.111892 0)
(1.84259 -0.122393 0)
(1.95603 -0.124079 0)
(1.99865 -0.126975 0)
(2.00286 -0.143159 0)
(1.98942 -0.164188 0)
(1.99382 -0.179519 0)
(2.03434 -0.209337 0)
(2.0814 -0.247595 0)
(2.13157 -0.304887 0)
(2.17074 -0.377449 0)
(2.20113 -0.461719 0)
(2.21992 -0.536118 0)
(2.23123 -0.565458 0)
(2.2547 -0.54818 0)
(2.29196 -0.53262 0)
(2.31962 -0.462094 0)
(2.34265 -0.423053 0)
(2.36085 -0.370125 0)
(2.38304 -0.331269 0)
(2.40781 -0.302158 0)
(2.42318 -0.269633 0)
(2.41964 -0.237645 0)
(2.39648 -0.182069 0)
(2.38606 -0.146328 0)
(2.35882 -0.0919189 0)
(2.31958 -0.0395851 0)
(2.22352 0.0495551 0)
(2.17537 0.108375 0)
(2.10765 0.166095 0)
(2.07529 0.209388 0)
(2.05157 0.253242 0)
(2.02511 0.299304 0)
(1.98079 0.337439 0)
(1.94404 0.361676 0)
(1.90066 0.379657 0)
(1.85989 0.387743 0)
(1.80264 0.386055 0)
(1.74522 0.3254 0)
(1.69303 0.234563 0)
(1.61127 0.0875601 0)
(1.60874 0.0210627 0)
(1.63749 -0.0506823 0)
(1.66751 -0.0467486 0)
(1.66371 -0.0520047 0)
(1.65818 -0.00890119 0)
)
;
    }
}


// ************************************************************************* //
