/*--------------------------------*- C++ -*----------------------------------*\
  =========                 |
  \\      /  F ield         | OpenFOAM: The Open Source CFD Toolbox
   \\    /   O peration     | Website:  https://openfoam.org
    \\  /    A nd           | Version:  8
     \\/     M anipulation  |
\*---------------------------------------------------------------------------*/
FoamFile
{
    version     2.0;
    format      ascii;
    class       volScalarField;
    location    "3.4";
    object      p;
}
// * * * * * * * * * * * * * * * * * * * * * * * * * * * * * * * * * * * * * //

dimensions      [1 -1 -2 0 0 0 0];

internalField   nonuniform List<scalar> 
2600
(
1.14727
1.11011
1.18805
1.47721
1.62466
1.9123
2.20374
2.26219
2.19957
2.01407
1.14983
1.08132
1.19891
1.48959
1.65576
1.94274
2.21527
2.27246
2.20142
2.02779
1.15236
1.06146
1.20005
1.48654
1.6502
1.9606
2.21438
2.26249
2.17213
2.021
1.15652
1.06026
1.20929
1.52349
1.66808
1.94017
2.19233
2.26839
2.19097
2.01536
1.15945
1.06474
1.22197
1.51862
1.71049
1.94081
2.20496
2.30785
2.21618
2.03338
1.16887
1.06138
1.20383
1.47856
1.71402
1.9736
2.23456
2.31198
2.21469
2.02672
1.18013
1.0589
1.16762
1.44993
1.73817
1.99556
2.21319
2.28892
2.21044
2.03551
1.19686
1.07221
1.14105
1.43272
1.72652
2.00788
2.20385
2.3013
2.19682
2.04108
1.21448
1.08538
1.1407
1.38485
1.6873
1.99431
2.22447
2.28058
2.21192
2.04537
1.22796
1.10053
1.12397
1.37155
1.66498
2.02191
2.21979
2.29597
2.19337
2.03669
1.23248
1.09669
1.11808
1.3248
1.69635
2.03656
2.25152
2.2744
2.21952
2.03724
1.23552
1.09569
1.08727
1.27233
1.70273
2.11024
2.24142
2.27354
2.20108
2.02814
1.23409
1.09565
1.05895
1.25097
1.72183
2.11323
2.28737
2.24735
2.19798
2.04348
1.2322
1.0963
1.0546
1.24177
1.71396
2.1302
2.2878
2.25412
2.1997
2.03774
1.23726
1.09634
1.04623
1.24044
1.70852
2.1089
2.29129
2.24011
2.20667
2.04024
1.24058
1.09984
1.03992
1.23495
1.70399
2.07149
2.27327
2.24289
2.19726
2.03691
1.24593
1.10373
1.03119
1.21778
1.72221
2.06184
2.27127
2.22723
2.17385
2.01612
1.24499
1.10915
1.0217
1.19096
1.71731
2.06402
2.26975
2.21395
2.17416
2.01464
1.23513
1.12221
1.01526
1.15668
1.68608
2.04701
2.23977
2.23544
2.19055
2.0281
1.22692
1.14906
1.00985
1.12312
1.64213
2.03267
2.21806
2.23805
2.18459
2.02638
1.42665
1.1887
1.02592
1.1007
1.57905
2.02215
2.20547
2.22857
2.1712
2.0155
1.65537
1.25655
1.05599
1.09809
1.5043
1.99789
2.19273
2.2206
2.15642
2.00141
1.90105
1.33143
1.10157
1.11424
1.44102
1.95742
2.17818
2.21975
2.14942
1.99349
2.09227
1.42613
1.16829
1.1415
1.39977
1.91409
2.15487
2.22057
2.15221
1.99514
2.2607
1.52877
1.22833
1.18035
1.36903
1.87178
2.12266
2.21704
2.15611
1.99942
2.39768
1.63798
1.28886
1.20668
1.34505
1.827
2.0953
2.20703
2.15041
1.99501
2.5124
1.75964
1.35801
1.22655
1.32755
1.76856
2.06861
2.19325
2.13746
1.98464
2.60998
1.871
1.45062
1.25355
1.31765
1.69586
2.03555
2.17882
2.12666
1.97648
2.69726
1.97318
1.54142
1.29528
1.3239
1.61194
1.99131
2.16461
2.12125
1.9717
2.77565
2.06979
1.61908
1.35508
1.33464
1.53628
1.93837
2.14849
2.11838
1.97218
2.84505
2.16434
1.69802
1.40885
1.35222
1.47955
1.88063
2.12758
2.1111
1.96712
2.90687
2.25274
1.78373
1.45964
1.3733
1.44219
1.81834
2.10427
2.10223
1.95737
2.96364
2.33387
1.87048
1.52347
1.39076
1.41201
1.74578
2.07849
2.09511
1.94835
3.01672
2.41042
1.94876
1.59872
1.40656
1.40881
1.66668
2.04762
2.08948
1.9402
3.06576
2.4837
2.02029
1.67377
1.43258
1.41132
1.59544
2.0062
2.0847
1.93382
3.1111
2.55236
2.09074
1.737
1.47747
1.41591
1.53723
1.95337
2.07698
1.92686
3.1537
2.61578
2.16135
1.79787
1.52686
1.42051
1.49315
1.89156
2.06458
1.91775
3.19385
2.6759
2.22846
1.8616
1.57056
1.42684
1.46176
1.82361
2.04856
1.90654
3.23227
2.73332
2.29063
1.92432
1.61842
1.43724
1.43915
1.75468
2.02905
1.89535
3.26865
2.78778
2.3497
1.9825
1.67025
1.45426
1.42192
1.68721
2.00767
1.88466
5.8209
5.52161
5.30852
5.1026
4.91119
4.73323
4.54561
4.33738
4.03176
3.72725
5.37815
5.10531
4.9827
4.84335
4.71156
4.56712
4.39749
4.18438
3.87386
3.4721
5.211
5.02676
4.93593
4.81334
4.69488
4.55764
4.38992
4.1753
3.86645
3.47073
5.02981
4.90801
4.84665
4.73971
4.63316
4.49646
4.33057
4.11469
3.81498
3.41916
4.87793
4.80324
4.75482
4.65509
4.55883
4.42711
4.26849
4.0556
3.76964
3.37871
4.78233
4.70821
4.65719
4.56845
4.48424
4.35866
4.20905
4.00237
3.73228
3.35492
4.68819
4.62625
4.58301
4.50371
4.42358
4.30113
4.15944
3.9591
3.70455
3.35127
4.60047
4.5466
4.50769
4.43595
4.36081
4.24512
4.11288
3.92217
3.68408
3.35877
4.52473
4.47669
4.44145
4.37632
4.30568
4.19626
4.07222
3.89136
3.66948
3.37096
4.459
4.41486
4.38167
4.32125
4.25413
4.15131
4.03506
3.86539
3.65868
3.38525
4.40191
4.36079
4.32932
4.27317
4.20953
4.11286
4.00339
3.84425
3.65155
3.4017
4.3519
4.31311
4.28315
4.23041
4.16988
4.07904
3.97581
3.82677
3.64776
3.41965
4.30811
4.27093
4.24242
4.19275
4.1353
4.04987
3.9524
3.81297
3.64607
3.43724
4.26885
4.23285
4.20575
4.15909
4.10488
4.02457
3.93208
3.80213
3.64679
3.45519
4.23437
4.19912
4.173
4.12899
4.07778
4.00234
3.91506
3.79455
3.64997
3.47332
4.20547
4.17058
4.14482
4.1027
4.0541
3.98319
3.90081
3.78902
3.6547
3.49181
4.18137
4.14698
4.12179
4.08114
4.0339
3.96647
3.88902
3.7861
3.66156
3.51093
4.16208
4.12816
4.10335
4.06415
4.01857
3.95494
3.88175
3.7864
3.6706
3.53066
4.14693
4.11321
4.08933
4.05224
4.00915
3.94916
3.87925
3.7899
3.68184
3.55106
4.13604
4.10184
4.07968
4.0453
4.00485
3.94909
3.88212
3.79733
3.69516
3.57197
1.00289
1.00908
1.01599
1.02382
1.03264
1.04266
1.055
1.06492
2.33919
4.38519
1.00289
1.00908
1.01599
1.02382
1.03264
1.04266
1.055
1.06498
2.33436
4.37953
1.00289
1.00908
1.01599
1.02382
1.03264
1.04265
1.055
1.06503
2.31469
4.37515
1.00289
1.00908
1.01599
1.02382
1.03265
1.04264
1.055
1.06507
2.28734
4.36466
1.00289
1.00908
1.01599
1.02382
1.03265
1.04264
1.055
1.06508
2.25495
4.35281
1.00289
1.00908
1.01599
1.02382
1.03265
1.04263
1.05501
1.06498
2.21797
4.33475
1.00289
1.00908
1.016
1.02381
1.03265
1.04262
1.05503
1.0649
2.17938
4.31595
1.00289
1.00908
1.016
1.02381
1.03266
1.04261
1.05504
1.06483
2.13939
4.2938
1.00289
1.00908
1.016
1.02381
1.03266
1.0426
1.05506
1.0648
2.0988
4.27015
1.00289
1.00908
1.016
1.02381
1.03266
1.0426
1.05508
1.06478
2.05775
4.2443
1.00289
1.00908
1.016
1.02381
1.03266
1.04259
1.0551
1.06477
2.01639
4.21681
1.00289
1.00908
1.016
1.02381
1.03267
1.04258
1.05511
1.06478
1.97493
4.18773
1.00289
1.00908
1.016
1.0238
1.03267
1.04258
1.05512
1.06478
1.93348
4.15754
1.00289
1.00908
1.016
1.0238
1.03267
1.04257
1.05513
1.06479
1.89237
4.12547
1.00289
1.00908
1.016
1.0238
1.03267
1.04257
1.05513
1.0648
1.85118
4.09295
1.00289
1.00908
1.016
1.0238
1.03267
1.04257
1.05514
1.0648
1.80815
4.06179
1.00289
1.00908
1.016
1.0238
1.03268
1.04256
1.05514
1.06481
1.76431
4.03158
1.00289
1.00908
1.016
1.0238
1.03268
1.04256
1.05514
1.06482
1.71956
4.00276
1.00289
1.00908
1.016
1.0238
1.03268
1.04256
1.05514
1.06482
1.67392
3.97506
1.00289
1.00908
1.016
1.0238
1.03268
1.04256
1.05514
1.06483
1.62724
3.94849
1.00289
1.00908
1.016
1.0238
1.03268
1.04256
1.05514
1.06483
1.62751
3.94786
1.00289
1.00908
1.016
1.0238
1.03268
1.04256
1.05514
1.06482
1.67419
3.97443
1.00289
1.00908
1.016
1.0238
1.03268
1.04256
1.05514
1.06482
1.71983
4.00214
1.00289
1.00908
1.016
1.0238
1.03268
1.04256
1.05514
1.06481
1.76456
4.03098
1.00289
1.00908
1.016
1.0238
1.03267
1.04257
1.05514
1.0648
1.80837
4.06121
1.00289
1.00908
1.016
1.0238
1.03267
1.04257
1.05513
1.0648
1.85138
4.0924
1.00289
1.00908
1.016
1.0238
1.03267
1.04257
1.05513
1.06479
1.89252
4.12498
1.00289
1.00908
1.016
1.0238
1.03267
1.04258
1.05512
1.06478
1.93356
4.15712
1.00289
1.00908
1.016
1.02381
1.03267
1.04258
1.05511
1.06478
1.97495
4.18738
1.00289
1.00908
1.016
1.02381
1.03266
1.04259
1.0551
1.06477
2.01636
4.21654
1.00289
1.00908
1.016
1.02381
1.03266
1.0426
1.05508
1.06478
2.05769
4.24409
1.00289
1.00908
1.016
1.02381
1.03266
1.0426
1.05506
1.0648
2.09871
4.26999
1.00289
1.00908
1.016
1.02381
1.03266
1.04261
1.05504
1.06483
2.13928
4.29368
1.00289
1.00908
1.016
1.02381
1.03265
1.04262
1.05503
1.0649
2.17927
4.31586
1.00289
1.00908
1.01599
1.02382
1.03265
1.04263
1.05501
1.06498
2.21786
4.3347
1.00289
1.00908
1.01599
1.02382
1.03265
1.04264
1.055
1.06508
2.25484
4.35278
1.00289
1.00908
1.01599
1.02382
1.03265
1.04264
1.055
1.06507
2.28724
4.36465
1.00289
1.00908
1.01599
1.02382
1.03264
1.04265
1.055
1.06503
2.31462
4.37514
1.00289
1.00908
1.01599
1.02382
1.03264
1.04266
1.055
1.06498
2.3343
4.37955
1.00289
1.00908
1.01599
1.02382
1.03264
1.04266
1.055
1.06496
2.33917
4.3852
4.13486
4.10092
4.07891
4.04486
4.00486
3.94964
3.88369
3.80002
3.69905
3.5764
4.14587
4.11237
4.08875
4.05206
4.0095
3.95018
3.88131
3.79299
3.68593
3.55539
4.16113
4.12746
4.10297
4.06427
4.01928
3.95646
3.8843
3.78973
3.67481
3.53489
4.18054
4.14643
4.12157
4.08153
4.03505
3.96856
3.89203
3.78955
3.66581
3.51502
4.20479
4.17023
4.14488
4.10342
4.05557
3.98556
3.9042
3.7926
3.65892
3.4957
4.23386
4.19901
4.17336
4.13003
4.0796
4.00488
3.91842
3.79812
3.65402
3.47696
4.26854
4.23301
4.2064
4.16042
4.10689
4.02728
3.93551
3.80572
3.65058
3.45858
4.30802
4.27136
4.24333
4.19432
4.13748
4.05266
3.95581
3.81655
3.64975
3.44058
4.35203
4.31378
4.28427
4.23213
4.17214
4.08186
3.97918
3.83029
3.65144
3.42296
4.40226
4.36167
4.33059
4.27499
4.21185
4.11565
4.00668
3.84764
3.6554
3.40486
4.45954
4.41589
4.38305
4.32311
4.25644
4.15404
4.03828
3.86865
3.66271
3.38787
4.52541
4.47781
4.44288
4.37819
4.30796
4.19891
4.07536
3.89456
3.67338
3.3728
4.60124
4.54775
4.50914
4.43779
4.36302
4.24767
4.11593
3.92531
3.68752
3.35964
4.68903
4.62738
4.58443
4.50549
4.4257
4.30359
4.16237
3.96207
3.70733
3.35104
4.78313
4.70932
4.65855
4.57015
4.48626
4.36098
4.21174
4.0051
3.73462
3.35228
4.87867
4.80428
4.75608
4.65669
4.56073
4.42928
4.27092
4.05803
3.77189
3.37411
5.03056
4.90902
4.8478
4.74118
4.63492
4.49849
4.33275
4.11692
3.81634
3.41406
5.21164
5.02766
4.937
4.81467
4.69647
4.5595
4.39185
4.17695
3.86652
3.46552
5.37864
5.10609
4.9837
4.84465
4.71313
4.56894
4.39939
4.18578
3.87391
3.46434
5.82111
5.52212
5.30929
5.10368
4.91254
4.73483
4.54737
4.33871
4.03199
3.72229
3.27304
2.78807
2.3501
1.99262
1.68242
1.43343
1.38136
1.62199
1.9888
1.86968
3.23627
2.73316
2.29062
1.93875
1.63262
1.41433
1.38308
1.68848
2.01547
1.87974
3.19713
2.67442
2.22894
1.88221
1.58697
1.3973
1.3987
1.75917
2.03697
1.88825
3.15589
2.61156
2.16373
1.82492
1.54553
1.38484
1.42195
1.83045
2.05414
1.89728
3.11212
2.54463
2.09446
1.77153
1.50001
1.37723
1.45682
1.89889
2.06866
1.9078
3.06595
2.47274
2.02495
1.71719
1.4525
1.3756
1.50301
1.95857
2.08118
1.91818
3.01695
2.397
1.95487
1.65498
1.41845
1.37636
1.558
2.00927
2.09088
1.92733
2.96403
2.3177
1.88023
1.59377
1.39729
1.37591
1.62072
2.04886
2.0953
1.93467
2.90666
2.23163
1.79875
1.54798
1.37659
1.37685
1.69414
2.08279
2.10432
1.94227
2.84185
2.13522
1.72309
1.51234
1.35369
1.37709
1.77615
2.11218
2.11366
1.95259
2.76846
2.03176
1.65729
1.46866
1.33727
1.40056
1.86146
2.13636
2.1217
1.96206
2.68598
1.9299
1.58725
1.4122
1.33349
1.44576
1.93995
2.15256
2.12712
1.96758
2.59698
1.82505
1.49597
1.37118
1.34676
1.51504
2.00421
2.16396
2.13185
1.9672
2.49867
1.71211
1.4016
1.3585
1.3694
1.59853
2.05071
2.17502
2.13722
1.97224
2.38324
1.59112
1.33137
1.35149
1.39785
1.67443
2.0822
2.18847
2.14611
1.97939
2.24596
1.47107
1.2945
1.3534
1.43003
1.73522
2.10482
2.20654
2.15838
1.98858
2.07445
1.35615
1.26615
1.36199
1.45994
1.78311
2.13502
2.22068
2.16283
1.995
1.87916
1.23966
1.23828
1.37469
1.49458
1.82025
2.16017
2.22373
2.15989
1.99481
1.64154
1.16079
1.20413
1.39633
1.53633
1.8523
2.17359
2.22883
2.16379
1.99184
1.38032
1.12372
1.17921
1.43342
1.58037
1.88081
2.18694
2.24119
2.18401
1.99634
3.86941
3.61434
3.29468
2.96689
2.62474
2.27892
1.95141
1.66374
1.33216
1.02893
3.862
3.60494
3.29093
2.96091
2.61863
2.27356
1.94731
1.65796
1.32838
1.03233
3.85401
3.59952
3.28402
2.95166
2.60959
2.26536
1.94029
1.64796
1.32197
1.03835
3.84302
3.59035
3.27227
2.93868
2.59661
2.25376
1.9305
1.63437
1.3148
1.04771
3.83072
3.57546
3.25662
2.92164
2.57945
2.23852
1.91719
1.61525
1.30556
1.06095
3.81718
3.55611
3.2365
2.90088
2.55846
2.21968
1.90047
1.59173
1.29693
1.07883
3.80088
3.53293
3.21282
2.87612
2.53345
2.19725
1.87977
1.56403
1.2908
1.10303
3.78477
3.50635
3.18576
2.84745
2.50403
2.1706
1.85467
1.53208
1.28588
1.13626
3.76354
3.47828
3.15539
2.81421
2.47039
2.13974
1.82432
1.49793
1.28047
1.18221
3.74186
3.44851
3.12024
2.77624
2.43193
2.10452
1.78817
1.46208
1.27146
1.24495
3.717
3.4149
3.08055
2.73336
2.38934
2.06454
1.74667
1.42783
1.26456
1.31826
3.68689
3.37708
3.03597
2.68531
2.34198
2.02018
1.69886
1.39875
1.26721
1.39741
3.65529
3.3352
2.98644
2.63275
2.29017
1.97006
1.64755
1.37949
1.28363
1.48182
3.62435
3.29082
2.93329
2.57542
2.2342
1.91483
1.59276
1.36948
1.32138
1.5626
3.59062
3.24265
2.87523
2.51391
2.1734
1.85334
1.54165
1.36103
1.38632
1.63808
3.55447
3.18814
2.80962
2.4446
2.10756
1.78566
1.49546
1.35872
1.47966
1.7024
3.5098
3.12464
2.73305
2.36538
2.03282
1.71308
1.46027
1.36381
1.59541
1.75044
3.45666
3.04933
2.6441
2.27542
1.94922
1.63274
1.42948
1.39244
1.71986
1.79032
3.39527
2.96357
2.54604
2.17705
1.85556
1.55548
1.40121
1.44835
1.83415
1.82146
3.32648
2.8663
2.43723
2.0741
1.75692
1.47793
1.38754
1.53514
1.93099
1.84971
3.32173
2.86423
2.43542
2.06615
1.74879
1.49348
1.40575
1.57755
1.95803
1.86529
3.39027
2.95899
2.54173
2.17049
1.85043
1.55714
1.40792
1.45635
1.85275
1.83327
3.45195
3.04341
2.6377
2.26812
1.94499
1.63352
1.42463
1.3785
1.71432
1.79571
3.50581
3.1185
2.72537
2.35742
2.02912
1.71695
1.45815
1.35312
1.56823
1.75014
3.55147
3.18263
2.80225
2.43653
2.10447
1.7921
1.49634
1.3521
1.44355
1.68979
3.58875
3.23812
2.86862
2.50684
2.17008
1.859
1.54922
1.35878
1.35651
1.61534
3.62353
3.28747
2.92747
2.56898
2.23051
1.91781
1.60136
1.36601
1.30273
1.53542
3.6554
3.33291
2.98188
2.6267
2.28554
1.97017
1.65392
1.37834
1.27306
1.4563
3.68771
3.3759
3.03224
2.68005
2.33679
2.01778
1.70236
1.39961
1.26277
1.3769
3.71841
3.41458
3.07805
2.7288
2.38428
2.0612
1.74702
1.42882
1.26193
1.30459
3.74361
3.44893
3.11864
2.77285
2.42762
2.101
1.78694
1.46276
1.26945
1.23765
3.76541
3.47916
3.15475
2.81198
2.46722
2.13681
1.82227
1.49743
1.2792
1.17988
3.78656
3.50755
3.18581
2.84632
2.5021
2.1686
1.85276
1.53116
1.28598
1.13695
3.80234
3.53427
3.21343
2.87598
2.5327
2.19625
1.87854
1.56288
1.2916
1.10533
3.81819
3.55734
3.23747
2.90155
2.5588
2.21988
1.90026
1.59094
1.29784
1.08153
3.83113
3.57643
3.25778
2.92298
2.58077
2.23985
1.91816
1.61516
1.30604
1.06345
3.84298
3.59101
3.27346
2.94056
2.59881
2.25619
1.93256
1.63506
1.31449
1.04958
3.85354
3.59982
3.28559
2.954
2.61244
2.26862
1.94329
1.64961
1.32173
1.03958
3.8612
3.60498
3.29243
2.96344
2.62192
2.27741
1.95092
1.66028
1.32816
1.03309
3.86834
3.61431
3.29599
2.96938
2.62827
2.28317
1.95543
1.66651
1.33202
1.02935
4.12989
4.09382
4.0727
4.04142
4.00523
3.95599
3.89458
3.81607
3.7208
3.60598
4.13091
4.09369
4.07324
4.04411
4.01177
3.96945
3.91576
3.84607
3.75962
3.65447
4.14263
4.10525
4.08665
4.05903
4.02812
3.98875
3.93979
3.87677
3.79793
3.70102
4.16549
4.12835
4.1112
4.08422
4.0529
4.01305
3.96438
3.90394
3.83012
3.7397
4.19613
4.15925
4.14308
4.11568
4.08406
4.04211
3.99134
3.92957
3.85729
3.77246
4.23142
4.19627
4.18088
4.15162
4.11814
4.07388
4.0207
3.956
3.88194
3.79746
4.27058
4.23854
4.223
4.18905
4.15044
4.10243
4.04791
3.98217
3.90728
3.8243
4.32516
4.28647
4.26188
4.22057
4.17683
4.12683
4.07178
4.00719
3.93255
3.8489
4.3906
4.32858
4.28401
4.23731
4.19142
4.13813
4.08184
4.02311
3.95466
3.87489
4.4162
4.35239
4.30341
4.25194
4.20177
4.14816
4.09442
4.03993
3.97518
3.89927
4.40389
4.3435
4.29788
4.25098
4.20511
4.15707
4.1068
4.05327
3.99106
3.91775
4.38103
4.33377
4.29867
4.25775
4.21515
4.16828
4.11913
4.06454
4.0042
3.93518
4.36682
4.32611
4.29627
4.25966
4.22047
4.17623
4.12864
4.07479
4.01631
3.94868
4.35793
4.32125
4.29457
4.2606
4.22367
4.18196
4.13624
4.08439
4.02714
3.96191
4.34961
4.31672
4.29239
4.2608
4.22614
4.18699
4.14345
4.09381
4.03715
3.9734
4.3449
4.31404
4.29083
4.26182
4.22972
4.1929
4.1505
4.10226
4.04537
3.98398
4.35048
4.3182
4.29212
4.26269
4.2316
4.1965
4.15475
4.1078
4.05198
3.99295
4.36485
4.32989
4.2986
4.26582
4.23296
4.19801
4.15663
4.11062
4.05647
3.99953
4.37955
4.34297
4.30714
4.27062
4.23474
4.19856
4.15696
4.11164
4.05906
4.00402
4.38706
4.35025
4.31254
4.27402
4.23676
4.19979
4.15799
4.11323
4.06178
4.00837
1.00289
1.00908
1.016
1.0238
1.03268
1.04256
1.05514
1.06484
1.56709
3.91665
1.00289
1.00908
1.016
1.0238
1.03268
1.04256
1.05514
1.06486
1.4932
3.87996
1.00289
1.00908
1.016
1.0238
1.03268
1.04256
1.05514
1.06488
1.4176
3.84637
1.00289
1.00908
1.016
1.0238
1.03268
1.04256
1.05513
1.0649
1.34257
3.81656
1.00289
1.00907
1.016
1.0238
1.03268
1.04256
1.05512
1.06494
1.27448
3.78616
1.00289
1.00907
1.016
1.02379
1.03268
1.04256
1.05512
1.065
1.21981
3.74857
1.00289
1.00907
1.01601
1.02379
1.03269
1.04255
1.05511
1.06509
1.17439
3.70463
1.00289
1.00907
1.01601
1.02379
1.03269
1.04255
1.0551
1.06522
1.14109
3.66301
1.00289
1.00907
1.01601
1.02379
1.03269
1.04254
1.05509
1.06538
1.11948
3.62044
1.00289
1.00907
1.01601
1.02379
1.03269
1.04254
1.0551
1.06556
1.10553
3.58826
1.00289
1.00907
1.01601
1.02379
1.0327
1.04253
1.05511
1.06578
1.09614
3.56946
1.00289
1.00907
1.01601
1.02379
1.0327
1.04252
1.05513
1.06601
1.08999
3.54476
1.00289
1.00907
1.01601
1.02379
1.0327
1.04252
1.05515
1.06623
1.08593
3.51981
1.00289
1.00907
1.01601
1.02379
1.03271
1.04252
1.05517
1.06644
1.0832
3.4958
1.00289
1.00907
1.01601
1.02379
1.03271
1.04253
1.05515
1.06665
1.08144
3.4727
1.00289
1.00907
1.01601
1.02379
1.03271
1.04254
1.05511
1.06683
1.08029
3.45249
1.00289
1.00907
1.01601
1.02378
1.0327
1.04256
1.05503
1.067
1.07961
3.43536
1.00289
1.00907
1.01601
1.02378
1.0327
1.04257
1.05493
1.06721
1.07916
3.42086
1.00289
1.00907
1.01601
1.02378
1.03271
1.04257
1.05486
1.06741
1.07893
3.40923
1.00289
1.00907
1.01601
1.02378
1.03271
1.04258
1.05477
1.06769
1.07871
3.40096
1.00289
1.00907
1.01601
1.02378
1.03271
1.04258
1.05477
1.06769
1.07871
3.40095
1.00289
1.00907
1.01601
1.02378
1.03271
1.04257
1.05486
1.06741
1.07893
3.40925
1.00289
1.00907
1.01601
1.02378
1.0327
1.04257
1.05493
1.06721
1.07916
3.42092
1.00289
1.00907
1.01601
1.02378
1.0327
1.04256
1.05503
1.067
1.07961
3.43547
1.00289
1.00907
1.01601
1.02379
1.03271
1.04254
1.05511
1.06683
1.08029
3.45267
1.00289
1.00907
1.01601
1.02379
1.03271
1.04253
1.05515
1.06665
1.08144
3.47293
1.00289
1.00907
1.01601
1.02379
1.03271
1.04252
1.05517
1.06644
1.0832
3.49607
1.00289
1.00907
1.01601
1.02379
1.0327
1.04252
1.05516
1.06623
1.08593
3.5201
1.00289
1.00907
1.01601
1.02379
1.0327
1.04252
1.05513
1.06601
1.08999
3.54506
1.00289
1.00907
1.01601
1.02379
1.0327
1.04253
1.05511
1.06578
1.09615
3.56975
1.00289
1.00907
1.01601
1.02379
1.03269
1.04254
1.0551
1.06556
1.10555
3.58852
1.00289
1.00907
1.01601
1.02379
1.03269
1.04254
1.05509
1.06538
1.11952
3.62069
1.00289
1.00907
1.01601
1.02379
1.03269
1.04255
1.0551
1.06522
1.14118
3.66314
1.00289
1.00907
1.01601
1.02379
1.03269
1.04255
1.05511
1.06509
1.17453
3.70462
1.00289
1.00907
1.016
1.02379
1.03268
1.04256
1.05512
1.065
1.22
3.74839
1.00289
1.00907
1.016
1.0238
1.03268
1.04256
1.05512
1.06494
1.27472
3.78584
1.00289
1.00908
1.016
1.0238
1.03268
1.04256
1.05513
1.0649
1.34285
3.81612
1.00289
1.00908
1.016
1.0238
1.03268
1.04256
1.05514
1.06488
1.41788
3.84582
1.00289
1.00908
1.016
1.0238
1.03268
1.04256
1.05514
1.06486
1.49347
3.87936
1.00289
1.00908
1.016
1.0238
1.03268
1.04256
1.05514
1.06484
1.56735
3.91602
4.38753
4.35079
4.31312
4.27466
4.23749
4.20065
4.15903
4.11446
4.06316
4.0098
4.37999
4.34347
4.30767
4.27122
4.23543
4.19939
4.15795
4.11279
4.06033
4.00529
4.36522
4.33032
4.29907
4.26635
4.23359
4.19874
4.15749
4.1116
4.0575
4.00052
4.35078
4.31857
4.29253
4.26316
4.23213
4.19711
4.15541
4.10851
4.05264
3.9935
4.34518
4.31438
4.2912
4.26222
4.23014
4.19333
4.1509
4.10259
4.04555
3.98394
4.34988
4.31704
4.29271
4.26111
4.22642
4.18719
4.14353
4.09372
4.0368
3.97279
4.3582
4.32153
4.29483
4.26081
4.22378
4.18192
4.13597
4.08384
4.02627
3.96075
4.36704
4.32633
4.29644
4.25973
4.22037
4.1759
4.12801
4.07381
4.01495
3.94704
4.38122
4.3339
4.2987
4.25765
4.21482
4.16767
4.11817
4.06317
4.00246
3.93314
4.40403
4.34356
4.29777
4.25067
4.20452
4.15617
4.10557
4.05162
3.98905
3.91552
4.41626
4.35226
4.30309
4.25139
4.2009
4.14694
4.09288
4.03807
3.97308
3.89711
4.39038
4.3281
4.28342
4.23648
4.19031
4.13668
4.08008
4.0212
3.95268
3.87298
4.325
4.28596
4.26113
4.21954
4.17556
4.12534
4.07013
4.00546
3.93088
3.84744
4.27025
4.23783
4.22205
4.18785
4.14909
4.10094
4.04637
3.98067
3.906
3.82343
4.23077
4.19529
4.17973
4.1503
4.11676
4.07246
4.01935
3.95483
3.88118
3.79731
4.19518
4.15804
4.1418
4.11433
4.08274
4.04086
3.99029
3.92884
3.85714
3.77319
4.16433
4.127
4.10985
4.08291
4.05171
4.01205
3.96371
3.90378
3.83073
3.74136
4.14132
4.10386
4.08534
4.05784
4.02714
3.98808
3.93958
3.87719
3.79934
3.70365
4.12958
4.0924
4.07208
4.04313
4.01108
3.96915
3.91608
3.8472
3.7619
3.65806
4.12863
4.09273
4.07176
4.04073
4.00488
3.95611
3.89553
3.81805
3.72406
3.61023
)
;

boundaryField
{
    inlet
    {
        type            fixedValue;
        value           uniform 1;
    }
    outlet
    {
        type            zeroGradient;
    }
    triangle
    {
        type            zeroGradient;
    }
    top
    {
        type            symmetryPlane;
    }
    bottom
    {
        type            symmetryPlane;
    }
    defaultFaces
    {
        type            empty;
    }
}


// ************************************************************************* //
