/*--------------------------------*- C++ -*----------------------------------*\
  =========                 |
  \\      /  F ield         | OpenFOAM: The Open Source CFD Toolbox
   \\    /   O peration     | Website:  https://openfoam.org
    \\  /    A nd           | Version:  8
     \\/     M anipulation  |
\*---------------------------------------------------------------------------*/
FoamFile
{
    version     2.0;
    format      ascii;
    class       volScalarField;
    location    "3.4";
    object      rho;
}
// * * * * * * * * * * * * * * * * * * * * * * * * * * * * * * * * * * * * * //

dimensions      [1 -3 0 0 0 0 0];

internalField   nonuniform List<scalar> 
2600
(
1.13131
1.17581
1.31343
1.59479
1.76995
2.04939
2.28077
2.33811
2.29415
2.16784
1.10647
1.09941
1.26586
1.54969
1.75587
2.04859
2.28849
2.33807
2.28363
2.16646
1.0959
1.05067
1.20841
1.47796
1.69568
2.02805
2.28101
2.31587
2.23913
2.13707
1.09485
1.03511
1.16841
1.42835
1.63223
1.96657
2.25042
2.29466
2.20927
2.08972
1.09483
1.0317
1.14618
1.3616
1.57537
1.90328
2.23224
2.2801
2.15921
2.04153
1.09907
1.02478
1.11516
1.29855
1.50652
1.84593
2.20662
2.21746
2.07973
1.9688
1.10407
1.01858
1.08099
1.26583
1.48372
1.77957
2.11953
2.12261
2.00879
1.91923
1.11266
1.0236
1.05768
1.24936
1.46432
1.72631
2.02194
2.05523
1.95589
1.89211
1.12266
1.02961
1.05316
1.21598
1.4384
1.68531
1.95098
1.98844
1.94545
1.88571
1.1314
1.03832
1.03812
1.20587
1.42527
1.68949
1.89292
1.97355
1.93197
1.88104
1.13522
1.03518
1.0319
1.17647
1.44882
1.69306
1.88717
1.95435
1.96202
1.8911
1.13818
1.0345
1.01233
1.15212
1.47108
1.73868
1.8706
1.95369
1.98693
1.91077
1.13801
1.03716
1.00271
1.16397
1.52915
1.75558
1.8976
1.94751
2.04632
1.9669
1.13678
1.04655
1.02505
1.20208
1.60128
1.80528
1.91335
1.98685
2.11933
2.02287
1.13948
1.0585
1.05945
1.25445
1.68364
1.86421
1.96077
2.04245
2.18852
2.08588
1.14058
1.06709
1.09226
1.2988
1.74948
1.93012
2.03348
2.12777
2.22955
2.13299
1.14303
1.06877
1.11119
1.32606
1.80981
2.0084
2.13722
2.19778
2.24381
2.14889
1.14241
1.07128
1.12685
1.34008
1.83683
2.0762
2.22803
2.24764
2.26399
2.16397
1.14328
1.09359
1.15359
1.34323
1.83585
2.10872
2.26454
2.29758
2.28806
2.18128
1.16913
1.16135
1.18976
1.34076
1.81743
2.12543
2.27708
2.31572
2.29004
2.18295
1.40808
1.27167
1.24467
1.34367
1.77766
2.13451
2.28052
2.31609
2.28257
2.17561
1.67516
1.39763
1.30084
1.36001
1.72502
2.12642
2.2755
2.31296
2.27136
2.16469
1.92914
1.50645
1.36115
1.38704
1.6771
2.09819
2.26325
2.31257
2.26555
2.15857
2.1257
1.62021
1.433
1.42078
1.64397
2.06276
2.24217
2.3129
2.26741
2.16002
2.2872
1.73262
1.4954
1.45592
1.61811
2.02746
2.2153
2.31023
2.27073
2.16374
2.40657
1.83824
1.55354
1.47761
1.59739
1.99178
2.19491
2.30441
2.2681
2.16131
2.49602
1.94133
1.61451
1.49449
1.58306
1.94779
2.17854
2.29717
2.26091
2.1547
2.56565
2.02839
1.69217
1.51833
1.57651
1.89431
2.15988
2.28933
2.25484
2.14953
2.62527
2.1054
1.76686
1.55523
1.58578
1.83175
2.13291
2.28039
2.25169
2.14656
2.67894
2.17761
1.83045
1.60822
1.60063
1.77366
2.09774
2.26821
2.24909
2.14748
2.72782
2.24868
1.89505
1.65843
1.6197
1.72976
2.05725
2.25055
2.24239
2.14411
2.77289
2.3158
1.96499
1.70611
1.63989
1.70103
2.0117
2.2295
2.23539
2.13727
2.81547
2.37796
2.03566
1.76332
1.65648
1.67836
1.95609
2.206
2.23212
2.13124
2.85601
2.43684
2.0994
1.82826
1.67184
1.67769
1.89321
2.18028
2.23181
2.12594
2.89391
2.49313
2.15731
1.89163
1.6966
1.68084
1.83581
2.15042
2.2325
2.12183
2.92921
2.54575
2.2136
1.94437
1.73659
1.68516
1.78882
2.11566
2.22898
2.11728
2.96255
2.59423
2.26914
1.99442
1.77918
1.68924
1.7537
2.0741
2.22015
2.11052
2.99411
2.63999
2.32128
2.04599
1.81631
1.69489
1.72964
2.02512
2.2075
2.10129
3.0244
2.68353
2.36923
2.09621
1.85651
1.70442
1.71319
1.9723
2.19135
2.09146
3.05321
2.7248
2.41466
2.14265
1.89972
1.72109
1.69977
1.91913
2.17334
2.08188
4.25543
4.09701
3.99048
3.89128
3.80101
3.71707
3.62529
3.51992
3.35551
3.15204
4.04385
3.90317
3.84808
3.78321
3.72125
3.65102
3.56472
3.45172
3.27841
3.03243
4.0081
3.92264
3.89062
3.83494
3.77587
3.70329
3.61138
3.49073
3.3117
3.07852
3.98955
3.93212
3.90888
3.8564
3.7996
3.72254
3.62628
3.49874
3.31814
3.07973
3.98496
3.93722
3.90774
3.85005
3.79458
3.71742
3.62298
3.49443
3.31836
3.07372
3.93446
3.89399
3.86519
3.81321
3.76372
3.68929
3.59965
3.47389
3.30627
3.06343
3.86988
3.83753
3.81489
3.77029
3.72443
3.65253
3.56794
3.4461
3.28779
3.05989
3.81412
3.78571
3.76512
3.72485
3.68195
3.61405
3.53513
3.41908
3.27107
3.06253
3.77159
3.74589
3.72639
3.68886
3.64765
3.58268
3.50809
3.39762
3.25964
3.06911
3.73835
3.71451
3.69555
3.65988
3.61979
3.55778
3.48705
3.38265
3.2538
3.07997
3.71174
3.68927
3.67091
3.63729
3.59874
3.53977
3.47248
3.37379
3.25309
3.0945
3.69008
3.66857
3.65076
3.6188
3.58178
3.52592
3.46198
3.36901
3.25617
3.11124
3.67269
3.65177
3.63448
3.60398
3.56847
3.51549
3.45467
3.36728
3.26159
3.12852
3.65855
3.638
3.62119
3.59207
3.55808
3.50772
3.44951
3.36756
3.26878
3.1463
3.64768
3.62726
3.61062
3.58261
3.54993
3.50203
3.44658
3.36995
3.27755
3.16411
3.64027
3.61975
3.60288
3.5755
3.54391
3.4983
3.44549
3.37377
3.28727
3.182
3.63566
3.61515
3.59817
3.57122
3.54005
3.4961
3.44578
3.37906
3.29819
3.20015
3.6338
3.61331
3.59615
3.56961
3.53899
3.49688
3.44859
3.38614
3.31037
3.21855
3.63409
3.61348
3.59648
3.57079
3.54123
3.50091
3.45427
3.39515
3.32383
3.23727
3.63658
3.61551
3.59912
3.57473
3.54647
3.50841
3.46318
3.40645
3.33841
3.25616
1.4029
1.40908
1.41596
1.42375
1.4325
1.44242
1.45458
1.46437
2.3609
3.56137
1.4029
1.40908
1.41596
1.42375
1.4325
1.44241
1.45458
1.46443
2.35629
3.56384
1.4029
1.40908
1.41596
1.42375
1.4325
1.44241
1.45457
1.46448
2.34249
3.56909
1.4029
1.40908
1.41596
1.42375
1.4325
1.4424
1.45457
1.46452
2.32388
3.56381
1.4029
1.40907
1.41597
1.42375
1.43251
1.44239
1.45458
1.46453
2.3029
3.55103
1.4029
1.40907
1.41597
1.42374
1.43251
1.44239
1.45459
1.46443
2.28508
3.53792
1.4029
1.40907
1.41597
1.42374
1.43251
1.44238
1.4546
1.46435
2.26936
3.5297
1.4029
1.40907
1.41597
1.42374
1.43251
1.44237
1.45462
1.46428
2.25215
3.52558
1.4029
1.40907
1.41597
1.42374
1.43252
1.44236
1.45464
1.46424
2.23229
3.52469
1.4029
1.40907
1.41597
1.42374
1.43252
1.44236
1.45466
1.46423
2.20958
3.52404
1.4029
1.40907
1.41597
1.42374
1.43252
1.44235
1.45467
1.46422
2.18463
3.5224
1.4029
1.40907
1.41597
1.42373
1.43252
1.44234
1.45468
1.46422
2.15828
3.51889
1.4029
1.40907
1.41597
1.42373
1.43253
1.44234
1.45469
1.46423
2.13127
3.51344
1.4029
1.40907
1.41597
1.42373
1.43253
1.44233
1.4547
1.46424
2.10427
3.50553
1.4029
1.40907
1.41597
1.42373
1.43253
1.44233
1.45471
1.46424
2.07713
3.49603
1.4029
1.40907
1.41597
1.42373
1.43253
1.44233
1.45471
1.46425
2.04842
3.48598
1.4029
1.40907
1.41597
1.42373
1.43253
1.44232
1.45471
1.46426
2.01892
3.47509
1.4029
1.40907
1.41597
1.42373
1.43253
1.44232
1.45471
1.46426
1.98847
3.46365
1.4029
1.40907
1.41597
1.42373
1.43254
1.44232
1.45472
1.46427
1.95698
3.45154
1.4029
1.40907
1.41597
1.42373
1.43254
1.44232
1.45472
1.46428
1.92427
3.43878
1.4029
1.40907
1.41597
1.42373
1.43254
1.44232
1.45472
1.46428
1.92445
3.43849
1.4029
1.40907
1.41597
1.42373
1.43254
1.44232
1.45472
1.46427
1.95716
3.45125
1.4029
1.40907
1.41597
1.42373
1.43253
1.44232
1.45471
1.46426
1.98865
3.46337
1.4029
1.40907
1.41597
1.42373
1.43253
1.44232
1.45471
1.46426
2.0191
3.47482
1.4029
1.40907
1.41597
1.42373
1.43253
1.44233
1.45471
1.46425
2.04859
3.48572
1.4029
1.40907
1.41597
1.42373
1.43253
1.44233
1.45471
1.46424
2.07729
3.49579
1.4029
1.40907
1.41597
1.42373
1.43253
1.44233
1.4547
1.46424
2.10441
3.50532
1.4029
1.40907
1.41597
1.42373
1.43253
1.44234
1.45469
1.46423
2.13137
3.51327
1.4029
1.40907
1.41597
1.42373
1.43252
1.44234
1.45468
1.46422
2.15835
3.51876
1.4029
1.40907
1.41597
1.42374
1.43252
1.44235
1.45467
1.46422
2.18466
3.52231
1.4029
1.40907
1.41597
1.42374
1.43252
1.44236
1.45466
1.46423
2.2096
3.52398
1.4029
1.40907
1.41597
1.42374
1.43252
1.44236
1.45464
1.46424
2.2323
3.52465
1.4029
1.40907
1.41597
1.42374
1.43251
1.44237
1.45462
1.46428
2.25215
3.52555
1.4029
1.40907
1.41597
1.42374
1.43251
1.44238
1.4546
1.46434
2.26935
3.52967
1.4029
1.40907
1.41597
1.42374
1.43251
1.44239
1.45459
1.46443
2.28506
3.53792
1.4029
1.40907
1.41597
1.42375
1.43251
1.44239
1.45458
1.46453
2.30288
3.55105
1.4029
1.40908
1.41596
1.42375
1.4325
1.4424
1.45457
1.46452
2.32388
3.56386
1.4029
1.40908
1.41596
1.42375
1.4325
1.44241
1.45457
1.46448
2.34249
3.56913
1.4029
1.40908
1.41596
1.42375
1.4325
1.44241
1.45458
1.46442
2.35628
3.56388
1.4029
1.40908
1.41596
1.42375
1.4325
1.44242
1.45458
1.4644
2.3609
3.56138
3.63576
3.61482
3.5985
3.57429
3.54629
3.50854
3.46393
3.40792
3.34064
3.25878
3.63338
3.61289
3.59602
3.57054
3.54128
3.50135
3.45534
3.39687
3.32619
3.23981
3.63318
3.61282
3.59583
3.56956
3.53927
3.49766
3.44999
3.38802
3.31281
3.22103
3.63514
3.61478
3.59797
3.57136
3.54062
3.49724
3.44747
3.38102
3.30066
3.20253
3.63988
3.61954
3.60288
3.57587
3.54472
3.49961
3.44742
3.3758
3.2897
3.18423
3.64743
3.62723
3.61084
3.58321
3.55098
3.50349
3.44851
3.37198
3.27987
3.16617
3.65846
3.63818
3.62162
3.59288
3.55927
3.50931
3.45151
3.36961
3.27095
3.1482
3.67277
3.65214
3.6351
3.60496
3.56978
3.51713
3.45666
3.36935
3.26371
3.13039
3.69033
3.66912
3.65153
3.61988
3.58315
3.5276
3.46397
3.37105
3.25831
3.11313
3.71215
3.68996
3.6718
3.63845
3.60015
3.54144
3.47443
3.37578
3.25533
3.09632
3.73888
3.7153
3.6965
3.66107
3.62121
3.55941
3.48896
3.38457
3.25618
3.08146
3.7722
3.74673
3.72737
3.69006
3.64905
3.58427
3.50996
3.39952
3.26198
3.07005
3.81477
3.78656
3.76611
3.72603
3.68331
3.61559
3.53695
3.42096
3.27313
3.06275
3.87056
3.83836
3.81585
3.77143
3.72573
3.654
3.56969
3.44787
3.2894
3.05968
3.93508
3.89477
3.8661
3.81427
3.76494
3.69067
3.60124
3.4755
3.30757
3.06194
3.98549
3.93791
3.90852
3.851
3.79568
3.71868
3.6244
3.49584
3.31961
3.07114
3.98993
3.93268
3.90953
3.85724
3.80062
3.72371
3.62755
3.50005
3.31889
3.07747
4.00841
3.9231
3.89121
3.8357
3.77679
3.70438
3.61254
3.4917
3.31162
3.07645
4.04412
3.9036
3.84865
3.78395
3.72217
3.6521
3.56588
3.45257
3.27832
3.0277
4.25557
4.09731
3.99093
3.89192
3.80182
3.71804
3.62638
3.52076
3.35557
3.14879
3.05592
2.72484
2.41488
2.15058
1.90996
1.70325
1.66442
1.86576
2.15926
2.07103
3.02685
2.68322
2.36912
2.10759
1.86859
1.68449
1.66548
1.91813
2.18066
2.08005
2.99607
2.63872
2.32148
2.06233
1.83046
1.66835
1.67712
1.97263
2.19763
2.08753
2.96377
2.59098
2.2707
2.01605
1.79543
1.65762
1.69407
2.02455
2.21045
2.09479
2.92965
2.53994
2.2161
1.9722
1.75641
1.65115
1.72144
2.07064
2.22054
2.10242
2.89379
2.48492
2.16044
1.92694
1.71461
1.64952
1.75899
2.10953
2.22866
2.10934
2.85594
2.42674
2.10346
1.87463
1.68249
1.64989
1.80418
2.146
2.2339
2.11523
2.81555
2.36572
2.04226
1.82233
1.66033
1.64877
1.85536
2.17996
2.23452
2.12004
2.77264
2.29975
1.97525
1.78173
1.6394
1.64707
1.91381
2.21197
2.23969
2.12526
2.72569
2.2264
1.91272
1.74881
1.61768
1.64303
1.97579
2.23931
2.24628
2.13293
2.67446
2.14801
1.85835
1.70877
1.60125
1.65908
2.0364
2.25957
2.25255
2.14
2.6188
2.07055
1.8014
1.65799
1.5962
1.69413
2.08982
2.27117
2.25624
2.14357
2.55952
1.98909
1.72794
1.62061
1.6059
1.74956
2.13236
2.27779
2.25818
2.14217
2.49172
1.89687
1.65138
1.60831
1.62301
1.81683
2.16194
2.28329
2.25958
2.14488
2.4047
1.78934
1.59002
1.6025
1.64492
1.87784
2.18088
2.28962
2.26297
2.14931
2.28809
1.67054
1.55042
1.60211
1.67095
1.9268
2.19414
2.29871
2.26936
2.1559
2.12529
1.54542
1.51259
1.60428
1.69534
1.9664
2.21538
2.30636
2.27172
2.161
1.92535
1.41656
1.46846
1.60574
1.72165
1.99791
2.23679
2.3084
2.26976
2.16091
1.67192
1.32032
1.4104
1.60511
1.74689
2.02299
2.25144
2.31324
2.27303
2.15801
1.38161
1.2492
1.35177
1.60265
1.76285
2.03942
2.26548
2.32397
2.28758
2.15957
3.49646
3.35334
3.15778
2.93926
2.69253
2.4285
2.16746
1.93015
1.64528
1.36626
3.49354
3.34889
3.15623
2.9353
2.68787
2.42417
2.16407
1.9253
1.64189
1.36952
3.49375
3.3502
3.1543
2.92933
2.68059
2.41716
2.15806
1.91679
1.63605
1.37527
3.49539
3.35154
3.15012
2.92048
2.66979
2.407
2.1495
1.90506
1.62936
1.38412
3.49836
3.34986
3.14261
2.90777
2.65519
2.39359
2.13781
1.88843
1.62067
1.39653
3.50048
3.34328
3.12976
2.89101
2.63715
2.37713
2.12315
1.86781
1.6123
1.41311
3.49873
3.33058
3.1117
2.87013
2.61575
2.35775
2.10511
1.84331
1.60599
1.43518
3.49381
3.31182
3.08917
2.84569
2.59094
2.33504
2.08336
1.81482
1.60072
1.46479
3.48123
3.28912
3.06312
2.81768
2.56296
2.30897
2.05721
1.78403
1.59522
1.50457
3.46433
3.26359
3.03327
2.78619
2.53128
2.27934
2.02616
1.75144
1.58669
1.558
3.44291
3.23461
3
2.75097
2.49623
2.24577
1.99052
1.72005
1.57917
1.62089
3.41644
3.20216
2.96296
2.71156
2.45711
2.20844
1.94945
1.69288
1.58084
1.68746
3.38767
3.16625
2.92185
2.66824
2.41407
2.1662
1.90521
1.67399
1.5944
1.7578
3.35815
3.12782
2.87749
2.62075
2.3673
2.11952
1.85765
1.66337
1.62631
1.825
3.3257
3.0861
2.82905
2.56967
2.31641
2.06747
1.81254
1.65574
1.67997
1.88782
3.29104
3.03965
2.77499
2.5126
2.26136
2.01007
1.7709
1.65364
1.7572
1.94006
3.25033
2.98696
2.71321
2.44822
2.19931
1.9483
1.73797
1.65759
1.84975
1.97789
3.20436
2.92651
2.64291
2.37601
2.1303
1.87967
1.70869
1.68109
1.94652
2.0085
3.15369
2.8594
2.56642
2.29766
2.05328
1.81268
1.68316
1.72595
2.0369
2.03175
3.09847
2.78459
2.48221
2.21568
1.9719
1.74417
1.67046
1.79624
2.11346
2.05426
3.0955
2.78329
2.48094
2.20952
1.96513
1.75769
1.68621
1.83153
2.1332
2.06577
3.15054
2.85634
2.56334
2.29265
2.04908
1.8143
1.68921
1.73287
2.05009
2.04085
3.20137
2.92251
2.63835
2.37053
2.12693
1.88036
1.70505
1.66878
1.94178
2.01312
3.2477
2.98276
2.70774
2.4423
2.19641
1.95146
1.73672
1.6472
1.82802
1.97812
3.28902
3.03585
2.76975
2.50665
2.25898
2.01523
1.77232
1.64593
1.72757
1.93014
3.32446
3.08297
2.82436
2.5645
2.31388
2.07197
1.81944
1.65169
1.6559
1.86885
3.35756
3.12548
2.87337
2.61606
2.36452
2.12188
1.86501
1.66012
1.61024
1.80243
3.38771
3.16464
2.91863
2.66385
2.4106
2.16629
1.9105
1.67327
1.58496
1.7367
3.41697
3.20133
2.96033
2.70777
2.45324
2.20657
1.95234
1.69375
1.5769
1.67045
3.44382
3.23437
2.99825
2.74769
2.49246
2.24318
1.99082
1.72088
1.5769
1.60935
3.46546
3.26386
3.03215
2.78377
2.52808
2.27663
2.02518
1.75197
1.58499
1.55166
3.48243
3.28971
3.06268
2.8161
2.56062
2.3067
2.05556
1.78357
1.59415
1.50239
3.49495
3.31262
3.08921
2.8449
2.58952
2.33349
2.08182
1.81401
1.60081
1.46534
3.49964
3.33146
3.11214
2.87005
2.6152
2.35698
2.10412
1.84232
1.60669
1.43728
3.50112
3.34409
3.13043
2.89149
2.6374
2.37727
2.12298
1.86713
1.6131
1.41563
3.49864
3.35048
3.14341
2.90872
2.65615
2.3946
2.13858
1.88836
1.62108
1.39888
3.49537
3.35198
3.15093
2.9218
2.6714
2.40884
2.15114
1.90564
1.62908
1.38589
3.49345
3.35041
3.15539
2.93098
2.68267
2.41963
2.16044
1.91817
1.63582
1.37643
3.49303
3.34894
3.15728
2.93709
2.69026
2.42709
2.16694
1.92723
1.64169
1.37024
3.4958
3.35336
3.15871
2.94102
2.69511
2.43173
2.17065
1.93245
1.64515
1.36665
3.64435
3.62204
3.60585
3.58301
3.55705
3.52273
3.48058
3.42741
3.36335
3.28617
3.65913
3.63613
3.61992
3.59801
3.57406
3.54371
3.50609
3.4582
3.39949
3.32836
3.68065
3.65776
3.64235
3.62102
3.59759
3.56873
3.53376
3.4898
3.43566
3.36963
3.70836
3.68591
3.67149
3.65052
3.62672
3.59738
3.56237
3.51976
3.46852
3.40633
3.73835
3.71639
3.70309
3.68235
3.6589
3.62858
3.59237
3.54888
3.4985
3.4397
3.76756
3.74726
3.73576
3.71492
3.69105
3.65994
3.62269
3.57765
3.5263
3.46772
3.79469
3.77728
3.76793
3.74599
3.71994
3.68726
3.64978
3.6046
3.55316
3.49587
3.82574
3.80514
3.79233
3.76815
3.74103
3.70857
3.67204
3.62867
3.5781
3.52087
3.85723
3.82278
3.79974
3.77466
3.74881
3.71696
3.6821
3.64438
3.59895
3.545
3.85718
3.82301
3.79949
3.7739
3.74816
3.71919
3.68873
3.6564
3.61576
3.56608
3.82824
3.79714
3.77745
3.757
3.73669
3.71413
3.68895
3.66048
3.62496
3.58025
3.79474
3.77118
3.75792
3.74193
3.72526
3.70579
3.68437
3.65837
3.62724
3.58902
3.77248
3.75207
3.74108
3.72699
3.7121
3.69457
3.67518
3.65166
3.62425
3.58998
3.75811
3.73947
3.7295
3.71596
3.70131
3.68441
3.66569
3.64368
3.61826
3.58754
3.74669
3.72979
3.72048
3.70754
3.69339
3.67714
3.65891
3.63755
3.61215
3.58273
3.73752
3.72257
3.71361
3.70165
3.68846
3.67298
3.65461
3.63309
3.60647
3.57758
3.7308
3.71887
3.70981
3.69741
3.68419
3.66911
3.65036
3.62869
3.60167
3.57303
3.72544
3.71799
3.70981
3.69621
3.6814
3.6657
3.64654
3.62476
3.59803
3.56979
3.71985
3.71755
3.71169
3.69751
3.68071
3.66377
3.64405
3.6223
3.59611
3.56846
3.71638
3.71732
3.7134
3.69912
3.68151
3.66392
3.64392
3.62239
3.59674
3.56988
1.4029
1.40907
1.41597
1.42373
1.43254
1.44232
1.45472
1.46429
1.88139
3.4218
1.4029
1.40907
1.41597
1.42373
1.43254
1.44232
1.45471
1.4643
1.82754
3.40069
1.4029
1.40907
1.41597
1.42373
1.43254
1.44232
1.45471
1.46433
1.7712
3.37985
1.4029
1.40907
1.41597
1.42372
1.43254
1.44232
1.45471
1.46435
1.71437
3.35937
1.4029
1.40907
1.41598
1.42372
1.43254
1.44232
1.4547
1.46438
1.66094
3.33502
1.4029
1.40907
1.41598
1.42372
1.43254
1.44232
1.45469
1.46444
1.61376
3.30106
1.4029
1.40907
1.41598
1.42372
1.43254
1.44231
1.45469
1.46452
1.57167
3.25847
1.4029
1.40907
1.41598
1.42372
1.43255
1.44231
1.45468
1.46465
1.53957
3.21292
1.4029
1.40907
1.41598
1.42372
1.43255
1.4423
1.45468
1.4648
1.51832
3.16396
1.4029
1.40907
1.41598
1.42372
1.43255
1.4423
1.45468
1.46498
1.50451
3.1213
1.4029
1.40907
1.41598
1.42372
1.43256
1.44229
1.45469
1.46518
1.4952
3.09036
1.4029
1.40907
1.41598
1.42372
1.43256
1.44228
1.45472
1.4654
1.4891
3.06019
1.4029
1.40907
1.41598
1.42371
1.43256
1.44228
1.45474
1.46562
1.48506
3.03376
1.4029
1.40907
1.41598
1.42371
1.43256
1.44228
1.45476
1.46583
1.48236
3.01085
1.4029
1.40907
1.41598
1.42371
1.43256
1.44229
1.45474
1.46603
1.48061
2.99058
1.4029
1.40907
1.41598
1.42371
1.43256
1.4423
1.4547
1.46621
1.47947
2.9736
1.4029
1.40907
1.41598
1.42371
1.43256
1.44231
1.45462
1.46639
1.47879
2.96018
1.4029
1.40907
1.41598
1.42371
1.43256
1.44233
1.45452
1.46659
1.47834
2.95006
1.4029
1.40907
1.41598
1.42371
1.43256
1.44233
1.45444
1.4668
1.47812
2.94304
1.4029
1.40907
1.41598
1.42371
1.43256
1.44234
1.45435
1.46707
1.4779
2.93846
1.4029
1.40907
1.41598
1.42371
1.43256
1.44234
1.45435
1.46707
1.4779
2.93849
1.4029
1.40907
1.41598
1.42371
1.43256
1.44233
1.45444
1.4668
1.47812
2.94308
1.4029
1.40907
1.41598
1.42371
1.43256
1.44233
1.45452
1.46659
1.47834
2.95011
1.4029
1.40907
1.41598
1.42371
1.43256
1.44231
1.45462
1.46638
1.47879
2.96026
1.4029
1.40907
1.41598
1.42371
1.43256
1.4423
1.4547
1.46621
1.47947
2.97371
1.4029
1.40907
1.41598
1.42371
1.43256
1.44229
1.45474
1.46603
1.48061
2.99071
1.4029
1.40907
1.41598
1.42371
1.43256
1.44228
1.45476
1.46583
1.48236
3.01101
1.4029
1.40907
1.41598
1.42371
1.43256
1.44228
1.45474
1.46562
1.48506
3.03392
1.4029
1.40907
1.41598
1.42372
1.43256
1.44228
1.45472
1.4654
1.4891
3.06036
1.4029
1.40907
1.41598
1.42372
1.43256
1.44229
1.45469
1.46518
1.49521
3.09051
1.4029
1.40907
1.41598
1.42372
1.43255
1.4423
1.45468
1.46497
1.50454
3.12145
1.4029
1.40907
1.41598
1.42372
1.43255
1.4423
1.45468
1.4648
1.51837
3.16411
1.4029
1.40907
1.41598
1.42372
1.43255
1.44231
1.45468
1.46465
1.53965
3.21302
1.4029
1.40907
1.41598
1.42372
1.43254
1.44231
1.45469
1.46452
1.5718
3.25849
1.4029
1.40907
1.41598
1.42372
1.43254
1.44232
1.45469
1.46444
1.61394
3.30099
1.4029
1.40907
1.41598
1.42372
1.43254
1.44232
1.4547
1.46438
1.66114
3.33485
1.4029
1.40907
1.41597
1.42372
1.43254
1.44232
1.45471
1.46435
1.71458
3.35914
1.4029
1.40907
1.41597
1.42373
1.43254
1.44232
1.45471
1.46432
1.7714
3.37957
1.4029
1.40907
1.41597
1.42373
1.43254
1.44232
1.45471
1.4643
1.82773
3.40039
1.4029
1.40907
1.41597
1.42373
1.43254
1.44232
1.45472
1.46429
1.88156
3.4215
3.71648
3.71756
3.71375
3.69953
3.68199
3.66447
3.64458
3.62317
3.59761
3.57078
3.71997
3.71779
3.71202
3.6979
3.68116
3.66431
3.64468
3.62303
3.59692
3.56927
3.72559
3.71824
3.71011
3.69656
3.68181
3.66618
3.64709
3.62539
3.5987
3.57043
3.73098
3.71911
3.71009
3.69772
3.68455
3.66951
3.6508
3.62915
3.6021
3.57339
3.73771
3.72279
3.71385
3.70192
3.68874
3.67326
3.65487
3.63331
3.6066
3.57757
3.74686
3.72999
3.72068
3.70775
3.69357
3.67728
3.65897
3.6375
3.61194
3.58234
3.75826
3.73963
3.72965
3.71608
3.70138
3.68438
3.66552
3.64333
3.61769
3.58677
3.77259
3.75218
3.74116
3.72702
3.71203
3.69436
3.67478
3.65102
3.62336
3.58892
3.79482
3.77123
3.75791
3.74183
3.72502
3.70538
3.68372
3.65747
3.62612
3.58774
3.82828
3.79714
3.77733
3.75677
3.73628
3.71351
3.68814
3.65942
3.62369
3.57884
3.85718
3.82289
3.79926
3.77352
3.74758
3.7184
3.68775
3.65521
3.61442
3.56469
3.85705
3.82244
3.79935
3.77412
3.7481
3.71603
3.68098
3.64316
3.59767
3.54377
3.8256
3.80479
3.79183
3.76747
3.7402
3.70759
3.67097
3.62755
3.57702
3.51994
3.79444
3.77679
3.76728
3.74517
3.71902
3.68626
3.64876
3.60361
3.55232
3.49531
3.76707
3.74656
3.73494
3.71398
3.69008
3.65895
3.62175
3.57684
3.52577
3.46762
3.73763
3.71551
3.70214
3.68134
3.65793
3.62765
3.59158
3.54832
3.49834
3.44013
3.70748
3.68492
3.67048
3.64952
3.62579
3.59658
3.56179
3.51953
3.4688
3.40729
3.67968
3.65674
3.64136
3.62007
3.59678
3.56811
3.53344
3.48989
3.4364
3.3712
3.65816
3.63517
3.61901
3.5972
3.57343
3.5433
3.50607
3.4587
3.40075
3.33051
3.64344
3.62124
3.6051
3.5824
3.55664
3.52258
3.48095
3.42843
3.36521
3.2887
)
;

boundaryField
{
    inlet
    {
        type            calculated;
        value           uniform 1.40001;
    }
    outlet
    {
        type            calculated;
        value           nonuniform List<scalar> 
100
(
2.06607
2.04118
2.01343
1.97841
1.93044
1.86913
1.80267
1.73689
1.67061
1.60951
1.55182
1.50255
1.46549
1.43742
1.41577
1.39902
1.38603
1.37657
1.37038
1.3668
2.17629
2.16517
2.15869
2.15985
2.1637
2.16172
2.1552
2.1498
2.14662
2.14752
2.14439
2.13764
2.13157
2.12616
2.12198
2.11747
2.11086
2.10161
2.0917
2.08211
2.16881
2.16713
2.13667
2.09037
2.04239
1.96958
1.91994
1.89263
1.88634
1.8814
1.89094
1.91049
1.96653
2.02237
2.08546
2.13333
2.14912
2.16341
2.181
2.18338
2.07126
2.08018
2.08766
2.09503
2.10271
2.10961
2.11545
2.12024
2.12557
2.13337
2.14027
2.14367
2.14219
2.14519
2.14982
2.15632
2.1613
2.16087
2.15815
2.16014
1.36641
1.36967
1.37541
1.38426
1.39667
1.41326
1.43534
1.46498
1.50479
1.55824
1.62114
1.68771
1.75803
1.82521
1.888
1.94023
1.97808
2.00871
2.03199
2.05452
)
;
    }
    triangle
    {
        type            calculated;
        value           nonuniform List<scalar> 
40
(
4.25543
4.09701
3.99048
3.89128
3.80101
3.71707
3.62529
3.51992
3.35551
3.15204
1.13131
1.10647
1.0959
1.09485
1.09483
1.09907
1.10407
1.11266
1.12266
1.1314
1.13522
1.13818
1.13801
1.13678
1.13948
1.14058
1.14303
1.14241
1.14328
1.16913
4.25557
4.09731
3.99093
3.89192
3.80182
3.71804
3.62638
3.52076
3.35557
3.14879
)
;
    }
    top
    {
        type            symmetryPlane;
    }
    bottom
    {
        type            symmetryPlane;
    }
    defaultFaces
    {
        type            empty;
    }
}


// ************************************************************************* //
