/*--------------------------------*- C++ -*----------------------------------*\
  =========                 |
  \\      /  F ield         | OpenFOAM: The Open Source CFD Toolbox
   \\    /   O peration     | Website:  https://openfoam.org
    \\  /    A nd           | Version:  8
     \\/     M anipulation  |
\*---------------------------------------------------------------------------*/
FoamFile
{
    version     2.0;
    format      ascii;
    class       volScalarField;
    location    "4.5";
    object      p;
}
// * * * * * * * * * * * * * * * * * * * * * * * * * * * * * * * * * * * * * //

dimensions      [1 -1 -2 0 0 0 0];

internalField   nonuniform List<scalar> 
2600
(
1.20892
1.33206
1.54943
1.8284
1.8383
2.26815
2.8327
2.89417
2.84448
2.67994
1.22335
1.31429
1.53366
1.82393
1.86228
2.30543
2.81495
2.89981
2.84386
2.68637
1.23761
1.28831
1.512
1.80735
1.87427
2.29784
2.79971
2.9078
2.84839
2.69308
1.26535
1.26208
1.47485
1.77355
1.86708
2.27108
2.7855
2.9176
2.84637
2.69653
1.2945
1.23753
1.42739
1.73375
1.86278
2.27055
2.77499
2.92455
2.8469
2.70032
1.31911
1.22112
1.37158
1.68356
1.84507
2.29198
2.76948
2.93364
2.8408
2.70383
1.33755
1.21158
1.30799
1.6227
1.82207
2.31843
2.76845
2.93639
2.83755
2.69982
1.35317
1.19889
1.25469
1.56458
1.80355
2.34884
2.77273
2.94284
2.82574
2.70873
1.36672
1.18941
1.17872
1.49656
1.80136
2.39052
2.78218
2.94028
2.82533
2.70591
1.37796
1.17054
1.11557
1.42236
1.82479
2.4442
2.79484
2.92734
2.82615
2.70474
1.39078
1.15167
1.05407
1.36727
1.84756
2.49504
2.81033
2.91617
2.83788
2.70115
1.40116
1.14142
0.999082
1.32197
1.88165
2.55554
2.83543
2.88052
2.83398
2.69652
1.41572
1.13659
0.953912
1.30105
1.92738
2.63075
2.86634
2.86395
2.83824
2.69731
1.43226
1.13165
0.924761
1.27528
1.97757
2.66664
2.89375
2.84416
2.83264
2.69358
1.45009
1.13162
0.911073
1.25008
2.04722
2.70484
2.91345
2.83035
2.82477
2.69348
1.4619
1.13749
0.891206
1.22045
2.08887
2.74316
2.94555
2.81636
2.8142
2.69151
1.47596
1.14367
0.878008
1.1875
2.12054
2.75692
2.94054
2.80472
2.80198
2.6874
1.49153
1.15641
0.866677
1.15058
2.15128
2.75376
2.94235
2.79692
2.79109
2.68255
1.50546
1.17508
0.864078
1.11632
2.16297
2.72599
2.94205
2.78678
2.78162
2.67589
1.5143
1.19893
0.877126
1.09303
2.15908
2.69798
2.93268
2.78308
2.77299
2.66774
1.70258
1.20647
0.93257
1.10098
2.1601
2.66567
2.92366
2.78976
2.76855
2.65835
1.87905
1.25947
1.02199
1.15047
2.12909
2.64754
2.894
2.79967
2.76918
2.6504
2.08189
1.34004
1.08786
1.21581
2.07981
2.64731
2.85343
2.80777
2.76803
2.64415
2.25281
1.43387
1.15153
1.27688
2.03523
2.63345
2.82325
2.82522
2.76572
2.63739
2.40912
1.53625
1.2105
1.31942
1.98304
2.61381
2.80443
2.84571
2.76811
2.63133
2.54301
1.64022
1.28389
1.35884
1.927
2.59528
2.7811
2.85525
2.77719
2.62832
2.65881
1.75413
1.38178
1.39372
1.87256
2.56906
2.74911
2.84542
2.78861
2.62859
2.76004
1.87381
1.47833
1.42914
1.82022
2.53203
2.71611
2.82604
2.79457
2.6304
2.85234
1.99789
1.57487
1.47642
1.78992
2.4879
2.69066
2.80573
2.79439
2.63103
2.94087
2.11698
1.67469
1.52208
1.77467
2.43995
2.67333
2.7892
2.78993
2.62883
3.03133
2.23328
1.77416
1.57367
1.78055
2.39209
2.66091
2.77832
2.78233
2.62409
3.12554
2.34839
1.87039
1.62723
1.79912
2.34265
2.65286
2.77085
2.77576
2.61695
3.22928
2.46261
1.96886
1.68205
1.82931
2.29115
2.64068
2.76736
2.77297
2.60798
3.34036
2.58361
2.06055
1.74857
1.8628
2.24201
2.62572
2.77257
2.77521
2.60035
3.45844
2.70968
2.15683
1.82134
1.89797
2.19865
2.59759
2.78473
2.78525
2.5978
3.58655
2.84296
2.25618
1.9011
1.93212
2.16453
2.55344
2.79887
2.79857
2.59928
3.72705
2.98278
2.36338
1.98794
1.96641
2.13667
2.50162
2.79426
2.79974
2.6006
3.87839
3.1233
2.47864
2.07756
2.00027
2.11448
2.43103
2.76765
2.78664
2.59755
4.02241
3.25781
2.59991
2.17325
2.03852
2.10296
2.34599
2.72101
2.76521
2.58943
4.15786
3.3886
2.72555
2.27658
2.07421
2.09873
2.25743
2.65374
2.72799
2.57632
6.35449
6.11777
5.86628
5.61726
5.38896
5.18423
4.9895
4.78739
4.50984
4.1746
5.86036
5.67864
5.48858
5.31827
5.16421
5.0121
4.85105
4.65613
4.36919
3.94081
5.65568
5.56989
5.41569
5.26946
5.1268
4.98753
4.83809
4.64748
4.35848
3.92852
5.39802
5.40209
5.26616
5.16042
5.04684
4.92967
4.79032
4.59738
4.31051
3.85839
5.15476
5.26613
5.14343
5.07512
4.98887
4.89125
4.75584
4.55882
4.2725
3.81644
4.89663
5.11043
5.02564
4.99
4.9411
4.85676
4.72388
4.52592
4.24146
3.79484
4.60814
4.97157
4.95271
4.95576
4.92919
4.84425
4.70336
4.50155
4.21757
3.78585
4.31593
4.86687
4.92663
4.95601
4.91945
4.82343
4.67224
4.47936
4.19831
3.78945
3.71787
4.7701
4.97067
4.99047
4.92793
4.81617
4.65934
4.47029
4.18585
3.80443
2.8887
4.47222
4.98575
4.98752
4.92025
4.80238
4.64952
4.46023
4.18198
3.82397
2.20783
3.53882
4.94583
5.03048
4.9243
4.80243
4.65423
4.46368
4.19804
3.84794
1.81044
2.34478
4.3514
5.0365
4.943
4.82411
4.66015
4.46856
4.21163
3.87564
1.60768
1.72396
3.14125
4.84018
4.95007
4.83144
4.67869
4.4924
4.23515
3.91368
1.48015
1.51749
1.91041
4.14012
4.91581
4.83814
4.69178
4.52235
4.27073
3.96291
1.38987
1.41789
1.47744
2.75815
4.6985
4.82876
4.71048
4.53286
4.28412
4.00797
1.32427
1.35285
1.3788
1.67667
3.9698
4.84816
4.73759
4.55058
4.31476
4.06006
1.27089
1.2941
1.32248
1.36741
2.65193
4.65473
4.71475
4.54551
4.31805
4.11581
1.22581
1.24279
1.26937
1.2893
1.61139
3.99017
4.68785
4.53998
4.35452
4.19088
1.18946
1.20317
1.22106
1.2422
1.2916
2.7585
4.4727
4.52906
4.41198
4.31141
1.16293
1.17409
1.18768
1.20804
1.22533
1.6625
3.97997
4.56883
4.52354
4.4626
1.00201
1.00625
1.01094
1.01613
1.02194
1.02838
1.03555
1.04428
1.05095
2.69518
1.00201
1.00625
1.01094
1.01613
1.02194
1.02838
1.03555
1.04427
1.05098
2.64682
1.00201
1.00625
1.01094
1.01613
1.02194
1.02838
1.03555
1.04427
1.05101
2.56827
1.00201
1.00625
1.01094
1.01613
1.02194
1.02839
1.03555
1.04427
1.05105
2.46772
1.00201
1.00625
1.01094
1.01613
1.02193
1.02839
1.03554
1.04426
1.05108
2.35447
1.00201
1.00625
1.01094
1.01614
1.02193
1.02839
1.03554
1.04426
1.05105
2.23294
1.00201
1.00625
1.01094
1.01614
1.02193
1.02839
1.03553
1.04427
1.05097
2.09935
1.00201
1.00625
1.01094
1.01614
1.02193
1.02839
1.03553
1.04427
1.05092
1.95104
1.00201
1.00625
1.01094
1.01614
1.02193
1.02839
1.03552
1.04428
1.05089
1.79262
1.00201
1.00625
1.01094
1.01614
1.02193
1.0284
1.03552
1.04429
1.05089
1.65143
1.00201
1.00625
1.01094
1.01614
1.02193
1.0284
1.03552
1.0443
1.05089
1.53279
1.002
1.00625
1.01094
1.01614
1.02193
1.0284
1.03552
1.04431
1.05091
1.44037
1.002
1.00625
1.01094
1.01614
1.02193
1.0284
1.03551
1.04431
1.05093
1.36323
1.002
1.00625
1.01094
1.01614
1.02192
1.0284
1.03551
1.04431
1.05096
1.30336
1.002
1.00625
1.01094
1.01614
1.02192
1.0284
1.03551
1.0443
1.05098
1.25809
1.002
1.00625
1.01094
1.01614
1.02192
1.0284
1.03551
1.04429
1.05102
1.21337
1.002
1.00625
1.01094
1.01614
1.02192
1.0284
1.03551
1.04428
1.05106
1.17759
1.002
1.00625
1.01094
1.01614
1.02192
1.0284
1.03551
1.04427
1.0511
1.15517
1.002
1.00625
1.01094
1.01614
1.02192
1.0284
1.03552
1.04425
1.05115
1.13541
1.002
1.00625
1.01094
1.01614
1.02192
1.0284
1.03552
1.04423
1.05121
1.11778
1.002
1.00625
1.01094
1.01614
1.02192
1.0284
1.03552
1.04423
1.05121
1.11773
1.002
1.00625
1.01094
1.01614
1.02192
1.0284
1.03552
1.04425
1.05115
1.13535
1.002
1.00625
1.01094
1.01614
1.02192
1.0284
1.03551
1.04427
1.0511
1.15511
1.002
1.00625
1.01094
1.01614
1.02192
1.0284
1.03551
1.04428
1.05106
1.1775
1.002
1.00625
1.01094
1.01614
1.02192
1.0284
1.03551
1.04429
1.05102
1.21322
1.002
1.00625
1.01094
1.01614
1.02192
1.0284
1.03551
1.0443
1.05098
1.25795
1.002
1.00625
1.01094
1.01614
1.02192
1.0284
1.03551
1.04431
1.05096
1.30322
1.002
1.00625
1.01094
1.01614
1.02193
1.0284
1.03551
1.04431
1.05093
1.36302
1.002
1.00625
1.01094
1.01614
1.02193
1.0284
1.03552
1.04431
1.05091
1.44013
1.00201
1.00625
1.01094
1.01614
1.02193
1.0284
1.03552
1.0443
1.05089
1.53253
1.00201
1.00625
1.01094
1.01614
1.02193
1.0284
1.03552
1.04429
1.05089
1.65116
1.00201
1.00625
1.01094
1.01614
1.02193
1.02839
1.03552
1.04428
1.05089
1.79239
1.00201
1.00625
1.01094
1.01614
1.02193
1.02839
1.03553
1.04427
1.05092
1.95086
1.00201
1.00625
1.01094
1.01614
1.02193
1.02839
1.03553
1.04427
1.05097
2.09927
1.00201
1.00625
1.01094
1.01614
1.02193
1.02839
1.03554
1.04426
1.05105
2.23292
1.00201
1.00625
1.01094
1.01613
1.02193
1.02839
1.03554
1.04426
1.05108
2.35447
1.00201
1.00625
1.01094
1.01613
1.02194
1.02839
1.03555
1.04427
1.05105
2.46773
1.00201
1.00625
1.01094
1.01613
1.02194
1.02839
1.03555
1.04427
1.05101
2.56829
1.00201
1.00625
1.01094
1.01613
1.02194
1.02838
1.03555
1.04427
1.05098
2.64683
1.00201
1.00625
1.01094
1.01613
1.02194
1.02838
1.03555
1.04428
1.05097
2.69519
1.16287
1.17401
1.18759
1.20793
1.22521
1.66051
3.98343
4.57045
4.52713
4.47119
1.18935
1.20304
1.22089
1.24203
1.29124
2.75632
4.46942
4.52905
4.41619
4.32222
1.22566
1.24262
1.26915
1.28907
1.60976
3.98993
4.6894
4.54277
4.36088
4.20318
1.27071
1.2939
1.32228
1.36703
2.64798
4.65712
4.71749
4.55013
4.32522
4.12745
1.32406
1.35261
1.37856
1.67515
3.96756
4.8522
4.74191
4.55713
4.3217
4.07142
1.3896
1.41762
1.47679
2.7557
4.69691
4.83233
4.71541
4.54044
4.29012
4.01897
1.4798
1.51705
1.90753
4.14001
4.91787
4.8424
4.69782
4.52953
4.27453
3.97235
1.60719
1.72299
3.13674
4.84266
4.95421
4.8369
4.68392
4.49865
4.2371
3.92109
1.80967
2.34254
4.35031
5.0406
4.94654
4.82919
4.66486
4.47393
4.2119
3.87965
2.20659
3.53721
4.94654
5.03412
4.92843
4.80763
4.65781
4.46755
4.19671
3.84765
2.88724
4.47228
4.98742
4.99143
4.92477
4.80732
4.65289
4.46155
4.18041
3.8178
3.71694
4.77176
4.97348
4.99424
4.93241
4.81983
4.66274
4.4692
4.18205
3.79271
4.3164
4.86845
4.92974
4.95911
4.92376
4.82631
4.67496
4.47692
4.19111
3.77122
4.60882
4.97298
4.95558
4.95877
4.93308
4.84722
4.70511
4.4985
4.20763
3.75887
4.89748
5.11187
5.02801
4.99281
4.94439
4.85965
4.72519
4.52239
4.22951
3.75812
5.15569
5.2675
5.1454
5.07773
4.99196
4.8941
4.75693
4.55498
4.25901
3.76841
5.39888
5.40337
5.26785
5.16274
5.04961
4.93241
4.79141
4.59366
4.29626
3.79952
5.65632
5.571
5.41719
5.27153
5.12931
4.99017
4.83926
4.64407
4.34163
3.86827
5.86091
5.67961
5.48993
5.32013
5.16657
5.01458
4.85264
4.65275
4.3533
3.87738
6.35474
6.11836
5.86732
5.61861
5.39093
5.18622
4.99128
4.78516
4.49745
4.11997
4.16339
3.39236
2.76871
2.37046
2.01033
1.91811
2.06215
2.58141
2.66386
2.51658
4.02134
3.259
2.65377
2.28456
1.94246
1.89422
2.08891
2.64311
2.68093
2.52374
3.87108
3.12349
2.54524
2.20942
1.88621
1.87564
2.13597
2.69885
2.69992
2.53045
3.71397
2.98533
2.44113
2.14414
1.84673
1.86259
2.19859
2.74449
2.71909
2.53877
3.56491
2.8531
2.34268
2.08607
1.81819
1.86252
2.27097
2.78368
2.73555
2.54612
3.42582
2.73101
2.25128
2.0352
1.79941
1.86805
2.34571
2.81624
2.74718
2.55417
3.29569
2.61494
2.16544
1.98848
1.78401
1.87693
2.41308
2.84327
2.75612
2.56087
3.1729
2.50669
2.08805
1.94731
1.76771
1.8863
2.47173
2.86344
2.76263
2.56576
3.05942
2.39883
2.01779
1.91099
1.74744
1.88955
2.52081
2.87431
2.76727
2.56938
2.95597
2.29092
1.95888
1.87999
1.72532
1.89084
2.56825
2.87661
2.7729
2.57355
2.86071
2.17866
1.90592
1.8521
1.7089
1.90131
2.62198
2.87534
2.78121
2.58141
2.76838
2.06561
1.85904
1.82785
1.70098
1.93493
2.68389
2.87307
2.79422
2.59362
2.675
1.94459
1.80823
1.80808
1.71895
2.01923
2.74079
2.87041
2.8092
2.60652
2.57422
1.82472
1.75997
1.79701
1.74515
2.08218
2.78038
2.86279
2.82408
2.61712
2.45806
1.70143
1.71415
1.79988
1.77325
2.11956
2.80104
2.85309
2.83392
2.62316
2.3246
1.58808
1.67542
1.81096
1.79081
2.14324
2.80547
2.84747
2.83965
2.63011
2.156
1.50249
1.63994
1.8164
1.78725
2.13186
2.80313
2.85095
2.84429
2.64075
1.95744
1.43683
1.59943
1.81178
1.7644
2.13045
2.80853
2.86241
2.84965
2.65253
1.71245
1.38879
1.57708
1.81995
1.77428
2.1594
2.82614
2.87765
2.84912
2.66148
1.45597
1.34813
1.55804
1.82097
1.80825
2.21214
2.84205
2.8896
2.84635
2.67177
4.51805
5.34906
4.89752
4.34729
3.82571
3.29541
2.79756
2.3411
1.80252
1.46986
4.53921
5.34213
4.88289
4.34142
3.81512
3.28726
2.79258
2.33156
1.8033
1.48121
4.56983
5.33247
4.86724
4.33451
3.79971
3.2744
2.78262
2.3146
1.80571
1.49257
4.61199
5.31606
4.84443
4.31992
3.77652
3.25555
2.76676
2.2904
1.81117
1.51529
4.66629
5.29251
4.81661
4.29567
3.74921
3.23116
2.74317
2.25851
1.81814
1.54575
4.73238
5.26016
4.78304
4.26209
3.71554
3.20024
2.71051
2.22094
1.82409
1.5919
4.81496
5.21864
4.74107
4.2182
3.67507
3.16267
2.66851
2.18096
1.82488
1.65484
4.92914
5.16307
4.68359
4.16081
3.62897
3.11871
2.61744
2.14262
1.82393
1.73407
5.06687
5.09318
4.60804
4.09447
3.57397
3.0677
2.55777
2.10942
1.83313
1.82243
5.19464
5.01758
4.52273
4.022
3.51077
3.00814
2.49043
2.08641
1.85283
1.9174
5.28186
4.93594
4.4378
3.94451
3.43818
2.93638
2.41645
2.06831
1.8988
2.01549
5.33173
4.8619
4.35395
3.85588
3.35017
2.85089
2.34106
2.04908
1.96996
2.11097
5.34974
4.78401
4.25886
3.74782
3.25133
2.754
2.27068
2.03726
2.06211
2.18981
5.30241
4.67695
4.13422
3.62083
3.14012
2.64621
2.21464
2.03204
2.16791
2.25898
5.10086
4.53116
3.99512
3.47964
3.04549
2.56188
2.16748
2.03692
2.27351
2.32021
4.96398
4.3975
3.83525
3.35975
2.87111
2.39144
2.12574
2.06505
2.37451
2.3836
4.87894
4.23805
3.67713
3.14914
2.71079
2.26143
2.10348
2.13445
2.462
2.42573
4.70707
4.04065
3.43666
2.94905
2.52887
2.14254
2.07517
2.23599
2.53524
2.46249
4.4974
3.84448
3.20395
2.73651
2.32913
2.04583
2.0525
2.35522
2.59542
2.48755
4.31338
3.58224
2.95312
2.52087
2.13957
1.9669
2.04815
2.48507
2.64005
2.50526
4.30501
3.57202
2.92127
2.4438
2.16848
2.10141
2.14393
2.53573
2.66821
2.55384
4.48733
3.82522
3.17742
2.67945
2.34552
2.12213
2.11261
2.38215
2.59924
2.52766
4.69438
4.02151
3.40734
2.9066
2.52229
2.19109
2.0956
2.24312
2.53408
2.50153
4.8675
4.22195
3.64658
3.10888
2.69065
2.29241
2.09931
2.1278
2.45198
2.47646
4.95383
4.38225
3.80361
3.32777
2.87049
2.43812
2.11524
2.0514
2.34248
2.4027
5.09177
4.51703
3.96793
3.45083
2.98983
2.55561
2.14734
2.01089
2.19648
2.32513
5.2976
4.66466
4.1106
3.59145
3.11708
2.68057
2.20492
1.99516
2.04103
2.23302
5.34931
4.774
4.23764
3.71946
3.2334
2.77572
2.28647
1.99923
1.91307
2.12274
5.33307
4.85442
4.33757
3.8291
3.3346
2.86354
2.36924
2.0156
1.8442
2.00275
5.28429
4.92997
4.42632
3.92235
3.42273
2.93517
2.43991
2.03467
1.8182
1.89998
5.19853
5.01262
4.51433
4.00618
3.49702
2.99989
2.50375
2.06315
1.81043
1.81571
5.07217
5.08876
4.60218
4.0823
3.5635
3.05876
2.56411
2.10051
1.80995
1.74693
4.93582
5.1587
4.67916
4.15722
3.62284
3.11272
2.62103
2.14504
1.81619
1.68598
4.81902
5.21768
4.73913
4.21606
3.67364
3.16103
2.67267
2.19096
1.82321
1.63138
4.73467
5.26124
4.78315
4.26313
3.71804
3.20317
2.71685
2.23468
1.82655
1.58822
4.66696
5.29596
4.81886
4.30083
3.75573
3.23872
2.75283
2.27344
1.82458
1.55532
4.61063
5.32164
4.84909
4.32923
3.78759
3.26814
2.78112
2.30511
1.8198
1.53286
4.56645
5.33983
4.87428
4.34726
3.81465
3.29166
2.8024
2.32911
1.81408
1.51846
4.53409
5.35068
4.89264
4.35648
3.8328
3.3079
2.81682
2.34591
1.80949
1.51149
4.51148
5.3585
4.9078
4.36329
3.84504
3.31846
2.82534
2.35582
1.80667
1.50382
1.13794
1.14656
1.15879
1.17349
1.18833
1.24781
2.4582
4.34658
4.75071
4.67671
1.11455
1.12069
1.1291
1.13955
1.1531
1.16467
1.33709
3.19144
5.00432
4.94378
1.09969
1.10392
1.10883
1.11602
1.12456
1.1344
1.14751
1.72745
4.70605
5.236
1.08952
1.09267
1.09652
1.10118
1.10689
1.11477
1.1205
1.18312
3.80058
5.40512
1.08235
1.08477
1.08803
1.09144
1.09595
1.10094
1.10746
1.11225
2.68605
5.30028
1.0776
1.07949
1.08198
1.08475
1.08822
1.09191
1.09761
1.10062
1.68031
4.82748
1.07446
1.07598
1.07783
1.08007
1.08272
1.08577
1.08999
1.0931
1.16908
4.05905
1.07254
1.07382
1.07529
1.07706
1.0791
1.08157
1.08462
1.08785
1.09195
3.235
1.07128
1.07241
1.07367
1.07519
1.07683
1.07892
1.08111
1.08448
1.08624
2.5356
1.07046
1.07148
1.07262
1.07395
1.0754
1.07713
1.07901
1.08171
1.0835
2.03691
1.06997
1.07091
1.07197
1.07316
1.0745
1.07602
1.07768
1.07991
1.08156
1.74534
1.06968
1.07058
1.07157
1.07269
1.07392
1.07533
1.07686
1.07879
1.08029
1.57587
1.0695
1.07038
1.07134
1.07241
1.07358
1.0749
1.07634
1.07811
1.07946
1.42977
1.06939
1.07026
1.07121
1.07224
1.07338
1.07464
1.07602
1.07769
1.07895
1.32252
1.06933
1.07019
1.07112
1.07214
1.07326
1.07449
1.07582
1.07743
1.07862
1.25541
1.06932
1.07016
1.07109
1.07209
1.0732
1.0744
1.0757
1.07727
1.07842
1.21123
1.06932
1.07017
1.07109
1.07209
1.07319
1.07438
1.07565
1.07718
1.07829
1.18059
1.06935
1.07019
1.07112
1.07212
1.07322
1.0744
1.07565
1.07713
1.0782
1.15879
1.06938
1.07023
1.07115
1.07215
1.07323
1.07439
1.07562
1.07708
1.07814
1.14514
1.06945
1.07029
1.07121
1.07219
1.07326
1.07438
1.07558
1.07701
1.07806
1.1427
1.002
1.00625
1.01094
1.01614
1.02192
1.0284
1.03552
1.04421
1.0513
1.10143
1.002
1.00625
1.01094
1.01614
1.02192
1.0284
1.03552
1.04417
1.05142
1.08894
1.002
1.00625
1.01094
1.01614
1.02192
1.0284
1.03553
1.04413
1.05156
1.08101
1.002
1.00625
1.01094
1.01614
1.02192
1.0284
1.03553
1.04409
1.05173
1.07462
1.002
1.00625
1.01094
1.01614
1.02192
1.0284
1.03554
1.04405
1.05191
1.07035
1.002
1.00625
1.01094
1.01614
1.02192
1.0284
1.03555
1.04401
1.05208
1.06776
1.002
1.00625
1.01094
1.01614
1.02192
1.0284
1.03555
1.04396
1.05225
1.06611
1.002
1.00625
1.01094
1.01614
1.02192
1.0284
1.03556
1.04393
1.05239
1.06508
1.002
1.00625
1.01094
1.01614
1.02192
1.0284
1.03556
1.0439
1.05252
1.06439
1.002
1.00625
1.01094
1.01614
1.02192
1.0284
1.03557
1.04388
1.05262
1.06397
1.002
1.00625
1.01094
1.01614
1.02192
1.0284
1.03557
1.04387
1.0527
1.06372
1.002
1.00625
1.01094
1.01614
1.02192
1.0284
1.03557
1.04386
1.05276
1.06356
1.002
1.00625
1.01094
1.01614
1.02192
1.0284
1.03557
1.04385
1.05282
1.06347
1.002
1.00625
1.01094
1.01614
1.02192
1.0284
1.03557
1.04385
1.05287
1.06343
1.002
1.00625
1.01094
1.01615
1.02192
1.0284
1.03558
1.04383
1.05291
1.06341
1.002
1.00625
1.01093
1.01615
1.02191
1.02841
1.03558
1.04382
1.05294
1.06342
1.002
1.00625
1.01093
1.01615
1.02191
1.02841
1.03558
1.0438
1.05296
1.06343
1.002
1.00625
1.01093
1.01615
1.02191
1.02841
1.03558
1.04379
1.05298
1.06345
1.002
1.00625
1.01093
1.01615
1.02191
1.02841
1.03559
1.04377
1.05298
1.06348
1.002
1.00625
1.01093
1.01615
1.02191
1.02842
1.03559
1.04377
1.05298
1.06351
1.002
1.00625
1.01093
1.01615
1.02191
1.02842
1.03559
1.04377
1.05298
1.06351
1.002
1.00625
1.01093
1.01615
1.02191
1.02841
1.03559
1.04377
1.05298
1.06348
1.002
1.00625
1.01093
1.01615
1.02191
1.02841
1.03558
1.04379
1.05298
1.06345
1.002
1.00625
1.01093
1.01615
1.02191
1.02841
1.03558
1.0438
1.05296
1.06343
1.002
1.00625
1.01093
1.01615
1.02191
1.02841
1.03558
1.04382
1.05294
1.06342
1.002
1.00625
1.01094
1.01615
1.02192
1.0284
1.03558
1.04383
1.05291
1.06341
1.002
1.00625
1.01094
1.01614
1.02192
1.0284
1.03557
1.04385
1.05287
1.06343
1.002
1.00625
1.01094
1.01614
1.02192
1.0284
1.03557
1.04385
1.05282
1.06347
1.002
1.00625
1.01094
1.01614
1.02192
1.0284
1.03557
1.04386
1.05276
1.06356
1.002
1.00625
1.01094
1.01614
1.02192
1.0284
1.03557
1.04387
1.0527
1.06372
1.002
1.00625
1.01094
1.01614
1.02192
1.0284
1.03557
1.04388
1.05262
1.06397
1.002
1.00625
1.01094
1.01614
1.02192
1.0284
1.03556
1.0439
1.05252
1.06439
1.002
1.00625
1.01094
1.01614
1.02192
1.0284
1.03556
1.04393
1.05239
1.06508
1.002
1.00625
1.01094
1.01614
1.02192
1.0284
1.03555
1.04397
1.05225
1.06611
1.002
1.00625
1.01094
1.01614
1.02192
1.0284
1.03555
1.04401
1.05208
1.06776
1.002
1.00625
1.01094
1.01614
1.02192
1.0284
1.03554
1.04405
1.05191
1.07035
1.002
1.00625
1.01094
1.01614
1.02192
1.0284
1.03553
1.04409
1.05173
1.07461
1.002
1.00625
1.01094
1.01614
1.02192
1.0284
1.03553
1.04413
1.05156
1.08101
1.002
1.00625
1.01094
1.01614
1.02192
1.0284
1.03552
1.04417
1.05142
1.08894
1.002
1.00625
1.01094
1.01614
1.02192
1.0284
1.03552
1.04421
1.0513
1.1014
1.06945
1.07029
1.07121
1.07219
1.07325
1.07438
1.07558
1.077
1.07806
1.14696
1.06938
1.07023
1.07115
1.07215
1.07323
1.07439
1.07562
1.07708
1.07814
1.14883
1.06935
1.07019
1.07112
1.07212
1.07321
1.0744
1.07565
1.07713
1.0782
1.16148
1.06932
1.07017
1.07109
1.07209
1.07319
1.07438
1.07565
1.07718
1.07829
1.182
1.06932
1.07016
1.07109
1.07209
1.0732
1.0744
1.0757
1.07727
1.07842
1.21183
1.06933
1.07019
1.07112
1.07214
1.07326
1.07449
1.07582
1.07743
1.07862
1.25538
1.06939
1.07026
1.07121
1.07224
1.07338
1.07464
1.07602
1.07769
1.07895
1.32152
1.0695
1.07038
1.07135
1.07241
1.07359
1.0749
1.07635
1.07811
1.07947
1.42569
1.06968
1.07058
1.07158
1.07269
1.07393
1.07534
1.07687
1.0788
1.08029
1.56904
1.06997
1.07091
1.07197
1.07316
1.0745
1.07603
1.07769
1.07992
1.08157
1.73731
1.07046
1.07149
1.07262
1.07395
1.07541
1.07714
1.07902
1.08172
1.08351
2.02632
1.07128
1.07242
1.07368
1.07519
1.07683
1.07893
1.08112
1.0845
1.08626
2.5229
1.07255
1.07382
1.07529
1.07706
1.07911
1.08158
1.08463
1.08789
1.09184
3.22099
1.07447
1.07599
1.07783
1.08008
1.08273
1.08578
1.09
1.09312
1.16654
4.04604
1.07761
1.0795
1.08198
1.08476
1.08823
1.09192
1.09763
1.10065
1.66948
4.82359
1.08235
1.08477
1.08803
1.09145
1.09597
1.10095
1.1075
1.11225
2.67328
5.29939
1.08952
1.09267
1.09652
1.10119
1.1069
1.11477
1.12051
1.18186
3.7886
5.40817
1.09969
1.10392
1.10882
1.116
1.12454
1.13438
1.14743
1.7216
4.69529
5.24356
1.11453
1.12066
1.12906
1.1395
1.15304
1.1646
1.33574
3.18686
5.00204
4.95139
1.13789
1.14651
1.15873
1.17342
1.18826
1.24746
2.45581
4.34708
4.75238
4.68455
)
;

boundaryField
{
    inlet
    {
        type            fixedValue;
        value           uniform 1;
    }
    outlet
    {
        type            zeroGradient;
    }
    triangle
    {
        type            zeroGradient;
    }
    top
    {
        type            symmetryPlane;
    }
    bottom
    {
        type            symmetryPlane;
    }
    defaultFaces
    {
        type            empty;
    }
}


// ************************************************************************* //
