/*--------------------------------*- C++ -*----------------------------------*\
  =========                 |
  \\      /  F ield         | OpenFOAM: The Open Source CFD Toolbox
   \\    /   O peration     | Website:  https://openfoam.org
    \\  /    A nd           | Version:  8
     \\/     M anipulation  |
\*---------------------------------------------------------------------------*/
FoamFile
{
    version     2.0;
    format      ascii;
    class       volScalarField;
    location    "4.5";
    object      rho;
}
// * * * * * * * * * * * * * * * * * * * * * * * * * * * * * * * * * * * * * //

dimensions      [1 -3 0 0 0 0 0];

internalField   nonuniform List<scalar> 
2600
(
1.01247
1.10421
1.23908
1.4209
1.5368
1.94049
2.45821
2.44411
2.26973
2.19152
1.00425
1.06997
1.21034
1.38992
1.5038
1.92474
2.42325
2.4178
2.23736
2.16825
1.01518
1.04938
1.18931
1.35818
1.46525
1.88125
2.38728
2.38983
2.21733
2.15667
1.03476
1.03321
1.16096
1.32281
1.42418
1.82637
2.34965
2.36209
2.20112
2.15086
1.05223
1.01772
1.12536
1.2912
1.40289
1.79079
2.31177
2.33339
2.19163
2.14947
1.06465
1.00471
1.08517
1.26193
1.38819
1.77517
2.27384
2.30727
2.18171
2.15038
1.07274
0.995423
1.04298
1.23187
1.37933
1.77005
2.23514
2.27936
2.17574
2.14831
1.0799
0.985224
1.00932
1.20121
1.37518
1.77101
2.19815
2.25618
2.16743
2.15492
1.08742
0.977952
0.962741
1.16013
1.37764
1.7792
2.16594
2.23265
2.16676
2.15838
1.09475
0.964834
0.921696
1.11307
1.39437
1.79667
2.13846
2.20922
2.17291
2.16772
1.10271
0.951203
0.878438
1.07877
1.4101
1.81533
2.11545
2.19302
2.19799
2.18115
1.10877
0.942498
0.838293
1.05901
1.43462
1.83987
2.10003
2.16832
2.22786
2.19909
1.11641
0.938469
0.810999
1.06299
1.47218
1.87222
2.09101
2.15618
2.26793
2.22387
1.12422
0.936984
0.806799
1.07736
1.52537
1.8875
2.08371
2.14391
2.30127
2.24831
1.13179
0.942386
0.827377
1.10264
1.60723
1.91011
2.07698
2.13524
2.32961
2.27636
1.13529
0.953671
0.852667
1.12349
1.69017
1.93853
2.08526
2.12751
2.3532
2.3041
1.13966
0.962963
0.873129
1.1326
1.77707
1.96688
2.08219
2.1257
2.37475
2.3307
1.14488
0.971179
0.878675
1.12921
1.86066
2.00518
2.088
2.1379
2.39787
2.3564
1.15125
0.979935
0.882424
1.12051
1.91853
2.04498
2.10988
2.17006
2.42252
2.3799
1.1672
0.9958
0.899216
1.11708
1.9485
2.09087
2.15552
2.22664
2.44633
2.4006
1.36738
1.02884
0.959508
1.14352
1.96908
2.13875
2.23611
2.30565
2.47143
2.42027
1.5918
1.12872
1.05976
1.20641
1.96368
2.19338
2.32144
2.38737
2.49678
2.4396
1.80788
1.25825
1.14502
1.27875
1.94351
2.24621
2.38262
2.45074
2.51507
2.45538
1.97879
1.38539
1.22181
1.34518
1.92699
2.2777
2.42239
2.50215
2.5279
2.46637
2.12542
1.50374
1.28935
1.39674
1.90906
2.29587
2.44846
2.54222
2.54087
2.4742
2.25032
1.61234
1.36704
1.44696
1.88985
2.30984
2.4603
2.56673
2.55674
2.48158
2.35932
1.72335
1.45643
1.49484
1.86866
2.31815
2.46061
2.57457
2.57345
2.48987
2.45659
1.83598
1.54021
1.53922
1.84481
2.32003
2.45564
2.57447
2.58736
2.49863
2.54784
1.94789
1.62747
1.5876
1.83473
2.31477
2.45215
2.5733
2.59842
2.50684
2.63812
2.05318
1.72005
1.63238
1.83288
2.30179
2.45314
2.57548
2.60797
2.51374
2.73246
2.15568
1.81304
1.68201
1.84745
2.28535
2.45896
2.58414
2.61676
2.51933
2.83269
2.25852
1.90325
1.73473
1.8734
2.26742
2.47114
2.59884
2.62717
2.52297
2.94268
2.36352
1.99541
1.78981
1.90964
2.24932
2.48491
2.61932
2.64011
2.52422
3.05908
2.47636
2.08359
1.85537
1.95003
2.23421
2.50082
2.64703
2.65524
2.52477
3.17601
2.59498
2.17659
1.92757
1.99352
2.2239
2.51024
2.67852
2.67372
2.52776
3.29094
2.71906
2.27342
2.00686
2.03812
2.22007
2.50807
2.70973
2.69201
2.53341
3.4081
2.84696
2.37716
2.0935
2.08389
2.21938
2.49668
2.72631
2.70063
2.53944
3.52288
2.97261
2.48734
2.18523
2.12656
2.22181
2.46712
2.72606
2.69935
2.54366
3.62285
3.08981
2.60157
2.28136
2.17134
2.23144
2.42244
2.70802
2.69285
2.54611
3.70821
3.19776
2.71584
2.37941
2.21305
2.24482
2.37021
2.67024
2.67799
2.54638
3.97162
3.87004
3.76518
3.66165
3.5664
3.48042
3.39706
3.30748
3.17803
3.00365
3.79616
3.7167
3.63451
3.56041
3.49296
3.42568
3.35317
3.26262
3.1243
2.91593
3.79432
3.75765
3.68754
3.6184
3.54872
3.47952
3.40483
3.30925
3.16336
2.96352
3.76883
3.77265
3.70588
3.6525
3.59294
3.52983
3.45447
3.35081
3.19795
2.98006
3.74675
3.79804
3.73407
3.69517
3.64552
3.58875
3.51147
3.40089
3.2419
3.01059
3.70845
3.8097
3.76136
3.73355
3.69882
3.64487
3.56488
3.44933
3.28587
3.04882
3.64864
3.83478
3.81139
3.79823
3.77001
3.71164
3.62169
3.49832
3.32913
3.09073
3.58666
3.89085
3.89183
3.8842
3.84585
3.77582
3.67313
3.54788
3.37309
3.13882
3.31774
3.93886
4.01857
3.99925
3.93846
3.85178
3.7377
3.60706
3.422
3.19505
2.84598
3.84513
4.12508
4.09226
4.0235
3.92622
3.80724
3.66899
3.47904
3.25694
2.39931
3.31121
4.19581
4.18518
4.10557
4.00424
3.88492
3.74098
3.55161
3.32472
2.10712
2.52062
3.87777
4.24234
4.17255
4.07988
3.95575
3.81169
3.62351
3.39656
1.94618
2.04488
3.08266
4.15949
4.19647
4.12098
4.01657
3.88212
3.69486
3.47282
1.84013
1.87315
2.19633
3.71582
4.18503
4.13921
4.04766
3.93325
3.75821
3.54822
1.76324
1.78845
1.84137
2.79961
4.03864
4.12973
4.05906
3.94932
3.78765
3.60564
1.70621
1.73224
1.75596
2.00914
3.55666
4.12405
4.06452
3.9572
3.81131
3.65155
1.65851
1.67996
1.70617
1.7471
2.70164
3.97941
4.03602
3.94169
3.80797
3.69201
1.61736
1.63325
1.65804
1.67661
1.9522
3.5329
4.00306
3.92326
3.82132
3.73616
1.58367
1.59664
1.61349
1.63339
1.67902
2.73769
3.8382
3.89708
3.84222
3.80094
1.55881
1.56944
1.58236
1.60165
1.61794
1.98242
3.51242
3.9081
3.89437
3.87762
1.40201
1.40625
1.41093
1.4161
1.42188
1.42828
1.43539
1.444
1.45061
2.34882
1.40201
1.40625
1.41093
1.4161
1.42188
1.42828
1.43539
1.444
1.45064
2.3381
1.40201
1.40625
1.41093
1.4161
1.42188
1.42828
1.43538
1.444
1.45066
2.32711
1.40201
1.40625
1.41093
1.4161
1.42187
1.42828
1.43538
1.44399
1.45071
2.30824
1.40201
1.40625
1.41093
1.4161
1.42187
1.42828
1.43537
1.44399
1.45073
2.27852
1.40201
1.40625
1.41093
1.4161
1.42187
1.42828
1.43537
1.44399
1.45071
2.23824
1.40201
1.40625
1.41093
1.41611
1.42187
1.42828
1.43537
1.44399
1.45062
2.18686
1.40201
1.40625
1.41093
1.41611
1.42187
1.42829
1.43536
1.444
1.45057
2.12368
1.40201
1.40625
1.41093
1.41611
1.42187
1.42829
1.43536
1.44401
1.45054
2.04174
1.40201
1.40625
1.41093
1.41611
1.42187
1.42829
1.43535
1.44402
1.45054
1.95579
1.40201
1.40625
1.41093
1.41611
1.42187
1.42829
1.43535
1.44403
1.45055
1.87217
1.40201
1.40625
1.41093
1.41611
1.42187
1.42829
1.43535
1.44403
1.45057
1.80041
1.40201
1.40625
1.41093
1.41611
1.42186
1.42829
1.43535
1.44403
1.45059
1.73636
1.40201
1.40625
1.41093
1.41611
1.42186
1.42829
1.43534
1.44403
1.45061
1.68482
1.40201
1.40625
1.41093
1.41611
1.42186
1.42829
1.43535
1.44403
1.45064
1.64515
1.40201
1.40625
1.41093
1.41611
1.42186
1.42829
1.43535
1.44402
1.45067
1.60482
1.40201
1.40625
1.41093
1.41611
1.42186
1.42829
1.43535
1.44401
1.45071
1.57187
1.40201
1.40625
1.41093
1.41611
1.42186
1.42829
1.43535
1.444
1.45075
1.55104
1.40201
1.40625
1.41093
1.41611
1.42186
1.42829
1.43535
1.44398
1.4508
1.53244
1.40201
1.40625
1.41093
1.41611
1.42186
1.42829
1.43535
1.44396
1.45086
1.51565
1.40201
1.40625
1.41093
1.41611
1.42186
1.42829
1.43535
1.44396
1.45086
1.5156
1.40201
1.40625
1.41093
1.41611
1.42186
1.42829
1.43535
1.44398
1.4508
1.53238
1.40201
1.40625
1.41093
1.41611
1.42186
1.42829
1.43535
1.444
1.45075
1.55098
1.40201
1.40625
1.41093
1.41611
1.42186
1.42829
1.43535
1.44401
1.45071
1.57178
1.40201
1.40625
1.41093
1.41611
1.42186
1.42829
1.43535
1.44402
1.45067
1.60469
1.40201
1.40625
1.41093
1.41611
1.42186
1.42829
1.43535
1.44403
1.45064
1.64502
1.40201
1.40625
1.41093
1.41611
1.42186
1.42829
1.43534
1.44403
1.45061
1.6847
1.40201
1.40625
1.41093
1.41611
1.42186
1.42829
1.43535
1.44403
1.45059
1.73619
1.40201
1.40625
1.41093
1.41611
1.42187
1.42829
1.43535
1.44403
1.45057
1.80023
1.40201
1.40625
1.41093
1.41611
1.42187
1.42829
1.43535
1.44403
1.45055
1.87199
1.40201
1.40625
1.41093
1.41611
1.42187
1.42829
1.43535
1.44402
1.45054
1.95564
1.40201
1.40625
1.41093
1.41611
1.42187
1.42829
1.43536
1.44401
1.45054
2.04164
1.40201
1.40625
1.41093
1.41611
1.42187
1.42829
1.43536
1.444
1.45057
2.12362
1.40201
1.40625
1.41093
1.41611
1.42187
1.42828
1.43537
1.44399
1.45062
2.18682
1.40201
1.40625
1.41093
1.4161
1.42187
1.42828
1.43537
1.44399
1.45071
2.23821
1.40201
1.40625
1.41093
1.4161
1.42187
1.42828
1.43538
1.44399
1.45073
2.2785
1.40201
1.40625
1.41093
1.4161
1.42187
1.42828
1.43538
1.44399
1.45071
2.30824
1.40201
1.40625
1.41093
1.4161
1.42188
1.42828
1.43538
1.44399
1.45067
2.32712
1.40201
1.40625
1.41093
1.4161
1.42188
1.42828
1.43538
1.444
1.45064
2.33812
1.40201
1.40625
1.41093
1.4161
1.42188
1.42828
1.43538
1.444
1.45062
2.34883
1.55875
1.56937
1.58228
1.60155
1.61782
1.98083
3.51369
3.90932
3.89681
3.88278
1.58357
1.59652
1.61334
1.63324
1.67868
2.73635
3.83556
3.89719
3.84507
3.80743
1.61723
1.63309
1.65784
1.6764
1.9509
3.53243
4.00383
3.92492
3.82542
3.74357
1.65834
1.67977
1.70598
1.74676
2.69903
3.98063
4.03774
3.94459
3.81256
3.6989
1.70602
1.73204
1.75575
2.00789
3.55494
4.12638
4.0671
3.96112
3.8157
3.65827
1.763
1.78822
1.84081
2.79791
4.03733
4.13185
4.06205
3.95395
3.79137
3.61228
1.83984
1.87278
2.19406
3.71553
4.18614
4.14169
4.0514
3.93784
3.76055
3.55416
1.94579
2.04409
3.07964
4.16118
4.19901
4.12432
4.01993
3.88625
3.69607
3.47782
2.10654
2.51898
3.87727
4.24495
4.17485
4.08316
3.95884
3.81529
3.62372
3.3996
2.39848
3.31006
4.19697
4.18725
4.10822
4.00762
3.88731
3.7436
3.55096
3.32506
2.84516
3.84509
4.12668
4.09467
4.02643
3.92931
3.80943
3.66997
3.47836
3.25355
3.31737
3.94004
4.02051
4.00172
3.94125
3.85401
3.73985
3.60658
3.42005
3.18824
3.5871
3.89209
3.89375
3.88622
3.84831
3.77749
3.67482
3.54666
3.36922
3.12821
3.64909
3.83589
3.81306
3.79994
3.77213
3.71331
3.62276
3.4968
3.32381
3.07517
3.70887
3.81054
3.76268
3.73509
3.70063
3.64648
3.56566
3.44757
3.27961
3.02791
3.74717
3.79875
3.73511
3.69656
3.64719
3.5903
3.51211
3.39901
3.23505
2.98349
3.7692
3.77331
3.70674
3.65369
3.59439
3.53128
3.45508
3.34905
3.19093
2.94719
3.79462
3.75819
3.68829
3.61944
3.55
3.48088
3.4055
3.30771
3.15491
2.9302
3.79644
3.71718
3.6352
3.56137
3.49419
3.42698
3.35408
3.26108
3.11598
2.88203
3.97175
3.87035
3.76573
3.66238
3.56745
3.48152
3.39808
3.30649
3.17126
2.97523
3.71162
3.2001
2.74297
2.44369
2.16186
2.10817
2.22763
2.62944
2.63247
2.50169
3.62168
3.09008
2.63581
2.35785
2.08721
2.07883
2.23657
2.66373
2.63898
2.49928
3.51746
2.97203
2.53032
2.2784
2.0245
2.04865
2.25887
2.68674
2.64781
2.49798
3.39916
2.848
2.42786
2.2061
1.97866
2.01853
2.2895
2.69621
2.65451
2.49887
3.27661
2.72521
2.33034
2.13967
1.94405
1.99703
2.32306
2.69801
2.65502
2.49919
3.15347
2.60881
2.23938
2.08014
1.91695
1.98277
2.35467
2.69604
2.64773
2.49904
3.02928
2.49686
2.15416
2.02561
1.89116
1.97415
2.38012
2.69252
2.63672
2.49633
2.90676
2.39194
2.07678
1.97694
1.86419
1.96715
2.40028
2.68731
2.62489
2.49116
2.79229
2.2889
2.0062
1.93316
1.83442
1.95586
2.41501
2.67861
2.61336
2.48446
2.68847
2.1873
1.94475
1.89402
1.80366
1.94332
2.42969
2.66615
2.60361
2.47773
2.59357
2.08373
1.88745
1.85726
1.77755
1.93865
2.4492
2.65223
2.59595
2.47308
2.50279
1.97957
1.83383
1.82269
1.75862
1.95072
2.47385
2.63733
2.59083
2.47052
2.41135
1.86975
1.77686
1.79032
1.75958
1.99789
2.49521
2.61976
2.58544
2.46684
2.31317
1.76136
1.72151
1.76276
1.76469
2.02971
2.50644
2.59571
2.57679
2.45874
2.2017
1.65056
1.66499
1.74181
1.76772
2.04099
2.50744
2.56834
2.55953
2.44203
2.0753
1.545
1.60846
1.71949
1.75812
2.03914
2.50136
2.54247
2.53166
2.41705
1.92071
1.45234
1.54446
1.67944
1.72493
2.00917
2.49404
2.52103
2.49187
2.38331
1.73872
1.36137
1.4614
1.61239
1.66532
1.9774
2.49199
2.50388
2.44106
2.33852
1.51309
1.26756
1.37489
1.53788
1.6149
1.95745
2.49375
2.48852
2.3796
2.28421
1.25827
1.17103
1.29084
1.46448
1.57373
1.94734
2.48611
2.46912
2.31792
2.23149
3.57053
4.10634
3.86516
3.56336
3.26472
2.9444
2.62874
2.32759
1.94282
1.70867
3.58474
4.10344
3.8575
3.56017
3.25829
2.93919
2.6255
2.32093
1.94359
1.71837
3.6068
4.10018
3.85006
3.55677
3.24899
2.931
2.61914
2.30922
1.94589
1.72846
3.63725
4.09367
3.8389
3.54907
3.23496
2.91904
2.60907
2.29258
1.95098
1.74835
3.67636
4.08296
3.82478
3.53564
3.21833
2.90355
2.59407
2.2706
1.95792
1.77515
3.72395
4.06685
3.80722
3.51658
3.19769
2.88389
2.5732
2.24456
1.96444
1.81535
3.78223
4.04535
3.78506
3.49143
3.17287
2.86004
2.54631
2.21667
1.96745
1.86983
3.85899
4.01632
3.75471
3.45846
3.14485
2.83243
2.51367
2.18994
1.97037
1.93768
3.95049
3.97958
3.71503
3.42064
3.11225
2.80129
2.47575
2.16746
1.98548
2.01062
4.03502
3.94393
3.66898
3.38063
3.07677
2.76669
2.43343
2.15395
2.01422
2.08598
4.09276
3.90433
3.62522
3.3414
3.0394
2.72757
2.38773
2.14616
2.06164
2.16686
4.12615
3.8697
3.58682
3.30198
2.99837
2.68418
2.34266
2.14047
2.12774
2.24736
4.14714
3.838
3.55004
3.25998
2.95809
2.63836
2.30322
2.1494
2.20437
2.31411
4.13989
3.79849
3.50744
3.21572
2.91762
2.58978
2.27844
2.16941
2.29604
2.36747
4.04781
3.74991
3.46683
3.16786
2.89438
2.56157
2.26654
2.19291
2.39413
2.41118
4.00073
3.72257
3.41666
3.13428
2.81381
2.4688
2.26269
2.22932
2.4835
2.45563
4.00844
3.6782
3.36138
3.02934
2.72838
2.39441
2.26942
2.29535
2.55168
2.48306
3.96085
3.59861
3.23379
2.90853
2.60834
2.31654
2.25875
2.3812
2.5958
2.50235
3.87358
3.50288
3.08507
2.75511
2.45385
2.23886
2.24117
2.4716
2.61942
2.50855
3.79054
3.33799
2.89741
2.57872
2.28739
2.16185
2.22801
2.56476
2.62989
2.50571
3.78508
3.33093
2.87743
2.5244
2.31195
2.26374
2.29956
2.59534
2.65833
2.54391
3.86698
3.48978
3.0674
2.71389
2.4693
2.2944
2.28838
2.49167
2.639
2.53934
3.95264
3.58565
3.21312
2.87724
2.60382
2.35233
2.27613
2.38881
2.60971
2.52997
4.00132
3.66729
3.3394
2.99957
2.71273
2.41934
2.27012
2.29269
2.55034
2.51717
3.99451
3.71241
3.39429
3.11037
2.80985
2.50432
2.26105
2.21928
2.45613
2.46837
4.04204
3.74069
3.44824
3.14635
2.85387
2.55972
2.25734
2.17151
2.32901
2.41666
4.13669
3.79064
3.49197
3.19506
2.90274
2.61695
2.27624
2.13741
2.19811
2.34917
4.14645
3.83172
3.5367
3.24141
2.94766
2.65494
2.31859
2.11899
2.09195
2.25925
4.12625
3.86496
3.57676
3.28544
2.98938
2.6935
2.36505
2.11745
2.02726
2.16077
4.09353
3.90048
3.61831
3.32821
3.03026
2.72725
2.40539
2.12162
1.99674
2.07647
4.03667
3.94071
3.66404
3.37148
3.06858
2.76151
2.44315
2.13665
1.97789
2.00857
3.95309
3.97662
3.7117
3.41373
3.10604
2.79557
2.48025
2.16105
1.96644
1.95192
3.8624
4.01352
3.75223
3.45666
3.1413
2.82858
2.51618
2.19177
1.96508
1.899
3.78418
4.04468
3.78406
3.49044
3.17218
2.85898
2.54921
2.22382
1.96643
1.85086
3.72478
4.06754
3.80743
3.51739
3.19935
2.88576
2.57757
2.25429
1.96631
1.81254
3.67625
4.08509
3.82625
3.53879
3.22236
2.90839
2.60068
2.28117
1.9628
1.78325
3.63614
4.09703
3.84177
3.55456
3.24167
2.92708
2.61884
2.30307
1.95731
1.76307
3.60475
4.10451
3.85427
3.56421
3.25799
2.94202
2.63255
2.31967
1.95149
1.75005
3.58189
4.10839
3.86323
3.56892
3.26891
2.95236
2.64191
2.33135
1.94712
1.7436
3.56697
4.11176
3.87119
3.57265
3.27632
2.95908
2.64751
2.3383
1.94465
1.73701
1.53508
1.54336
1.55509
1.56912
1.5833
1.63792
2.54181
3.73584
4.01067
3.97951
1.51265
1.51858
1.5267
1.53677
1.54979
1.56093
1.71184
2.99541
4.11093
4.09475
1.49829
1.5024
1.50717
1.51414
1.52239
1.53194
1.5444
2.02042
3.93339
4.24077
1.48842
1.49149
1.49524
1.49978
1.50532
1.51296
1.51853
1.57653
3.31088
4.27026
1.48143
1.48379
1.48697
1.49031
1.4947
1.49955
1.5059
1.51054
2.61579
4.15626
1.47679
1.47864
1.48107
1.48378
1.48717
1.49076
1.49632
1.49926
1.96183
3.89463
1.47371
1.4752
1.47701
1.47921
1.4818
1.48477
1.48889
1.49193
1.56185
3.42343
1.47183
1.47308
1.47452
1.47625
1.47825
1.48067
1.48365
1.48681
1.4908
2.89502
1.47059
1.4717
1.47294
1.47442
1.47603
1.47807
1.48022
1.48351
1.48523
2.46865
1.46979
1.47079
1.4719
1.47321
1.47463
1.47632
1.47817
1.4808
1.48255
2.15643
1.46931
1.47023
1.47127
1.47243
1.47374
1.47524
1.47686
1.47904
1.48066
1.95506
1.46902
1.4699
1.47088
1.47197
1.47318
1.47456
1.47606
1.47795
1.47941
1.83076
1.46884
1.4697
1.47065
1.47169
1.47285
1.47413
1.47555
1.47728
1.4786
1.73041
1.46874
1.46958
1.47052
1.47153
1.47265
1.47388
1.47523
1.47687
1.4781
1.65615
1.46868
1.46951
1.47043
1.47143
1.47253
1.47373
1.47504
1.47661
1.47778
1.60804
1.46866
1.46949
1.4704
1.47138
1.47246
1.47365
1.47492
1.47646
1.47758
1.57625
1.46867
1.4695
1.4704
1.47138
1.47245
1.47362
1.47487
1.47636
1.47745
1.55454
1.46869
1.46952
1.47042
1.47141
1.47248
1.47364
1.47486
1.47632
1.47737
1.53939
1.46872
1.46955
1.47046
1.47144
1.47249
1.47364
1.47484
1.47627
1.47731
1.53007
1.46879
1.46962
1.47052
1.47148
1.47252
1.47363
1.4748
1.47619
1.47723
1.52818
1.40201
1.40625
1.41093
1.41611
1.42186
1.42829
1.43535
1.44394
1.45095
1.49992
1.40201
1.40625
1.41093
1.41611
1.42186
1.42829
1.43536
1.4439
1.45107
1.48782
1.40201
1.40625
1.41093
1.41611
1.42186
1.42829
1.43536
1.44387
1.45121
1.48011
1.40201
1.40625
1.41093
1.41611
1.42186
1.42829
1.43536
1.44383
1.45137
1.47387
1.40201
1.40625
1.41093
1.41611
1.42186
1.42829
1.43537
1.44378
1.45155
1.46969
1.40201
1.40625
1.41093
1.41611
1.42186
1.42829
1.43538
1.44374
1.45172
1.46715
1.40201
1.40625
1.41093
1.41611
1.42186
1.42829
1.43538
1.4437
1.45188
1.46552
1.40201
1.40625
1.41093
1.41611
1.42186
1.42829
1.43539
1.44367
1.45202
1.46451
1.40201
1.40625
1.41093
1.41611
1.42186
1.42829
1.43539
1.44364
1.45214
1.46383
1.40201
1.40625
1.41093
1.41611
1.42186
1.42829
1.4354
1.44362
1.45224
1.46342
1.40201
1.40625
1.41093
1.41611
1.42186
1.42829
1.4354
1.44361
1.45232
1.46317
1.40201
1.40625
1.41093
1.41611
1.42186
1.42829
1.4354
1.4436
1.45239
1.46301
1.40201
1.40625
1.41093
1.41611
1.42186
1.42829
1.4354
1.44359
1.45244
1.46293
1.40201
1.40625
1.41092
1.41611
1.42186
1.4283
1.4354
1.44359
1.45249
1.46288
1.40201
1.40625
1.41092
1.41612
1.42185
1.4283
1.43541
1.44357
1.45253
1.46286
1.40201
1.40625
1.41092
1.41612
1.42185
1.4283
1.43541
1.44356
1.45256
1.46287
1.40201
1.40625
1.41092
1.41612
1.42185
1.4283
1.43541
1.44354
1.45258
1.46289
1.40201
1.40625
1.41092
1.41612
1.42185
1.42831
1.43541
1.44353
1.4526
1.46291
1.40201
1.40625
1.41092
1.41612
1.42185
1.4283
1.43542
1.44351
1.4526
1.46293
1.40201
1.40625
1.41092
1.41612
1.42185
1.42831
1.43542
1.44352
1.4526
1.46296
1.40201
1.40625
1.41092
1.41612
1.42185
1.42831
1.43542
1.44352
1.4526
1.46296
1.40201
1.40625
1.41092
1.41612
1.42185
1.4283
1.43542
1.44351
1.4526
1.46293
1.40201
1.40625
1.41092
1.41612
1.42185
1.42831
1.43541
1.44353
1.4526
1.46291
1.40201
1.40625
1.41092
1.41612
1.42185
1.4283
1.43541
1.44354
1.45258
1.46289
1.40201
1.40625
1.41092
1.41612
1.42185
1.4283
1.43541
1.44356
1.45256
1.46287
1.40201
1.40625
1.41092
1.41612
1.42185
1.4283
1.43541
1.44357
1.45253
1.46286
1.40201
1.40625
1.41092
1.41611
1.42186
1.4283
1.4354
1.44359
1.45249
1.46288
1.40201
1.40625
1.41093
1.41611
1.42186
1.42829
1.4354
1.44359
1.45244
1.46293
1.40201
1.40625
1.41093
1.41611
1.42186
1.42829
1.4354
1.4436
1.45239
1.46302
1.40201
1.40625
1.41093
1.41611
1.42186
1.42829
1.4354
1.44361
1.45232
1.46317
1.40201
1.40625
1.41093
1.41611
1.42186
1.42829
1.4354
1.44362
1.45224
1.46342
1.40201
1.40625
1.41093
1.41611
1.42186
1.42829
1.43539
1.44364
1.45214
1.46384
1.40201
1.40625
1.41093
1.41611
1.42186
1.42829
1.43539
1.44367
1.45202
1.46451
1.40201
1.40625
1.41093
1.41611
1.42186
1.42829
1.43538
1.4437
1.45188
1.46553
1.40201
1.40625
1.41093
1.41611
1.42186
1.42829
1.43538
1.44374
1.45172
1.46715
1.40201
1.40625
1.41093
1.41611
1.42186
1.42829
1.43537
1.44379
1.45155
1.46969
1.40201
1.40625
1.41093
1.41611
1.42186
1.42829
1.43536
1.44383
1.45137
1.47386
1.40201
1.40625
1.41093
1.41611
1.42186
1.42829
1.43536
1.44387
1.45121
1.48011
1.40201
1.40625
1.41093
1.41611
1.42186
1.42829
1.43536
1.4439
1.45107
1.48782
1.40201
1.40625
1.41093
1.41611
1.42186
1.42829
1.43535
1.44394
1.45095
1.49989
1.46879
1.46962
1.47052
1.47148
1.47252
1.47362
1.4748
1.47619
1.47722
1.53118
1.46872
1.46955
1.47046
1.47143
1.47249
1.47364
1.47484
1.47627
1.47731
1.5327
1.46869
1.46952
1.47042
1.47141
1.47248
1.47364
1.47486
1.47632
1.47737
1.54133
1.46867
1.4695
1.4704
1.47138
1.47245
1.47362
1.47487
1.47636
1.47745
1.5556
1.46866
1.46949
1.4704
1.47138
1.47246
1.47365
1.47492
1.47646
1.47758
1.57674
1.46868
1.46951
1.47043
1.47143
1.47253
1.47373
1.47504
1.47661
1.47778
1.60804
1.46874
1.46958
1.47052
1.47153
1.47265
1.47388
1.47523
1.47687
1.4781
1.65542
1.46884
1.4697
1.47065
1.47169
1.47285
1.47414
1.47555
1.47728
1.47861
1.72772
1.46902
1.4699
1.47088
1.47197
1.47318
1.47456
1.47606
1.47795
1.47942
1.82628
1.46931
1.47023
1.47127
1.47243
1.47375
1.47524
1.47687
1.47905
1.48067
1.94965
1.46979
1.47079
1.47191
1.47321
1.47463
1.47633
1.47817
1.48081
1.48257
2.14975
1.4706
1.4717
1.47294
1.47443
1.47603
1.47808
1.48023
1.48353
1.48526
2.46106
1.47184
1.47308
1.47453
1.47626
1.47826
1.48068
1.48366
1.48684
1.49069
2.88632
1.47371
1.47521
1.47701
1.47921
1.48181
1.48478
1.48891
1.49195
1.55954
3.41467
1.47679
1.47864
1.48107
1.48379
1.48718
1.49078
1.49634
1.49928
1.95414
3.8928
1.48143
1.48379
1.48698
1.49031
1.49472
1.49957
1.50593
1.51054
2.60803
4.15635
1.48842
1.49149
1.49524
1.49978
1.50533
1.51296
1.51854
1.57538
3.3032
4.2719
1.49829
1.5024
1.50716
1.51412
1.52237
1.53192
1.54433
2.01589
3.9268
4.24546
1.51263
1.51856
1.52667
1.53673
1.54973
1.56087
1.71068
2.99231
4.10958
4.09926
1.53504
1.54331
1.55503
1.56905
1.58323
1.63761
2.53991
3.73609
4.01187
3.98434
)
;

boundaryField
{
    inlet
    {
        type            calculated;
        value           uniform 1.40001;
    }
    outlet
    {
        type            calculated;
        value           nonuniform List<scalar> 
100
(
2.54384
2.53911
2.52965
2.51691
2.46825
2.41675
2.34947
2.25971
2.16126
2.07682
2.00875
1.95204
1.89915
1.85106
1.81278
1.78352
1.76335
1.75034
1.74389
1.73729
2.42009
2.43944
2.45529
2.46636
2.47421
2.48157
2.48984
2.49861
2.50685
2.51376
2.51933
2.52297
2.52418
2.52466
2.52759
2.53323
2.53933
2.54366
2.54616
2.54641
2.19196
2.16863
2.15705
2.15125
2.14983
2.15076
2.14864
2.15528
2.1587
2.16797
2.18124
2.19907
2.22368
2.24801
2.27603
2.30376
2.33039
2.35611
2.37965
2.40039
2.50156
2.49921
2.49795
2.49889
2.49932
2.49913
2.49641
2.49126
2.48458
2.47791
2.47335
2.47084
2.46716
2.459
2.44227
2.41739
2.38377
2.33903
2.28473
2.23197
1.70895
1.71867
1.72875
1.74866
1.77546
1.81568
1.87016
1.93801
2.01101
2.0864
2.16725
2.24763
2.31423
2.36745
2.41103
2.45539
2.48284
2.50212
2.50835
2.50555
)
;
    }
    triangle
    {
        type            calculated;
        value           nonuniform List<scalar> 
40
(
3.97162
3.87004
3.76518
3.66165
3.5664
3.48042
3.39706
3.30748
3.17803
3.00365
1.01247
1.00425
1.01518
1.03476
1.05223
1.06465
1.07274
1.0799
1.08742
1.09475
1.10271
1.10877
1.11641
1.12422
1.13179
1.13529
1.13966
1.14488
1.15125
1.1672
3.97175
3.87035
3.76573
3.66238
3.56745
3.48152
3.39808
3.30649
3.17126
2.97523
)
;
    }
    top
    {
        type            symmetryPlane;
    }
    bottom
    {
        type            symmetryPlane;
    }
    defaultFaces
    {
        type            empty;
    }
}


// ************************************************************************* //
