/*--------------------------------*- C++ -*----------------------------------*\
  =========                 |
  \\      /  F ield         | OpenFOAM: The Open Source CFD Toolbox
   \\    /   O peration     | Website:  https://openfoam.org
    \\  /    A nd           | Version:  8
     \\/     M anipulation  |
\*---------------------------------------------------------------------------*/
FoamFile
{
    version     2.0;
    format      ascii;
    class       volVectorField;
    location    "4.5";
    object      U;
}
// * * * * * * * * * * * * * * * * * * * * * * * * * * * * * * * * * * * * * //

dimensions      [0 1 -1 0 0 0 0];

internalField   nonuniform List<vector> 
2600
(
(1.12321 0.0289097 0)
(1.10948 0.111306 0)
(0.993675 0.0844285 0)
(1.00519 -0.0257016 0)
(1.50911 0.0801157 0)
(1.68623 0.263669 0)
(1.3194 0.244503 0)
(1.23556 0.133889 0)
(1.20458 -0.0190793 0)
(1.36884 -0.0462648 0)
(0.359517 -0.108257 0)
(0.630127 0.148585 0)
(0.562543 0.101078 0)
(0.60566 -0.0607358 0)
(1.24028 -0.00189379 0)
(1.63075 0.240814 0)
(1.30484 0.25665 0)
(1.20569 0.139926 0)
(1.12779 -0.016953 0)
(1.28279 -0.0508438 0)
(-0.0194788 -0.106465 0)
(0.210749 0.124107 0)
(0.168106 0.103266 0)
(0.223983 -0.0882506 0)
(0.915312 -0.0882003 0)
(1.53593 0.229369 0)
(1.28361 0.266337 0)
(1.16616 0.148289 0)
(1.05003 -0.015116 0)
(1.1939 -0.0576103 0)
(-0.17058 -0.103367 0)
(-0.0732269 0.143148 0)
(-0.144969 0.117612 0)
(-0.0971351 -0.119786 0)
(0.57911 -0.182271 0)
(1.4009 0.212576 0)
(1.253 0.274552 0)
(1.11632 0.156605 0)
(0.980854 -0.0133225 0)
(1.11427 -0.0622114 0)
(-0.229953 -0.0688962 0)
(-0.255784 0.153521 0)
(-0.37931 0.130723 0)
(-0.335263 -0.13929 0)
(0.274383 -0.264523 0)
(1.23077 0.178613 0)
(1.20995 0.278783 0)
(1.05721 0.16627 0)
(0.925724 -0.00765973 0)
(1.05393 -0.0666972 0)
(-0.250909 -0.0305536 0)
(-0.376463 0.18812 0)
(-0.545737 0.160439 0)
(-0.478898 -0.161632 0)
(0.0444236 -0.363583 0)
(1.04251 0.11864 0)
(1.15324 0.279536 0)
(0.990832 0.178237 0)
(0.886036 -0.0071046 0)
(1.01797 -0.0698234 0)
(-0.258353 0.0113363 0)
(-0.462799 0.218947 0)
(-0.651397 0.183045 0)
(-0.541676 -0.185126 0)
(-0.110289 -0.429343 0)
(0.847909 0.0641199 0)
(1.08325 0.275788 0)
(0.919436 0.183705 0)
(0.86128 -0.00164747 0)
(1.00583 -0.0758521 0)
(-0.272504 0.0535384 0)
(-0.519478 0.249631 0)
(-0.701292 0.215861 0)
(-0.552646 -0.223593 0)
(-0.188801 -0.486451 0)
(0.661621 0.00144152 0)
(0.999618 0.268974 0)
(0.848051 0.194101 0)
(0.85019 -0.00577982 0)
(1.00602 -0.0831575 0)
(-0.28511 0.0975904 0)
(-0.544372 0.28302 0)
(-0.716578 0.248558 0)
(-0.486441 -0.25406 0)
(-0.218618 -0.51612 0)
(0.475964 -0.0541972 0)
(0.903144 0.257137 0)
(0.78158 0.192304 0)
(0.851725 -0.0126672 0)
(1.01563 -0.0857953 0)
(-0.28724 0.14219 0)
(-0.535845 0.315752 0)
(-0.693216 0.262098 0)
(-0.317453 -0.275689 0)
(-0.203388 -0.540802 0)
(0.303599 -0.110763 0)
(0.794854 0.242255 0)
(0.728132 0.19432 0)
(0.88067 -0.0171032 0)
(1.03775 -0.0886337 0)
(-0.298868 0.183857 0)
(-0.498271 0.328786 0)
(-0.607538 0.26955 0)
(-0.0611575 -0.293356 0)
(-0.084054 -0.536156 0)
(0.175063 -0.149037 0)
(0.674573 0.223998 0)
(0.69658 0.194918 0)
(0.945028 -0.0379772 0)
(1.07385 -0.0926139 0)
(-0.290383 0.222371 0)
(-0.436436 0.334689 0)
(-0.430743 0.262474 0)
(0.27323 -0.317259 0)
(0.132351 -0.513998 0)
(0.124696 -0.16924 0)
(0.551651 0.201782 0)
(0.68942 0.183531 0)
(1.0324 -0.0457571 0)
(1.12185 -0.0903188 0)
(-0.268034 0.25093 0)
(-0.343427 0.336023 0)
(-0.173452 0.207437 0)
(0.664411 -0.323835 0)
(0.375657 -0.507385 0)
(0.12882 -0.175267 0)
(0.450437 0.172866 0)
(0.703402 0.166027 0)
(1.11834 -0.0637147 0)
(1.17734 -0.0928454 0)
(-0.231706 0.265972 0)
(-0.218616 0.328727 0)
(0.118595 0.160941 0)
(1.05916 -0.366139 0)
(0.605564 -0.450034 0)
(0.180613 -0.16545 0)
(0.395403 0.148441 0)
(0.742556 0.142725 0)
(1.19478 -0.0782661 0)
(1.23463 -0.0909875 0)
(-0.183199 0.27788 0)
(-0.0752476 0.308271 0)
(0.375754 0.0609265 0)
(1.38978 -0.393586 0)
(0.816417 -0.406409 0)
(0.287944 -0.144782 0)
(0.394961 0.116015 0)
(0.80796 0.113994 0)
(1.26113 -0.0931494 0)
(1.28827 -0.0904672 0)
(-0.123612 0.274802 0)
(0.0682779 0.269719 0)
(0.602981 -0.0364405 0)
(1.61753 -0.449677 0)
(0.997124 -0.356765 0)
(0.446166 -0.134918 0)
(0.440058 0.104015 0)
(0.891283 0.0738124 0)
(1.31896 -0.108458 0)
(1.33524 -0.0899396 0)
(-0.0586507 0.274421 0)
(0.211899 0.221036 0)
(0.8477 -0.124837 0)
(1.75884 -0.489061 0)
(1.14512 -0.325542 0)
(0.641038 -0.102927 0)
(0.545267 0.0978475 0)
(1.00126 0.0342513 0)
(1.36996 -0.121427 0)
(1.37574 -0.0881594 0)
(0.0071583 0.24333 0)
(0.389363 0.157112 0)
(1.1247 -0.233869 0)
(1.82856 -0.549738 0)
(1.26529 -0.315381 0)
(0.841056 -0.0776502 0)
(0.711964 0.099293 0)
(1.13625 -0.00621907 0)
(1.4138 -0.131224 0)
(1.41059 -0.0867601 0)
(0.152968 0.221693 0)
(0.671105 0.0818457 0)
(1.43069 -0.309947 0)
(1.87883 -0.600509 0)
(1.34626 -0.303903 0)
(1.01502 -0.0558051 0)
(0.918384 0.0875044 0)
(1.27651 -0.0390168 0)
(1.44923 -0.136681 0)
(1.44 -0.0846568 0)
(0.580587 0.0885859 0)
(1.09606 0.0355816 0)
(1.6986 -0.383988 0)
(1.93727 -0.628211 0)
(1.39637 -0.305443 0)
(1.14529 -0.0462032 0)
(1.11845 0.0912114 0)
(1.39204 -0.0640347 0)
(1.47538 -0.140015 0)
(1.46399 -0.0830108 0)
(1.28713 0.126711 0)
(1.60025 0.00515646 0)
(1.90188 -0.387077 0)
(1.97521 -0.627574 0)
(1.43345 -0.295252 0)
(1.23891 -0.0502785 0)
(1.28251 0.0815861 0)
(1.47257 -0.0823765 0)
(1.49476 -0.139551 0)
(1.48522 -0.081222 0)
(1.52843 0.300725 0)
(1.95122 0.0305719 0)
(2.01197 -0.363404 0)
(1.9871 -0.598006 0)
(1.46856 -0.311216 0)
(1.30073 -0.0484159 0)
(1.39526 0.0707228 0)
(1.51853 -0.0935174 0)
(1.50878 -0.136174 0)
(1.50439 -0.0784554 0)
(1.59762 0.30665 0)
(2.05171 0.00749341 0)
(2.03552 -0.327818 0)
(1.97873 -0.552378 0)
(1.51301 -0.311709 0)
(1.3376 -0.0519171 0)
(1.45483 0.0453839 0)
(1.5352 -0.100772 0)
(1.51829 -0.133833 0)
(1.52047 -0.0760797 0)
(1.58341 0.3377 0)
(2.02644 0.0403199 0)
(2.01543 -0.292603 0)
(1.96032 -0.523866 0)
(1.55771 -0.319084 0)
(1.36279 -0.0600903 0)
(1.48361 0.0266615 0)
(1.53887 -0.098667 0)
(1.52556 -0.131787 0)
(1.53453 -0.0747245 0)
(1.56267 0.339698 0)
(1.97173 0.0526122 0)
(1.98163 -0.282124 0)
(1.9345 -0.507573 0)
(1.59162 -0.324852 0)
(1.3831 -0.0670205 0)
(1.49832 0.0101613 0)
(1.53978 -0.093688 0)
(1.53132 -0.127651 0)
(1.54708 -0.0736362 0)
(1.53783 0.348058 0)
(1.90753 0.0835421 0)
(1.95433 -0.252502 0)
(1.89787 -0.491505 0)
(1.61387 -0.338609 0)
(1.40029 -0.0738867 0)
(1.51022 -0.00799202 0)
(1.54247 -0.0897807 0)
(1.53576 -0.121107 0)
(1.55819 -0.0718326 0)
(1.51648 0.351868 0)
(1.84774 0.103607 0)
(1.95528 -0.249005 0)
(1.8492 -0.473785 0)
(1.63303 -0.353121 0)
(1.41556 -0.0862515 0)
(1.52326 -0.0298413 0)
(1.54663 -0.091288 0)
(1.53978 -0.114478 0)
(1.56767 -0.0693971 0)
(1.49796 0.359653 0)
(1.78746 0.122947 0)
(1.95502 -0.212712 0)
(1.80274 -0.443841 0)
(1.64877 -0.366585 0)
(1.43137 -0.103742 0)
(1.53869 -0.0512217 0)
(1.55057 -0.0959374 0)
(1.54346 -0.110382 0)
(1.57571 -0.0671103 0)
(1.4862 0.36596 0)
(1.73715 0.135226 0)
(1.92643 -0.188053 0)
(1.79755 -0.421341 0)
(1.66844 -0.377884 0)
(1.44874 -0.126043 0)
(1.55399 -0.0714064 0)
(1.55594 -0.100726 0)
(1.54663 -0.109447 0)
(1.58203 -0.0654412 0)
(1.47995 0.376531 0)
(1.69672 0.148986 0)
(1.87856 -0.15328 0)
(1.79822 -0.392996 0)
(1.69227 -0.375713 0)
(1.47667 -0.147479 0)
(1.5675 -0.0901873 0)
(1.56163 -0.105079 0)
(1.54849 -0.110458 0)
(1.58645 -0.0645204 0)
(1.48391 0.386841 0)
(1.66496 0.163246 0)
(1.83767 -0.131897 0)
(1.79103 -0.362872 0)
(1.70809 -0.377557 0)
(1.50802 -0.170437 0)
(1.58191 -0.106662 0)
(1.56614 -0.108712 0)
(1.54895 -0.11246 0)
(1.58926 -0.0638657 0)
(1.49659 0.404046 0)
(1.64355 0.175673 0)
(1.80119 -0.0995999 0)
(1.78076 -0.336681 0)
(1.71554 -0.370958 0)
(1.54188 -0.192967 0)
(1.59965 -0.119056 0)
(1.56894 -0.110456 0)
(1.54961 -0.113213 0)
(1.59146 -0.0637214 0)
(1.51978 0.421494 0)
(1.63042 0.190355 0)
(1.78164 -0.0798091 0)
(1.76634 -0.306083 0)
(1.72273 -0.365022 0)
(1.5789 -0.216368 0)
(1.62122 -0.132089 0)
(1.57174 -0.108531 0)
(1.55216 -0.112935 0)
(1.59397 -0.0639658 0)
(1.54633 0.444132 0)
(1.62816 0.204519 0)
(1.76821 -0.0513373 0)
(1.75809 -0.280468 0)
(1.73328 -0.355451 0)
(1.62021 -0.237408 0)
(1.648 -0.139966 0)
(1.57799 -0.105469 0)
(1.55943 -0.110234 0)
(1.59734 -0.062 0)
(1.57126 0.462386 0)
(1.63629 0.220063 0)
(1.76241 -0.0289522 0)
(1.76288 -0.257172 0)
(1.74624 -0.345525 0)
(1.66286 -0.257507 0)
(1.67755 -0.153979 0)
(1.59192 -0.100164 0)
(1.57415 -0.104204 0)
(1.6038 -0.0594572 0)
(1.58617 0.479518 0)
(1.65097 0.237805 0)
(1.76005 -0.00391623 0)
(1.78238 -0.232606 0)
(1.76066 -0.333556 0)
(1.70906 -0.27159 0)
(1.71553 -0.168318 0)
(1.61585 -0.0931086 0)
(1.59723 -0.0956995 0)
(1.61314 -0.0547844 0)
(1.59132 0.48562 0)
(1.6671 0.254422 0)
(1.76294 0.0185211 0)
(1.80999 -0.211438 0)
(1.78055 -0.321468 0)
(1.75491 -0.28833 0)
(1.75827 -0.185045 0)
(1.64766 -0.092717 0)
(1.6258 -0.0909195 0)
(1.62449 -0.0506024 0)
(1.58776 0.483981 0)
(1.67955 0.270983 0)
(1.77156 0.0406192 0)
(1.83421 -0.185759 0)
(1.8088 -0.312511 0)
(1.79994 -0.299089 0)
(1.80133 -0.208205 0)
(1.68061 -0.0975117 0)
(1.65516 -0.0878747 0)
(1.6357 -0.0468336 0)
(1.57775 0.475171 0)
(1.68712 0.284428 0)
(1.78506 0.0597999 0)
(1.85461 -0.163979 0)
(1.8346 -0.298795 0)
(1.83687 -0.31103 0)
(1.83835 -0.238343 0)
(1.71385 -0.107319 0)
(1.68107 -0.0862461 0)
(1.64526 -0.0438295 0)
(1.55772 0.470473 0)
(1.68691 0.296596 0)
(1.79541 0.0783975 0)
(1.86557 -0.1393 0)
(1.85388 -0.293387 0)
(1.86393 -0.318273 0)
(1.86231 -0.26922 0)
(1.74844 -0.123811 0)
(1.70032 -0.0886306 0)
(1.65277 -0.0414796 0)
(0.5416 0.176802 0)
(0.610299 0.22673 0)
(0.67342 0.297391 0)
(0.730509 0.356432 0)
(0.778809 0.402414 0)
(0.822855 0.437935 0)
(0.86635 0.468106 0)
(0.918086 0.495397 0)
(0.990677 0.529791 0)
(1.12533 0.563287 0)
(0.588361 0.226174 0)
(0.625567 0.262297 0)
(0.669427 0.31801 0)
(0.718797 0.368941 0)
(0.766321 0.410736 0)
(0.812267 0.443978 0)
(0.858883 0.472282 0)
(0.914078 0.498548 0)
(0.991491 0.532549 0)
(1.12702 0.563137 0)
(0.681012 0.231361 0)
(0.687783 0.264974 0)
(0.718142 0.303121 0)
(0.750313 0.343162 0)
(0.784436 0.382241 0)
(0.822278 0.415817 0)
(0.865997 0.444923 0)
(0.922486 0.472309 0)
(1.00492 0.505542 0)
(1.14719 0.527219 0)
(0.773817 0.27508 0)
(0.750545 0.310882 0)
(0.779446 0.338218 0)
(0.793443 0.36782 0)
(0.814983 0.394846 0)
(0.844582 0.417004 0)
(0.883748 0.438841 0)
(0.938859 0.460733 0)
(1.0233 0.491487 0)
(1.15979 0.497391 0)
(0.854608 0.306369 0)
(0.819464 0.335853 0)
(0.84402 0.359438 0)
(0.846943 0.38071 0)
(0.859373 0.399056 0)
(0.879772 0.415262 0)
(0.913222 0.431806 0)
(0.964459 0.44866 0)
(1.04492 0.472656 0)
(1.1813 0.479063 0)
(0.936128 0.349755 0)
(0.88437 0.370994 0)
(0.893435 0.39404 0)
(0.887448 0.408446 0)
(0.894832 0.419454 0)
(0.913059 0.42586 0)
(0.945261 0.435317 0)
(0.994269 0.446946 0)
(1.06993 0.463201 0)
(1.20009 0.467819 0)
(1.04461 0.407875 0)
(0.962269 0.422088 0)
(0.949734 0.428865 0)
(0.936549 0.430337 0)
(0.938767 0.426981 0)
(0.954717 0.426453 0)
(0.983326 0.433068 0)
(1.02787 0.442011 0)
(1.09601 0.452334 0)
(1.21595 0.456631 0)
(1.20102 0.494541 0)
(1.06085 0.492322 0)
(1.03214 0.478333 0)
(1.01067 0.462591 0)
(1.00345 0.451782 0)
(1.00924 0.447723 0)
(1.02807 0.448211 0)
(1.06672 0.450554 0)
(1.12545 0.453031 0)
(1.23402 0.455384 0)
(1.44378 0.551851 0)
(1.17691 0.575086 0)
(1.13307 0.545602 0)
(1.10795 0.523406 0)
(1.09307 0.501525 0)
(1.08776 0.483405 0)
(1.09413 0.471136 0)
(1.12146 0.46246 0)
(1.16501 0.457476 0)
(1.25933 0.457913 0)
(1.75473 0.511934 0)
(1.35257 0.625329 0)
(1.23774 0.58545 0)
(1.21852 0.565893 0)
(1.19771 0.54989 0)
(1.18056 0.533944 0)
(1.17647 0.513692 0)
(1.19068 0.495612 0)
(1.21721 0.481019 0)
(1.29452 0.473364 0)
(2.0084 0.406276 0)
(1.66536 0.582233 0)
(1.29842 0.642834 0)
(1.28173 0.630314 0)
(1.27361 0.612933 0)
(1.26708 0.589704 0)
(1.26641 0.561156 0)
(1.27247 0.535823 0)
(1.28683 0.510566 0)
(1.34402 0.496194 0)
(2.14015 0.313139 0)
(2.02076 0.418814 0)
(1.48269 0.649169 0)
(1.31746 0.651618 0)
(1.32832 0.642099 0)
(1.33622 0.624745 0)
(1.34359 0.600796 0)
(1.3466 0.57883 0)
(1.35537 0.553153 0)
(1.39975 0.532043 0)
(2.2161 0.240934 0)
(2.18828 0.273007 0)
(1.80871 0.53881 0)
(1.37428 0.660081 0)
(1.35701 0.653478 0)
(1.37283 0.642295 0)
(1.38411 0.632637 0)
(1.39618 0.615351 0)
(1.41564 0.588374 0)
(1.45666 0.564458 0)
(2.26659 0.186177 0)
(2.24972 0.208342 0)
(2.16428 0.303056 0)
(1.53988 0.61518 0)
(1.3641 0.652587 0)
(1.37633 0.651203 0)
(1.39946 0.644437 0)
(1.42246 0.634279 0)
(1.45435 0.616694 0)
(1.49789 0.595657 0)
(2.294 0.158996 0)
(2.28174 0.173863 0)
(2.26753 0.192884 0)
(1.88757 0.476405 0)
(1.37715 0.657102 0)
(1.37268 0.650337 0)
(1.39617 0.645901 0)
(1.43179 0.638544 0)
(1.47497 0.625457 0)
(1.52049 0.610978 0)
(2.31529 0.137563 0)
(2.3083 0.143377 0)
(2.29544 0.160547 0)
(2.24631 0.230764 0)
(1.53647 0.591889 0)
(1.37249 0.639015 0)
(1.39383 0.640223 0)
(1.43143 0.638082 0)
(1.47539 0.63393 0)
(1.52339 0.622023 0)
(2.34135 0.103038 0)
(2.33375 0.11162 0)
(2.32237 0.12498 0)
(2.31404 0.140309 0)
(1.91082 0.446125 0)
(1.36294 0.632092 0)
(1.38955 0.643433 0)
(1.4274 0.640855 0)
(1.46875 0.636782 0)
(1.51383 0.622667 0)
(2.35918 0.0778521 0)
(2.35053 0.0902134 0)
(2.34421 0.0968127 0)
(2.33305 0.113841 0)
(2.26932 0.204459 0)
(1.53939 0.563528 0)
(1.38944 0.640565 0)
(1.42087 0.64463 0)
(1.45613 0.637798 0)
(1.49794 0.616453 0)
(2.36984 0.0656078 0)
(2.36371 0.073027 0)
(2.35846 0.0795261 0)
(2.34778 0.09425 0)
(2.34363 0.107064 0)
(1.84151 0.468292 0)
(1.38421 0.65797 0)
(1.40803 0.648348 0)
(1.43917 0.629168 0)
(1.47626 0.60053 0)
(2.37812 0.0551827 0)
(2.37473 0.0579088 0)
(2.36749 0.0678508 0)
(2.36176 0.0723426 0)
(2.35304 0.0856374 0)
(2.2688 0.21626 0)
(1.51238 0.615631 0)
(1.40152 0.641369 0)
(1.41439 0.616723 0)
(1.44549 0.581643 0)
(2.5214 -9.18753e-08 0)
(2.51385 2.75215e-07 0)
(2.50561 -6.91789e-07 0)
(2.49662 1.16517e-06 0)
(2.48678 -2.3304e-06 0)
(2.47598 3.35624e-06 0)
(2.46437 -4.88277e-06 0)
(2.45023 8.5558e-06 0)
(2.4408 -1.29983e-05 0)
(1.29553 0.0380455 0)
(2.5214 -2.67422e-07 0)
(2.51385 8.04419e-07 0)
(2.50561 -2.01562e-06 0)
(2.49662 3.40361e-06 0)
(2.48678 -6.69365e-06 0)
(2.47598 1.02116e-05 0)
(2.46437 -2.07963e-05 0)
(2.45024 2.8286e-05 0)
(2.44082 -4.47155e-05 0)
(1.34099 0.120307 0)
(2.5214 -4.40569e-07 0)
(2.51385 1.32713e-06 0)
(2.50561 -3.31412e-06 0)
(2.49662 5.60596e-06 0)
(2.48678 -1.09114e-05 0)
(2.47598 1.64107e-05 0)
(2.46437 -3.23389e-05 0)
(2.45025 4.63389e-05 0)
(2.44086 -8.59411e-05 0)
(1.42404 0.178122 0)
(2.5214 -6.08881e-07 0)
(2.51385 1.83565e-06 0)
(2.50561 -4.55927e-06 0)
(2.49662 7.73598e-06 0)
(2.48678 -1.49544e-05 0)
(2.47598 2.25587e-05 0)
(2.46437 -4.41979e-05 0)
(2.45026 6.03141e-05 0)
(2.44089 -0.000109261 0)
(1.51853 0.226128 0)
(2.5214 -7.70149e-07 0)
(2.51385 2.32392e-06 0)
(2.50561 -5.73152e-06 0)
(2.49662 9.7549e-06 0)
(2.48678 -1.868e-05 0)
(2.47598 2.8149e-05 0)
(2.46437 -5.43589e-05 0)
(2.45027 7.36531e-05 0)
(2.44087 -0.000195221 0)
(1.62044 0.261103 0)
(2.5214 -9.22875e-07 0)
(2.51385 2.78742e-06 0)
(2.50561 -6.81804e-06 0)
(2.49662 1.16466e-05 0)
(2.48679 -2.20978e-05 0)
(2.47598 3.32822e-05 0)
(2.46437 -6.30291e-05 0)
(2.45028 8.73506e-05 0)
(2.44075 -0.000284182 0)
(1.72952 0.287726 0)
(2.5214 -1.06592e-06 0)
(2.51385 3.22252e-06 0)
(2.50561 -7.80953e-06 0)
(2.49662 1.33913e-05 0)
(2.48679 -2.51742e-05 0)
(2.47598 3.79805e-05 0)
(2.46437 -7.11567e-05 0)
(2.45028 9.90424e-05 0)
(2.44056 -0.000284896 0)
(1.85179 0.301167 0)
(2.5214 -1.19848e-06 0)
(2.51385 3.62669e-06 0)
(2.50561 -8.70199e-06 0)
(2.49662 1.49791e-05 0)
(2.48679 -2.78917e-05 0)
(2.47598 4.21371e-05 0)
(2.46438 -7.81145e-05 0)
(2.45029 0.000115943 0)
(2.4404 -0.000328196 0)
(1.98195 0.302674 0)
(2.5214 -1.32007e-06 0)
(2.51385 3.99827e-06 0)
(2.50561 -9.49522e-06 0)
(2.49662 1.6408e-05 0)
(2.48679 -3.02775e-05 0)
(2.47598 4.58609e-05 0)
(2.46438 -8.3573e-05 0)
(2.4503 0.000129213 0)
(2.44028 -0.000335842 0)
(2.09364 0.277554 0)
(2.5214 -1.43046e-06 0)
(2.51385 4.33648e-06 0)
(2.50561 -1.01924e-05 0)
(2.49662 1.76805e-05 0)
(2.48679 -3.23516e-05 0)
(2.47598 4.92294e-05 0)
(2.46438 -8.9105e-05 0)
(2.45031 0.000143793 0)
(2.44022 -0.000333742 0)
(2.17692 0.241145 0)
(2.5214 -1.52962e-06 0)
(2.51385 4.64129e-06 0)
(2.50561 -1.07988e-05 0)
(2.49662 1.88028e-05 0)
(2.48679 -3.41369e-05 0)
(2.47598 5.21989e-05 0)
(2.46438 -9.36722e-05 0)
(2.45032 0.000155959 0)
(2.44019 -0.000333754 0)
(2.22966 0.210382 0)
(2.5214 -1.61776e-06 0)
(2.51385 4.91348e-06 0)
(2.50561 -1.13226e-05 0)
(2.49662 1.97888e-05 0)
(2.48679 -3.56815e-05 0)
(2.47598 5.48756e-05 0)
(2.46438 -9.79702e-05 0)
(2.45033 0.00016694 0)
(2.44016 -0.000329655 0)
(2.27021 0.177808 0)
(2.5214 -1.6953e-06 0)
(2.51385 5.15435e-06 0)
(2.50561 -1.17722e-05 0)
(2.49662 2.06506e-05 0)
(2.48679 -3.70187e-05 0)
(2.47598 5.73651e-05 0)
(2.46439 -0.000102033 0)
(2.45034 0.000175119 0)
(2.44013 -0.000325511 0)
(2.30234 0.147414 0)
(2.5214 -1.76287e-06 0)
(2.51385 5.36599e-06 0)
(2.50561 -1.21572e-05 0)
(2.49662 2.14022e-05 0)
(2.48679 -3.8168e-05 0)
(2.47598 5.95625e-05 0)
(2.46439 -0.000105725 0)
(2.45035 0.000182849 0)
(2.4401 -0.000324178 0)
(2.32315 0.124692 0)
(2.5214 -1.82132e-06 0)
(2.51385 5.5509e-06 0)
(2.50561 -1.24875e-05 0)
(2.49662 2.20639e-05 0)
(2.4868 -3.91815e-05 0)
(2.47598 6.16516e-05 0)
(2.46439 -0.000108773 0)
(2.45036 0.000190367 0)
(2.44006 -0.000322376 0)
(2.34652 0.0977809 0)
(2.5214 -1.87162e-06 0)
(2.51385 5.71197e-06 0)
(2.50561 -1.27719e-05 0)
(2.49662 2.26454e-05 0)
(2.4868 -4.00679e-05 0)
(2.47599 6.34806e-05 0)
(2.46439 -0.000112051 0)
(2.45038 0.000197511 0)
(2.44001 -0.000326873 0)
(2.36659 0.077883 0)
(2.5214 -1.91477e-06 0)
(2.51385 5.85222e-06 0)
(2.50561 -1.30191e-05 0)
(2.49662 2.31647e-05 0)
(2.4868 -4.08548e-05 0)
(2.47599 6.51741e-05 0)
(2.46439 -0.000115048 0)
(2.45041 0.000204685 0)
(2.43996 -0.000330618 0)
(2.37733 0.0666179 0)
(2.5214 -1.95175e-06 0)
(2.51385 5.97447e-06 0)
(2.50561 -1.32356e-05 0)
(2.49662 2.36308e-05 0)
(2.4868 -4.15607e-05 0)
(2.47599 6.6779e-05 0)
(2.46439 -0.000117742 0)
(2.45043 0.000212986 0)
(2.4399 -0.000335271 0)
(2.38689 0.0509603 0)
(2.5214 -1.98347e-06 0)
(2.51385 6.0816e-06 0)
(2.50561 -1.34268e-05 0)
(2.49662 2.40541e-05 0)
(2.4868 -4.21907e-05 0)
(2.47599 6.82493e-05 0)
(2.46439 -0.000120123 0)
(2.45046 0.000220402 0)
(2.43982 -0.000346592 0)
(2.39617 0.0381286 0)
(2.5214 -2.01056e-06 0)
(2.51385 6.17528e-06 0)
(2.50562 -1.35958e-05 0)
(2.49662 2.44385e-05 0)
(2.4868 -4.27512e-05 0)
(2.47599 6.96496e-05 0)
(2.46438 -0.000122157 0)
(2.4505 0.000228305 0)
(2.43972 -0.000359699 0)
(2.40278 0.0302072 0)
(2.5214 2.01047e-06 0)
(2.51385 -6.17517e-06 0)
(2.50562 1.35953e-05 0)
(2.49662 -2.44362e-05 0)
(2.4868 4.27461e-05 0)
(2.47599 -6.96404e-05 0)
(2.46438 0.000122149 0)
(2.4505 -0.000228298 0)
(2.43972 0.000359546 0)
(2.40279 -0.0301793 0)
(2.5214 1.98345e-06 0)
(2.51385 -6.08159e-06 0)
(2.50561 1.34263e-05 0)
(2.49662 -2.40514e-05 0)
(2.4868 4.21843e-05 0)
(2.47599 -6.82356e-05 0)
(2.46439 0.000120112 0)
(2.45046 -0.000220404 0)
(2.43981 0.000346475 0)
(2.39619 -0.0380915 0)
(2.5214 1.95176e-06 0)
(2.51385 -5.97449e-06 0)
(2.50561 1.32351e-05 0)
(2.49662 -2.36275e-05 0)
(2.4868 4.15538e-05 0)
(2.47599 -6.67644e-05 0)
(2.46439 0.000117724 0)
(2.45043 -0.000212988 0)
(2.4399 0.000335173 0)
(2.38692 -0.0508935 0)
(2.5214 1.9148e-06 0)
(2.51385 -5.85223e-06 0)
(2.50561 1.30185e-05 0)
(2.49662 -2.3161e-05 0)
(2.4868 4.08475e-05 0)
(2.47599 -6.51584e-05 0)
(2.46439 0.00011503 0)
(2.45041 -0.000204704 0)
(2.43996 0.000330484 0)
(2.37735 -0.0665644 0)
(2.5214 1.87165e-06 0)
(2.51385 -5.71198e-06 0)
(2.50561 1.27712e-05 0)
(2.49662 -2.26414e-05 0)
(2.4868 4.00601e-05 0)
(2.47599 -6.34647e-05 0)
(2.46439 0.000112033 0)
(2.45038 -0.000197531 0)
(2.44001 0.000326789 0)
(2.36662 -0.0778355 0)
(2.5214 1.82137e-06 0)
(2.51385 -5.55097e-06 0)
(2.50561 1.24868e-05 0)
(2.49662 -2.206e-05 0)
(2.4868 3.91726e-05 0)
(2.47598 -6.16334e-05 0)
(2.46439 0.000108762 0)
(2.45036 -0.000190422 0)
(2.44006 0.000322276 0)
(2.3466 -0.0976838 0)
(2.5214 1.76295e-06 0)
(2.51385 -5.3662e-06 0)
(2.50561 1.21566e-05 0)
(2.49662 -2.13987e-05 0)
(2.48679 3.81573e-05 0)
(2.47598 -5.95373e-05 0)
(2.46439 0.000105721 0)
(2.45035 -0.000182958 0)
(2.4401 0.000324056 0)
(2.3232 -0.124618 0)
(2.5214 1.69542e-06 0)
(2.51385 -5.15482e-06 0)
(2.50561 1.17722e-05 0)
(2.49662 -2.06481e-05 0)
(2.48679 3.70062e-05 0)
(2.47598 -5.73301e-05 0)
(2.46439 0.000102019 0)
(2.45034 -0.000175192 0)
(2.44013 0.000325402 0)
(2.30242 -0.147339 0)
(2.5214 1.61796e-06 0)
(2.51385 -4.91429e-06 0)
(2.50561 1.13235e-05 0)
(2.49662 -1.9788e-05 0)
(2.48679 3.56675e-05 0)
(2.47598 -5.48248e-05 0)
(2.46438 9.79272e-05 0)
(2.45033 -0.000167064 0)
(2.44016 0.000329539 0)
(2.27035 -0.177725 0)
(2.5214 1.52991e-06 0)
(2.51385 -4.64253e-06 0)
(2.50561 1.08008e-05 0)
(2.49662 -1.88048e-05 0)
(2.48679 3.41239e-05 0)
(2.47598 -5.21367e-05 0)
(2.46438 9.36028e-05 0)
(2.45032 -0.000156053 0)
(2.44019 0.000333655 0)
(2.22983 -0.210333 0)
(2.5214 1.43085e-06 0)
(2.51385 -4.33817e-06 0)
(2.50561 1.01957e-05 0)
(2.49662 -1.76859e-05 0)
(2.48679 3.23422e-05 0)
(2.47598 -4.9164e-05 0)
(2.46438 8.90062e-05 0)
(2.45031 -0.000143869 0)
(2.44022 0.000333621 0)
(2.17713 -0.241111 0)
(2.5214 1.32058e-06 0)
(2.51385 -4.00042e-06 0)
(2.50561 9.50024e-06 0)
(2.49662 -1.64184e-05 0)
(2.48679 3.02777e-05 0)
(2.47598 -4.5801e-05 0)
(2.46438 8.33951e-05 0)
(2.4503 -0.000129161 0)
(2.44028 0.000335931 0)
(2.09389 -0.277557 0)
(2.5214 1.19909e-06 0)
(2.51385 -3.62923e-06 0)
(2.50561 8.70832e-06 0)
(2.49662 -1.49926e-05 0)
(2.48679 2.78984e-05 0)
(2.47598 -4.20908e-05 0)
(2.46438 7.79345e-05 0)
(2.45029 -0.000115955 0)
(2.44039 0.000328085 0)
(1.9822 -0.302746 0)
(2.5214 1.06662e-06 0)
(2.51385 -3.22546e-06 0)
(2.50561 7.81761e-06 0)
(2.49662 -1.34104e-05 0)
(2.48679 2.52034e-05 0)
(2.47598 -3.79839e-05 0)
(2.46437 7.09332e-05 0)
(2.45028 -9.86644e-05 0)
(2.44056 0.000285032 0)
(1.85194 -0.301262 0)
(2.5214 9.23674e-07 0)
(2.51385 -2.79065e-06 0)
(2.50561 6.82701e-06 0)
(2.49662 -1.16662e-05 0)
(2.48679 2.21251e-05 0)
(2.47598 -3.32822e-05 0)
(2.46437 6.26464e-05 0)
(2.45028 -8.72598e-05 0)
(2.44075 0.000283902 0)
(1.72957 -0.287836 0)
(2.5214 7.71036e-07 0)
(2.51385 -2.32748e-06 0)
(2.50561 5.74196e-06 0)
(2.49662 -9.77925e-06 0)
(2.48678 1.8741e-05 0)
(2.47598 -2.82791e-05 0)
(2.46437 5.43333e-05 0)
(2.45027 -7.32185e-05 0)
(2.44087 0.000195121 0)
(1.62045 -0.261197 0)
(2.5214 6.09845e-07 0)
(2.51385 -1.83945e-06 0)
(2.50561 4.57029e-06 0)
(2.49662 -7.75801e-06 0)
(2.48678 1.49958e-05 0)
(2.47598 -2.2615e-05 0)
(2.46437 4.35808e-05 0)
(2.45026 -6.017e-05 0)
(2.44089 0.000109053 0)
(1.51854 -0.22621 0)
(2.5214 4.41595e-07 0)
(2.51385 -1.33115e-06 0)
(2.50561 3.32598e-06 0)
(2.49662 -5.63031e-06 0)
(2.48678 1.09875e-05 0)
(2.47598 -1.672e-05 0)
(2.46437 3.33072e-05 0)
(2.45025 -4.56902e-05 0)
(2.44086 8.60384e-05 0)
(1.42405 -0.178197 0)
(2.5214 2.6849e-07 0)
(2.51385 -8.08586e-07 0)
(2.50561 2.02807e-06 0)
(2.49662 -3.42779e-06 0)
(2.48678 6.75097e-06 0)
(2.47598 -1.02943e-05 0)
(2.46437 1.95661e-05 0)
(2.45024 -2.80085e-05 0)
(2.44083 4.23489e-05 0)
(1.34102 -0.120376 0)
(2.5214 9.29725e-08 0)
(2.51385 -2.795e-07 0)
(2.50561 7.04628e-07 0)
(2.49662 -1.189e-06 0)
(2.48678 2.37065e-06 0)
(2.47598 -3.45122e-06 0)
(2.46437 7.26828e-06 0)
(2.45023 -1.0004e-05 0)
(2.4408 1.70323e-05 0)
(1.29555 -0.0381145 0)
(2.37813 -0.0551533 0)
(2.37473 -0.0578793 0)
(2.3675 -0.0678055 0)
(2.36177 -0.0722904 0)
(2.35306 -0.0855351 0)
(2.26845 -0.215699 0)
(1.51499 -0.61496 0)
(1.40103 -0.641945 0)
(1.41314 -0.617369 0)
(1.44422 -0.583274 0)
(2.36985 -0.0655833 0)
(2.36372 -0.0729951 0)
(2.35847 -0.079484 0)
(2.3478 -0.094161 0)
(2.34352 -0.107005 0)
(1.8439 -0.467499 0)
(1.38329 -0.658049 0)
(1.40656 -0.649288 0)
(1.43764 -0.629735 0)
(1.47475 -0.601484 0)
(2.35921 -0.0777844 0)
(2.35057 -0.0901199 0)
(2.34424 -0.0967283 0)
(2.3331 -0.113722 0)
(2.26989 -0.203998 0)
(1.53979 -0.563252 0)
(1.38846 -0.640854 0)
(1.41975 -0.645168 0)
(1.45432 -0.638482 0)
(1.49614 -0.617112 0)
(2.34139 -0.102925 0)
(2.33378 -0.111525 0)
(2.32244 -0.124825 0)
(2.31403 -0.140198 0)
(1.91283 -0.4455 0)
(1.36216 -0.631875 0)
(1.38866 -0.643914 0)
(1.42629 -0.641349 0)
(1.46678 -0.637494 0)
(1.5119 -0.623099 0)
(2.31537 -0.137436 0)
(2.30838 -0.143255 0)
(2.29553 -0.160383 0)
(2.24669 -0.230357 0)
(1.53719 -0.591443 0)
(1.37178 -0.639009 0)
(1.39294 -0.640483 0)
(1.43033 -0.638415 0)
(1.47341 -0.634746 0)
(1.52164 -0.621982 0)
(2.29408 -0.158902 0)
(2.28184 -0.173719 0)
(2.26763 -0.192713 0)
(1.8893 -0.475839 0)
(1.3763 -0.657493 0)
(1.37184 -0.650617 0)
(1.39509 -0.646322 0)
(1.43062 -0.638924 0)
(1.4731 -0.626339 0)
(1.51891 -0.610583 0)
(2.26673 -0.186013 0)
(2.24988 -0.208153 0)
(2.16511 -0.302312 0)
(1.54024 -0.615011 0)
(1.36353 -0.652954 0)
(1.37559 -0.65149 0)
(1.39832 -0.644968 0)
(1.42143 -0.634493 0)
(1.45276 -0.617258 0)
(1.49665 -0.594662 0)
(2.21632 -0.240714 0)
(2.18854 -0.272726 0)
(1.81016 -0.538235 0)
(1.3739 -0.660434 0)
(1.35638 -0.653822 0)
(1.37197 -0.64288 0)
(1.38324 -0.633055 0)
(1.39536 -0.61525 0)
(1.41439 -0.5887 0)
(1.45579 -0.563135 0)
(2.14049 -0.312897 0)
(2.02134 -0.418403 0)
(1.48324 -0.649094 0)
(1.31686 -0.651979 0)
(1.32784 -0.642468 0)
(1.3354 -0.625084 0)
(1.34262 -0.601329 0)
(1.34586 -0.578592 0)
(1.35465 -0.553315 0)
(1.39945 -0.530317 0)
(2.00897 -0.406052 0)
(1.66613 -0.582169 0)
(1.29844 -0.643058 0)
(1.28144 -0.630549 0)
(1.27326 -0.613125 0)
(1.26627 -0.59007 0)
(1.26562 -0.561583 0)
(1.27192 -0.535389 0)
(1.28684 -0.51064 0)
(1.34437 -0.494031 0)
(1.75549 -0.511869 0)
(1.35295 -0.62568 0)
(1.23758 -0.585777 0)
(1.21815 -0.566237 0)
(1.19727 -0.55016 0)
(1.18001 -0.534002 0)
(1.17594 -0.513935 0)
(1.1904 -0.495305 0)
(1.21811 -0.480552 0)
(1.29551 -0.470812 0)
(1.44426 -0.552032 0)
(1.17689 -0.575422 0)
(1.13281 -0.545923 0)
(1.10744 -0.52378 0)
(1.09255 -0.50177 0)
(1.08704 -0.483707 0)
(1.09384 -0.471062 0)
(1.12151 -0.46214 0)
(1.16636 -0.456833 0)
(1.26149 -0.454861 0)
(1.20116 -0.494851 0)
(1.0607 -0.492575 0)
(1.03184 -0.478455 0)
(1.01008 -0.462833 0)
(1.00284 -0.451812 0)
(1.00861 -0.447808 0)
(1.02777 -0.448126 0)
(1.06698 -0.450127 0)
(1.12732 -0.452202 0)
(1.23782 -0.452016 0)
(1.04459 -0.408102 0)
(0.96199 -0.422283 0)
(0.949288 -0.428925 0)
(0.93595 -0.430451 0)
(0.93801 -0.427014 0)
(0.954061 -0.426487 0)
(0.983012 -0.432874 0)
(1.02835 -0.441487 0)
(1.09852 -0.451555 0)
(1.22229 -0.453254 0)
(0.935948 -0.349889 0)
(0.884099 -0.371103 0)
(0.892955 -0.394113 0)
(0.88684 -0.408462 0)
(0.894067 -0.419328 0)
(0.912367 -0.425702 0)
(0.944959 -0.435223 0)
(0.994858 -0.446399 0)
(1.07306 -0.462556 0)
(1.20941 -0.464449 0)
(0.854396 -0.306439 0)
(0.819185 -0.335871 0)
(0.843598 -0.359469 0)
(0.846361 -0.38068 0)
(0.858656 -0.398932 0)
(0.879106 -0.415061 0)
(0.912945 -0.431608 0)
(0.965119 -0.44817 0)
(1.04867 -0.472359 0)
(1.19395 -0.47671 0)
(0.773634 -0.275124 0)
(0.750277 -0.310894 0)
(0.779073 -0.338214 0)
(0.792916 -0.36774 0)
(0.814347 -0.394683 0)
(0.843961 -0.416781 0)
(0.883446 -0.438682 0)
(0.939527 -0.460292 0)
(1.02797 -0.491782 0)
(1.17412 -0.493807 0)
(0.680927 -0.231358 0)
(0.687566 -0.264981 0)
(0.717856 -0.303087 0)
(0.74989 -0.343086 0)
(0.783916 -0.382095 0)
(0.8217 -0.415634 0)
(0.865687 -0.444686 0)
(0.92311 -0.472321 0)
(1.00972 -0.505528 0)
(1.16309 -0.524749 0)
(0.5883 -0.226185 0)
(0.625406 -0.2623 0)
(0.669202 -0.317969 0)
(0.718442 -0.368858 0)
(0.765874 -0.410564 0)
(0.811721 -0.44377 0)
(0.858548 -0.471998 0)
(0.91455 -0.498508 0)
(0.995879 -0.533342 0)
(1.14328 -0.562395 0)
(0.541547 -0.176827 0)
(0.610154 -0.226745 0)
(0.67322 -0.297355 0)
(0.730163 -0.356371 0)
(0.778375 -0.402255 0)
(0.822286 -0.437752 0)
(0.865949 -0.467802 0)
(0.918393 -0.495328 0)
(0.994531 -0.530346 0)
(1.14175 -0.563881 0)
(1.55464 -0.470694 0)
(1.68318 -0.292796 0)
(1.77567 -0.0864816 0)
(1.83431 0.0990527 0)
(1.89936 0.277528 0)
(1.90426 0.405965 0)
(1.86027 0.361564 0)
(1.69941 0.179617 0)
(1.6644 0.0964291 0)
(1.65161 0.0388948 0)
(1.57467 -0.474892 0)
(1.68495 -0.279283 0)
(1.76015 -0.0688628 0)
(1.8186 0.115281 0)
(1.8866 0.293796 0)
(1.8892 0.414107 0)
(1.84259 0.35417 0)
(1.66617 0.168678 0)
(1.64034 0.0980967 0)
(1.64341 0.0401768 0)
(1.58467 -0.482784 0)
(1.67995 -0.265164 0)
(1.73868 -0.0495952 0)
(1.79843 0.12955 0)
(1.86173 0.300901 0)
(1.87591 0.414702 0)
(1.81489 0.338966 0)
(1.63011 0.159342 0)
(1.61271 0.0996054 0)
(1.63532 0.0397073 0)
(1.58877 -0.483356 0)
(1.67121 -0.247646 0)
(1.71888 -0.0311092 0)
(1.78057 0.143308 0)
(1.8343 0.31125 0)
(1.85556 0.414813 0)
(1.7808 0.31946 0)
(1.59231 0.153416 0)
(1.58698 0.097724 0)
(1.62824 0.0395934 0)
(1.5845 -0.476941 0)
(1.65878 -0.229487 0)
(1.70397 -0.0128576 0)
(1.7679 0.154079 0)
(1.81163 0.312613 0)
(1.83104 0.405838 0)
(1.73963 0.297447 0)
(1.5524 0.149354 0)
(1.56649 0.0925134 0)
(1.62421 0.0370697 0)
(1.57117 -0.4605 0)
(1.64708 -0.207706 0)
(1.69371 0.00413702 0)
(1.76185 0.165171 0)
(1.79663 0.316649 0)
(1.80664 0.395897 0)
(1.68918 0.277554 0)
(1.51165 0.145522 0)
(1.55185 0.0883029 0)
(1.62379 0.0336983 0)
(1.54943 -0.441592 0)
(1.63917 -0.189268 0)
(1.68727 0.0191965 0)
(1.76185 0.171968 0)
(1.79032 0.315145 0)
(1.78696 0.383933 0)
(1.63234 0.260698 0)
(1.47399 0.141203 0)
(1.54188 0.0855217 0)
(1.62339 0.0316453 0)
(1.52696 -0.420111 0)
(1.64033 -0.166438 0)
(1.6841 0.0342598 0)
(1.76757 0.178436 0)
(1.79106 0.318725 0)
(1.77364 0.374906 0)
(1.57689 0.249718 0)
(1.44169 0.135337 0)
(1.53377 0.0806589 0)
(1.62568 0.0291668 0)
(1.50934 -0.402291 0)
(1.64643 -0.149287 0)
(1.68371 0.0456416 0)
(1.77696 0.179691 0)
(1.79833 0.320885 0)
(1.76919 0.368026 0)
(1.53176 0.239802 0)
(1.41418 0.130601 0)
(1.52286 0.0771563 0)
(1.62781 0.0268739 0)
(1.50185 -0.385533 0)
(1.6606 -0.126527 0)
(1.68864 0.0591263 0)
(1.78804 0.179789 0)
(1.80913 0.326828 0)
(1.76647 0.363607 0)
(1.49611 0.233219 0)
(1.39015 0.127142 0)
(1.50826 0.0710682 0)
(1.62855 0.0243609 0)
(1.50347 -0.372322 0)
(1.67609 -0.111579 0)