/*--------------------------------*- C++ -*----------------------------------*\
  =========                 |
  \\      /  F ield         | OpenFOAM: The Open Source CFD Toolbox
   \\    /   O peration     | Website:  https://openfoam.org
    \\  /    A nd           | Version:  7
     \\/     M anipulation  |
\*---------------------------------------------------------------------------*/
FoamFile
{
    version     2.0;
    format      ascii;
    class       volScalarField;
    location    "0.3";
    object      rho;
}
// * * * * * * * * * * * * * * * * * * * * * * * * * * * * * * * * * * * * * //

dimensions      [1 -3 0 0 0 0 0];

internalField   nonuniform List<scalar> 
3225
(
2.35373
2.34656
2.33956
2.33268
2.32589
2.31917
2.31248
2.30578
2.29907
2.2923
2.28544
2.27847
2.27135
2.26406
2.25656
2.24883
2.36435
2.35715
2.35014
2.3433
2.33661
2.33001
2.32349
2.31703
2.31059
2.30415
2.29768
2.29116
2.28456
2.27785
2.27101
2.26401
2.25682
2.24941
2.24176
2.38443
2.37648
2.36875
2.36125
2.35395
2.34683
2.33987
2.33302
2.32628
2.31962
2.31301
2.30643
2.29985
2.29324
2.28657
2.27981
2.27294
2.26591
2.25871
2.2513
2.24366
2.39755
2.3895
2.38144
2.37365
2.3661
2.35876
2.3516
2.34461
2.33776
2.33103
2.32439
2.31783
2.31132
2.30482
2.29831
2.29177
2.28516
2.27846
2.27164
2.26467
2.25753
2.25018
2.24261
2.41473
2.40607
2.39923
2.39127
2.38411
2.37681
2.36973
2.3627
2.35577
2.34893
2.34218
2.33551
2.32892
2.3224
2.31592
2.30947
2.30304
2.29659
2.29011
2.28356
2.27693
2.27019
2.26331
2.25627
2.24903
2.24159
2.40865
2.40414
2.3969
2.39123
2.38431
2.37807
2.37133
2.36477
2.35815
2.3516
2.34509
2.33862
2.3322
2.3258
2.31943
2.31308
2.30674
2.30039
2.29402
2.28762
2.28116
2.2746
2.26796
2.2612
2.25427
2.24717
2.23989
2.39831
2.39464
2.38832
2.38327
2.37687
2.37118
2.3649
2.35888
2.3527
2.34655
2.34038
2.33421
2.32803
2.32185
2.31567
2.30948
2.30328
2.29705
2.29078
2.28448
2.27811
2.27165
2.2651
2.25844
2.25164
2.24468
2.23754
2.38836
2.38512
2.37948
2.37494
2.36918
2.36407
2.35826
2.35269
2.34685
2.34103
2.33512
2.3292
2.32325
2.31726
2.31125
2.30521
2.29915
2.29303
2.28687
2.28065
2.27438
2.26801
2.26153
2.25496
2.24827
2.24143
2.2344
2.37928
2.37641
2.37141
2.36728
2.36196
2.35716
2.35164
2.34638
2.3408
2.33526
2.32961
2.32391
2.31816
2.31237
2.30652
2.30062
2.29468
2.28869
2.28263
2.27649
2.27029
2.26401
2.25761
2.2511
2.24448
2.23774
2.23082
2.37062
2.368
2.36343
2.35959
2.35468
2.3502
2.34502
2.34008
2.33476
2.32947
2.32402
2.31853
2.31295
2.30731
2.30161
2.29585
2.29002
2.28413
2.27816
2.27211
2.26598
2.25976
2.25344
2.247
2.24044
2.23376
2.22692
2.36257
2.36016
2.35597
2.35241
2.34786
2.34363
2.33873
2.33402
2.3289
2.32383
2.31857
2.31325
2.30783
2.30233
2.29677
2.29112
2.28538
2.27958
2.27371
2.26774
2.26166
2.25551
2.24926
2.24289
2.23637
2.22973
2.22296
2.35495
2.35266
2.34875
2.34539
2.34111
2.3371
2.33246
2.32799
2.3231
2.31824
2.31317
2.30803
2.30275
2.2974
2.29196
2.28643
2.28079
2.27508
2.26929
2.2634
2.25739
2.25129
2.2451
2.2388
2.23234
2.22573
2.219
2.34779
2.34562
2.34194
2.33875
2.33472
2.3309
2.32649
2.3222
2.3175
2.31282
2.3079
2.30293
2.2978
2.29258
2.28726
2.28185
2.27633
2.2707
2.26499
2.25919
2.25326
2.24721
2.24108
2.23484
2.22844
2.22187
2.21515
2.34098
2.33889
2.3354
2.33234
2.3285
2.32484
2.32062
2.3165
2.31198
2.30747
2.3027
2.29788
2.2929
2.28781
2.28261
2.27731
2.27191
2.26638
2.26074
2.25503
2.2492
2.24323
2.23713
2.23095
2.22462
2.21811
2.21141
2.33453
2.3325
2.32915
2.32622
2.32255
2.31902
2.31498
2.311
2.30664
2.30228
2.29764
2.29295
2.2881
2.28314
2.27805
2.27286
2.26757
2.26215
2.25659
2.25095
2.24521
2.23933
2.2333
2.22714
2.22088
2.21444
2.20779
2.32834
2.32635
2.32312
2.32028
2.31674
2.31333
2.30943
2.30557
2.30137
2.29715
2.29266
2.28809
2.28336
2.27853
2.27355
2.26845
2.26326
2.25796
2.2525
2.24691
2.24124
2.23546
2.22951
2.2234
2.21717
2.21081
2.20423
2.32238
2.32041
2.31728
2.3145
2.31107
2.30776
2.30399
2.30025
2.29619
2.29212
2.28778
2.28335
2.27872
2.27401
2.26914
2.26414
2.25902
2.25381
2.24846
2.24295
2.23733
2.23162
2.22576
2.21972
2.21353
2.20721
2.20071
2.31659
2.31463
2.31156
2.30884
2.30551
2.30229
2.29863
2.29499
2.29104
2.28709
2.28291
2.27863
2.27413
2.26953
2.26477
2.25987
2.25483
2.2497
2.24445
2.23903
2.23347
2.22781
2.22204
2.21609
2.20995
2.20366
2.1972
2.31095
2.30899
2.306
2.30335
2.30012
2.29699
2.29344
2.28988
2.28601
2.28213
2.27807
2.27395
2.26959
2.2651
2.26046
2.25567
2.25071
2.24564
2.24047
2.23516
2.22968
2.22407
2.21834
2.21248
2.20642
2.20015
2.19371
2.30556
2.30362
2.30071
2.29813
2.295
2.29194
2.2885
2.28502
2.2812
2.27733
2.27331
2.26927
2.26506
2.2607
2.25617
2.25149
2.24664
2.24164
2.23653
2.23131
2.22594
2.22039
2.2147
2.20889
2.20289
2.19667
2.19024
2.3006
2.29866
2.2958
2.29326
2.2902
2.2872
2.28384
2.28044
2.27668
2.2728
2.26874
2.2647
2.26057
2.25633
2.25191
2.24734
2.24261
2.2377
2.23265
2.22749
2.22222
2.21676
2.21111
2.20532
2.19937
2.1932
2.1868
2.29611
2.29413
2.29123
2.28866
2.28561
2.28263
2.27932
2.276
2.27236
2.26853
2.26442
2.26031
2.25617
2.252
2.24768
2.24322
2.2386
2.2338
2.22883
2.22372
2.21851
2.21314
2.20756
2.20179
2.19585
2.18971
2.18335
2.2917
2.28973
2.28679
2.28416
2.2811
2.27811
2.27482
2.27155
2.26804
2.26436
2.26031
2.25614
2.25193
2.24777
2.24352
2.23914
2.23461
2.22993
2.22506
2.22001
2.21483
2.20952
2.20402
2.19828
2.19234
2.18623
2.1799
2.28699
2.28513
2.28228
2.27966
2.27661
2.27362
2.27032
2.26707
2.26365
2.26013
2.25623
2.2521
2.24784
2.24364
2.23942
2.23512
2.23066
2.22607
2.22131
2.21634
2.21119
2.2059
2.20044
2.19478
2.18887
2.18276
2.17645
2.2822
2.28044
2.27774
2.2752
2.27219
2.26922
2.26593
2.26265
2.25924
2.25583
2.25211
2.24811
2.24386
2.23962
2.2354
2.23116
2.22677
2.22223
2.21755
2.21269
2.20759
2.2023
2.19686
2.19125
2.1854
2.17932
2.17303
2.27744
2.27577
2.27321
2.27078
2.26784
2.26491
2.26165
2.25836
2.25493
2.25154
2.24795
2.2441
2.23994
2.23569
2.23145
2.22725
2.22293
2.21844
2.2138
2.20901
2.204
2.19875
2.19331
2.18772
2.18193
2.17591
2.16964
2.27268
2.27108
2.26865
2.26634
2.26351
2.26065
2.25744
2.25417
2.25074
2.24734
2.24381
2.24008
2.23603
2.23181
2.22757
2.22338
2.21913
2.21471
2.2101
2.20534
2.2004
2.19522
2.18981
2.18421
2.17845
2.17248
2.16627
2.26795
2.26642
2.26409
2.26189
2.25918
2.25639
2.25325
2.25002
2.24661
2.24323
2.23972
2.23607
2.23213
2.22799
2.22375
2.21956
2.21536
2.21102
2.20645
2.20169
2.19679
2.19169
2.18634
2.18075
2.17498
2.16903
2.16287
2.26321
2.26176
2.25954
2.25746
2.25486
2.25217
2.2491
2.2459
2.24253
2.23917
2.23571
2.2321
2.22824
2.22419
2.22
2.21581
2.21162
2.20735
2.20286
2.19811
2.1932
2.18814
2.18287
2.17733
2.17155
2.16558
2.15944
2.25846
2.25712
2.25501
2.25303
2.25055
2.24796
2.24498
2.24184
2.23849
2.23516
2.23175
2.22819
2.22438
2.22041
2.21629
2.21212
2.20792
2.20368
2.19927
2.19459
2.18966
2.18459
2.17936
2.1739
2.16815
2.16215
2.15598
2.25392
2.25261
2.25056
2.24865
2.24626
2.24377
2.24088
2.23781
2.2345
2.2312
2.22784
2.22433
2.22057
2.21665
2.21261
2.2085
2.2043
2.20005
2.19568
2.19108
2.18619
2.18108
2.17584
2.17043
2.16475
2.15877
2.15254
2.24975
2.24834
2.24626
2.24437
2.24203
2.23961
2.23681
2.23381
2.23056
2.22729
2.22396
2.22052
2.21682
2.21292
2.20893
2.20489
2.20074
2.19647
2.19209
2.18755
2.18274
2.17764
2.17235
2.16693
2.16131
2.15539
2.14915
2.24577
2.24428
2.24216
2.24024
2.23792
2.23552
2.23278
2.22985
2.22666
2.22343
2.22013
2.21675
2.2131
2.20924
2.20527
2.20128
2.1972
2.19296
2.18855
2.18401
2.17928
2.17425
2.16893
2.16345
2.15784
2.152
2.1458
2.24188
2.24032
2.23818
2.23625
2.23393
2.23153
2.22881
2.22592
2.22281
2.21962
2.21635
2.21299
2.20941
2.20559
2.20164
2.19768
2.19366
2.18948
2.18507
2.18049
2.17578
2.17084
2.16558
2.16004
2.15437
2.14855
2.14243
2.23807
2.23645
2.23428
2.23235
2.23004
2.22765
2.22493
2.22206
2.219
2.21587
2.21262
2.20927
2.20573
2.20198
2.19806
2.1941
2.19012
2.18602
2.18165
2.17703
2.17227
2.16739
2.16223
2.15671
2.15096
2.14509
2.13903
2.23431
2.23266
2.23045
2.22852
2.22623
2.22385
2.22113
2.21826
2.21523
2.21216
2.20894
2.20559
2.20207
2.19839
2.19453
2.19057
2.18658
2.18253
2.17825
2.17364
2.16881
2.16389
2.15881
2.15339
2.14761
2.14166
2.1356
2.23062
2.22893
2.2267
2.22476
2.22248
2.22011
2.2174
2.21454
2.21153
2.20849
2.20532
2.20197
2.19844
2.1948
2.19102
2.18711
2.18308
2.17902
2.17481
2.1703
2.16543
2.1604
2.1553
2.14999
2.14428
2.13829
2.13218
2.22697
2.22526
2.22302
2.22106
2.2188
2.21643
2.21374
2.21089
2.20788
2.20486
2.20173
2.1984
2.19486
2.19122
2.18751
2.18368
2.17966
2.17553
2.17132
2.16691
2.16211
2.15699
2.15177
2.14649
2.14091
2.13495
2.12881
2.22336
2.22163
2.21939
2.21743
2.21517
2.21281
2.21012
2.20729
2.2043
2.20128
2.19816
2.19487
2.19133
2.18768
2.184
2.18026
2.1763
2.1721
2.16781
2.16345
2.15878
2.15366
2.14832
2.14296
2.13746
2.13162
2.1255
2.21978
2.21805
2.21581
2.21385
2.2116
2.20922
2.20654
2.20373
2.20078
2.19775
2.19461
2.19134
2.18785
2.1842
2.1805
2.17682
2.17295
2.16875
2.16433
2.15991
2.15536
2.15039
2.145
2.1395
2.13398
2.12826
2.12222
2.21625
2.2145
2.21227
2.21031
2.20807
2.20569
2.20299
2.2002
2.19728
2.19426
2.19109
2.18782
2.18438
2.18078
2.17706
2.17335
2.16957
2.16545
2.16096
2.15638
2.15184
2.14706
2.14178
2.1362
2.13058
2.1249
2.11895
2.21275
2.21099
2.20877
2.20681
2.20457
2.20218
2.19948
2.1967
2.1938
2.19079
2.1876
2.1843
2.18092
2.17741
2.1737
2.16992
2.16613
2.16213
2.15769
2.15298
2.14831
2.14363
2.13856
2.13304
2.12733
2.1216
2.11571
2.20929
2.20753
2.20532
2.20335
2.20109
2.1987
2.196
2.19321
2.19032
2.18734
2.18415
2.18082
2.17746
2.17405
2.17042
2.16657
2.16267
2.15874
2.15447
2.14974
2.14488
2.14013
2.13523
2.1299
2.12421
2.11842
2.11253
2.20587
2.2041
2.20191
2.19993
2.19764
2.19523
2.19254
2.18976
2.18685
2.18387
2.18071
2.1774
2.17404
2.17069
2.16716
2.1633
2.15927
2.15528
2.15118
2.1466
2.14164
2.13669
2.13178
2.12664
2.12109
2.11532
2.10943
2.2025
2.20072
2.19853
2.19653
2.19421
2.19177
2.18909
2.18631
2.18339
2.1804
2.17729
2.17404
2.17069
2.16733
2.16387
2.16007
2.15596
2.15182
2.14776
2.1434
2.13851
2.13338
2.12831
2.12321
2.11785
2.11221
2.10639
2.19917
2.19739
2.1952
2.19316
2.19079
2.18831
2.18563
2.18287
2.17994
2.17695
2.17389
2.17073
2.1674
2.16397
2.1605
2.1568
2.15271
2.14844
2.14425
2.14002
2.13533
2.13018
2.1249
2.11969
2.11442
2.10897
2.10334
2.1959
2.19413
2.19192
2.18984
2.18742
2.18489
2.18219
2.17944
2.17654
2.17357
2.17055
2.16747
2.16417
2.16066
2.15708
2.15342
2.14944
2.14512
2.14073
2.13642
2.13189
2.12689
2.12155
2.11619
2.11089
2.10561
2.10021
2.1927
2.19094
2.18872
2.18661
2.18415
2.18158
2.17884
2.17609
2.17324
2.17032
2.16732
2.16425
2.16096
2.1574
2.15368
2.14996
2.14607
2.14179
2.13725
2.13273
2.12818
2.12335
2.11815
2.11277
2.10743
2.10221
2.09702
2.18959
2.18784
2.18562
2.18349
2.18102
2.17843
2.17567
2.1729
2.17008
2.16721
2.1642
2.16108
2.15776
2.15416
2.15035
2.14648
2.14256
2.13835
2.13378
2.12904
2.12433
2.11957
2.11458
2.10938
2.10411
2.09893
2.09395
2.18655
2.18481
2.18259
2.18045
2.17799
2.17543
2.17268
2.16991
2.16709
2.16421
2.16115
2.15793
2.15453
2.15092
2.14705
2.14304
2.13897
2.13476
2.13022
2.12541
2.12054
2.11571
2.11089
2.10596
2.10092
2.09598
2.0911
2.18359
2.18184
2.17957
2.17742
2.17499
2.17248
2.16981
2.16706
2.16421
2.16124
2.15809
2.15475
2.15126
2.1476
2.14371
2.1396
2.13537
2.13105
2.12655
2.12179
2.11688
2.11201
2.10722
2.10254
2.09797
2.09332
2.08867
2.18068
2.17885
2.1765
2.17432
2.17194
2.16954
2.16695
2.16422
2.1613
2.15822
2.15496
2.15153
2.14794
2.14419
2.14025
2.13608
2.13175
2.12732
2.12279
2.11814
2.11337
2.10854
2.10384
2.09941
2.09504
2.0908
2.08647
2.17775
2.17581
2.17339
2.17121
2.16891
2.16657
2.16401
2.16126
2.15826
2.15507
2.15171
2.14821
2.14455
2.14071
2.13668
2.13245
2.12808
2.1236
2.11907
2.11452
2.1099
2.10536
2.10096
2.09661
2.09251
2.08854
2.08449
2.17482
2.17283
2.17041
2.16824
2.16591
2.16354
2.16093
2.15812
2.15506
2.15178
2.14834
2.14478
2.14109
2.13719
2.13307
2.12877
2.12437
2.11992
2.11546
2.111
2.10671
2.10256
2.0984
2.09443
2.09054
2.08667
2.08288
2.17203
2.17004
2.1676
2.16534
2.16288
2.16038
2.15767
2.15479
2.15167
2.14835
2.14484
2.14122
2.1375
2.13361
2.12947
2.12512
2.12072
2.11634
2.112
2.10788
2.10381
2.09988
2.0962
2.0926
2.08889
2.0852
2.08152
2.16936
2.16733
2.16482
2.16242
2.1598
2.15713
2.15427
2.15128
2.14811
2.14477
2.14122
2.13755
2.1338
2.12995
2.1259
2.12162
2.11723
2.11296
2.10899
2.10512
2.10134
2.09781
2.09445
2.09102
2.08756
2.08402
2.08036
2.16666
2.16455
2.16195
2.15941
2.15662
2.15377
2.15076
2.14764
2.14441
2.14108
2.13755
2.13385
2.13007
2.12626
2.12236
2.11826
2.11408
2.11012
2.10634
2.1028
2.09947
2.09624
2.09298
2.08973
2.08645
2.08297
2.07953
2.16382
2.16161
2.15891
2.15625
2.15333
2.15036
2.14721
2.14397
2.14066
2.13731
2.13385
2.1302
2.12643
2.12267
2.1189
2.11516
2.11144
2.10774
2.10424
2.10106
2.09802
2.0949
2.09177
2.08865
2.0854
2.0822
2.07879
2.16081
2.15849
2.15571
2.15296
2.14994
2.14687
2.14362
2.14029
2.13691
2.13355
2.13017
2.12666
2.12301
2.11934
2.11583
2.11243
2.10907
2.10579
2.10269
2.09975
2.0968
2.0938
2.09076
2.08761
2.08459
2.08143
2.07823
2.15757
2.15516
2.1523
2.14947
2.14638
2.14324
2.13996
2.13661
2.13322
2.12988
2.12659
2.12327
2.11989
2.11656
2.11327
2.11011
2.10709
2.10421
2.10139
2.09855
2.09575
2.09284
2.08983
2.0869
2.08386
2.08083
2.07787
2.15412
2.15164
2.14872
2.14584
2.14273
2.13956
2.13627
2.13296
2.12966
2.12641
2.12325
2.12023
2.11725
2.11426
2.11129
2.1084
2.10566
2.10293
2.10017
2.09749
2.09476
2.09195
2.0892
2.0863
2.08338
2.08051
2.07771
2.15054
2.148
2.14504
2.14215
2.13904
2.1359
2.13267
2.12946
2.1263
2.12329
2.12044
2.11765
2.11493
2.11226
2.10962
2.10703
2.1044
2.10171
2.09911
2.09644
2.09382
2.09126
2.08861
2.08592
2.08318
2.08043
2.07771
2.14676
2.14424
2.14129
2.13845
2.13542
2.13238
2.12925
2.12623
2.12341
2.12078
2.11819
2.11563
2.11308
2.1106
2.10818
2.10568
2.10312
2.10064
2.09802
2.0955
2.09305
2.09058
2.08816
2.08576
2.08326
2.08058
2.07774
2.14294
2.14052
2.13764
2.13485
2.1319
2.12903
2.12625
2.12363
2.12109
2.11867
2.11634
2.11396
2.11157
2.10922
2.1068
2.10435
2.10201
2.09953
2.09717
2.09482
2.09243
2.0901
2.08792
2.0858
2.0835
2.08078
2.07762
2.13916
2.13684
2.13402
2.13136
2.12868
2.12622
2.12383
2.12148
2.11922
2.11702
2.11478
2.1125
2.11017
2.10781
2.1055
2.10323
2.10085
2.09869
2.09653
2.09433
2.09212
2.08994
2.08783
2.08584
2.08368
2.08082
2.07711
2.13553
2.13336
2.13077
2.12842
2.12607
2.12386
2.12174
2.11967
2.11755
2.1154
2.11324
2.11097
2.10867
2.1065
2.10433
2.10214
2.10011
2.09804
2.09605
2.09412
2.09217
2.09008
2.08793
2.08581
2.08348
2.08028
2.07579
2.13264
2.13061
2.1282
2.12602
2.12384
2.1218
2.11981
2.1178
2.11582
2.11379
2.11163
2.10944
2.10737
2.10529
2.10337
2.10151
2.0996
2.0977
2.09589
2.09422
2.09249
2.09049
2.08812
2.08552
2.08256
2.07865
2.07355
2.1303
2.12839
2.1261
2.124
2.12195
2.1199
2.11791
2.11603
2.11411
2.11209
2.1101
2.10815
2.10618
2.10443
2.10271
2.10104
2.09935
2.09773
2.09611
2.09452
2.09294
2.09087
2.08807
2.08466
2.08066
2.076
2.07065
2.12785
2.12609
2.12414
2.12212
2.11997
2.1179
2.11598
2.11418
2.1124
2.11065
2.10881
2.10706
2.10546
2.10385
2.10228
2.10082
2.09948
2.0981
2.09655
2.09495
2.09322
2.09083
2.08734
2.08292
2.07801
2.07283
2.06711
2.12557
2.12379
2.12179
2.11982
2.11787
2.11594
2.11417
2.11261
2.11109
2.10944
2.10791
2.10643
2.10497
2.10354
2.10221
2.10097
2.09983
2.09863
2.09711
2.09525
2.093
2.08985
2.0855
2.08042
2.07502
2.06924
2.063
2.12321
2.12135
2.11955
2.11773
2.11597
2.11437
2.11292
2.1115
2.11013
2.10879
2.10741
2.10605
2.1048
2.10365
2.10253
2.1014
2.10034
2.09911
2.09741
2.09497
2.09176
2.08769
2.08285
2.07747
2.07156
2.06527
2.05857
2.12117
2.11947
2.11762
2.11595
2.11463
2.11336
2.1121
2.11088
2.10965
2.1084
2.10717
2.10605
2.10503
2.10412
2.10314
2.10205
2.10077
2.09922
2.09688
2.09358
2.0895
2.08491
2.0797
2.07385
2.06756
2.06089
2.05388
2.11912
2.11756
2.11618
2.1149
2.11373
2.11271
2.11167
2.11054
2.10939
2.10831
2.10732
2.10643
2.10564
2.10484
2.10391
2.1026
2.1008
2.09838
2.09514
2.09115
2.0867
2.08162
2.07593
2.06972
2.06308
2.05615
2.04904
2.11713
2.11625
2.11518
2.11429
2.11337
2.11238
2.11138
2.11042
2.10949
2.10863
2.10791
2.10721
2.1065
2.10563
2.10446
2.1025
2.09976
2.09634
2.09246
2.08816
2.08323
2.07772
2.07164
2.06512
2.05827
2.05127
2.04438
2.11622
2.11569
2.11502
2.11415
2.11322
2.11236
2.11147
2.11064
2.10996
2.10938
2.1088
2.10817
2.10726
2.10604
2.10407
2.10121
2.09759
2.09359
2.08922
2.08441
2.0791
2.07325
2.06691
2.06021
2.05336
2.04665
2.04025
2.11707
2.11618
2.11514
2.1143
2.11348
2.11268
2.11193
2.11131
2.11077
2.11033
2.10977
2.10892
2.10746
2.10532
2.10243
2.09885
2.09479
2.09022
2.08528
2.08
2.07437
2.06834
2.06194
2.05535
2.04887
2.04261
2.03645
2.11821
2.11701
2.11583
2.11492
2.11412
2.11347
2.11287
2.11229
2.1118
2.1112
2.11035
2.10872
2.1064
2.1034
2.09991
2.09586
2.09121
2.08612
2.08071
2.07506
2.06925
2.06326
2.05716
2.05108
2.04498
2.03888
2.03304
2.11924
2.11798
2.11677
2.1159
2.11519
2.11462
2.11418
2.11354
2.11272
2.11143
2.10964
2.10722
2.10424
2.1008
2.09671
2.09204
2.08688
2.08138
2.07568
2.06988
2.06413
2.05857
2.05306
2.0473
2.04137
2.03569
2.03049
2.12016
2.11897
2.11783
2.11693
2.11634
2.11587
2.11536
2.11435
2.11254
2.11033
2.10764
2.1047
2.10128
2.09727
2.09265
2.08752
2.08201
2.07629
2.07049
2.06488
2.05966
2.05462
2.04928
2.04373
2.03842
2.03345
2.02865
2.12107
2.11989
2.11902
2.11831
2.11756
2.11669
2.11527
2.11346
2.11098
2.10809
2.10488
2.1012
2.09715
2.09273
2.08787
2.08257
2.07695
2.07125
2.06576
2.06066
2.0558
2.05078
2.04578
2.04108
2.03649
2.03175
2.02674
2.12187
2.12096
2.12018
2.11933
2.11768
2.11582
2.11372
2.11125
2.10842
2.10496
2.10101
2.0967
2.09215
2.08748
2.08263
2.07752
2.07222
2.06695
2.06186
2.0568
2.05187
2.04744
2.0435
2.03946
2.03482
2.02967
2.0248
2.12231
2.12149
2.11996
2.11827
2.11617
2.11375
2.1113
2.10832
2.1047
2.10059
2.09614
2.09142
2.08665
2.08209
2.07761
2.073
2.06826
2.06323
2.05798
2.05289
2.04877
2.04556
2.04216
2.03775
2.03254
2.02758
2.02394
2.12106
2.11961
2.11778
2.11585
2.11384
2.11131
2.10808
2.10429
2.10004
2.09539
2.09045
2.08571
2.0816
2.07767
2.07357
2.0692
2.06439
2.05914
2.05405
2.05016
2.04744
2.04459
2.04047
2.03529
2.03027
2.0267
2.02497
2.11828
2.11656
2.11497
2.11327
2.11075
2.10746
2.10364
2.09938
2.09454
2.08936
2.08476
2.08124
2.07796
2.07425
2.07
2.06522
2.05995
2.05513
2.05167
2.04945
2.04698
2.043
2.0379
2.03295
2.02947
2.02787
2.02705
2.11565
2.11447
2.11269
2.11009
2.10666
2.1027
2.09829
2.09332
2.08826
2.08416
2.08117
2.07833
2.07488
2.07072
2.06583
2.06057
2.05609
2.05317
2.05152
2.04941
2.04549
2.04049
2.03563
2.03232
2.03095
2.03046
2.02714
2.11463
2.1124
2.10931
2.10574
2.10159
2.09675
2.09166
2.0872
2.0839
2.08139
2.0788
2.07542
2.07117
2.06617
2.06111
2.05709
2.05472
2.05355
2.05174
2.04798
2.04304
2.03832
2.0352
2.03405
2.03392
2.03072
2.02525
2.11225
2.10888
2.1049
2.1001
2.09475
2.09014
2.08668
2.08402
2.08177
2.07915
2.07571
2.07137
2.06629
2.06155
2.05808
2.05635
2.05559
2.05397
2.05026
2.04551
2.04105
2.03805
2.03686
2.03703
2.03424
2.02904
2.02214
2.10799
2.10335
2.09761
2.09268
2.08909
2.08666
2.08478
2.08256
2.07945
2.07562
2.07106
2.0661
2.06195
2.05915
2.05799
2.05758
2.05606
2.0524
2.04783
2.04378
2.04089
2.03952
2.03965
2.03713
2.03229
2.0259
2.01974
2.0993
2.09498
2.09125
2.08858
2.08707
2.08574
2.08318
2.07976
2.07553
2.07051
2.06572
2.06216
2.06026
2.05967
2.05951
2.05799
2.05439
2.05008
2.04647
2.04368
2.04227
2.04206
2.0393
2.03452
2.02856
2.02287
2.01792
2.09378
2.09097
2.08878
2.08777
2.08613
2.0835
2.07969
2.0749
2.06995
2.06576
2.06271
2.06127
2.06122
2.06125
2.0597
2.05632
2.05245
2.04916
2.04641
2.04493
2.0444
2.04128
2.03633
2.03045
2.02504
2.02035
2.01643
2.09136
2.09042
2.08892
2.08654
2.08308
2.07868
2.0741
2.06998
2.06661
2.06407
2.06271
2.06252
2.06254
2.06115
2.05811
2.05484
2.05179
2.04903
2.04746
2.04655
2.04333
2.03834
2.03253
2.02741
2.02272
2.0185
2.015
2.09192
2.08967
2.08623
2.08214
2.0778
2.07375
2.07034
2.06759
2.06553
2.06439
2.06404
2.06375
2.06219
2.05969
2.05713
2.05417
2.05143
2.0497
2.04826
2.0453
2.04059
2.0354
2.03052
2.02573
2.02122
2.01711
2.01287
2.08916
2.08505
2.08062
2.07673
2.0735
2.07086
2.06869
2.06699
2.06587
2.06553
2.06515
2.0636
2.06134
2.05887
2.05632
2.05393
2.05171
2.04948
2.04649
2.04243
2.03787
2.03336
2.02901
2.02473
2.02042
2.01577
2.01028
2.08138
2.07872
2.07608
2.07367
2.07159
2.06997
2.06875
2.06787
2.06708
2.06626
2.06525
2.0632
2.06048
2.05802
2.05589
2.05352
2.0505
2.04708
2.04341
2.03933
2.03535
2.0315
2.02772
2.02388
2.01965
2.01458
2.0088
2.07631
2.07514
2.07384
2.07261
2.07126
2.0702
2.06935
2.0686
2.06759
2.06651
2.06476
2.06226
2.05966
2.05745
2.0549
2.05144
2.048
2.04442
2.0406
2.03679
2.03307
2.02946
2.02588
2.02238
2.01901
2.01458
2.00921
2.07332
2.07288
2.07228
2.07171
2.07089
2.07026
2.06968
2.06886
2.068
2.06627
2.06373
2.06093
2.05855
2.05582
2.05262
2.0493
2.0457
2.042
2.03836
2.03484
2.03122
2.0274
2.0237
2.02074
2.01846
2.01519
2.01064
2.07078
2.07105
2.07132
2.07169
2.0715
2.07088
2.07033
2.06876
2.06692
2.06478
2.0621
2.05927
2.05631
2.05352
2.05045
2.04712
2.04369
2.04019
2.03675
2.0335
2.03011
2.02615
2.0226
2.01996
2.01842
2.01612
2.01242
2.06914
2.07111
2.07207
2.07218
2.07198
2.07111
2.06936
2.06718
2.06502
2.06264
2.05965
2.05683
2.05401
2.05101
2.04798
2.04495
2.04189
2.03872
2.03558
2.0327
2.0296
2.02584
2.02179
2.01875
2.01743
2.01665
2.01383
2.06627
2.06924
2.07051
2.07128
2.07061
2.06907
2.06713
2.06506
2.0624
2.05966
2.05711
2.05435
2.05147
2.04848
2.04553
2.04282
2.04025
2.03766
2.03507
2.03271
2.0301
2.02647
2.02216
2.01893
2.01706
2.01658
2.01455
2.05998
2.06745
2.07007
2.07031
2.06896
2.06686
2.06457
2.06217
2.05989
2.05735
2.05462
2.05179
2.04898
2.0463
2.04363
2.04121
2.03904
2.03716
2.03522
2.03327
2.03099
2.02747
2.02318
2.01978
2.01735
2.01586
2.01417
2.06427
2.06663
2.06721
2.0673
2.06651
2.06444
2.06221
2.05988
2.05746
2.05502
2.05236
2.04966
2.04719
2.04487
2.0426
2.04073
2.03912
2.03667
2.03449
2.03308
2.03156
2.0284
2.02419
2.02055
2.01754
2.01511
2.013
2.06936
2.0691
2.06816
2.06651
2.0646
2.06235
2.05982
2.05733
2.05495
2.0528
2.05069
2.04838
2.04601
2.04396
2.04253
2.04154
2.03959
2.03627
2.03369
2.03243
2.03193
2.02919
2.02524
2.02135
2.01776
2.01462
2.01201
2.07499
2.07065
2.06728
2.06485
2.06267
2.06033
2.05787
2.05546
2.05313
2.05097
2.04943
2.04788
2.04623
2.04484
2.04393
2.04295
2.04033
2.03657
2.03343
2.03141
2.03081
2.02909
2.02542
2.02143
2.01761
2.01399
2.01099
2.07586
2.07124
2.06754
2.06449
2.06172
2.0591
2.05667
2.05403
2.05158
2.04978
2.04935
2.04901
2.04728
2.04537
2.04464
2.04359
2.04061
2.03655
2.03299
2.03036
2.02885
2.02769
2.02477
2.02097
2.01694
2.01306
2.00982
2.07589
2.07066
2.06659
2.06336
2.0605
2.05782
2.05554
2.05321
2.0514
2.05043
2.04999
2.04878
2.0469
2.04567
2.04503
2.04376
2.04037
2.03621
2.03259
2.02956
2.02737
2.02608
2.02373
2.01981
2.01568
2.01186
2.00853
2.07244
2.06782
2.06437
2.06151
2.05964
2.05791
2.05619
2.05437
2.05269
2.052
2.05129
2.04905
2.04659
2.04488
2.04412
2.04296
2.03957
2.03554
2.03181
2.02853
2.02622
2.02502
2.02223
2.01821
2.01414
2.01059
2.00718
2.0673
2.06387
2.06139
2.06011
2.05917
2.05874
2.05679
2.05433
2.05351
2.0539
2.05299
2.04992
2.04647
2.04346
2.04139
2.04042
2.03791
2.03413
2.03047
2.02743
2.02553
2.02395
2.02062
2.0165
2.0126
2.0094
2.00582
2.05918
2.05765
2.0576
2.05757
2.0583
2.05791
2.05645
2.05488
2.05499
2.05539
2.05316
2.04911
2.04483
2.04087
2.03818
2.03765
2.03572
2.03218
2.02881
2.02624
2.02477
2.02268
2.019
2.01474
2.01103
2.00812
2.00456
2.04796
2.04939
2.05167
2.05444
2.0565
2.05593
2.05514
2.055
2.05527
2.05492
2.05193
2.04754
2.04276
2.03849
2.0363
2.03596
2.03329
2.02993
2.02691
2.02492
2.02388
2.02143
2.01747
2.01327
2.00971
2.00699
2.00344
2.03436
2.03808
2.04508
2.05203
2.05404
2.05221
2.05196
2.05263
2.05439
2.05385
2.04967
2.04433
2.03943
2.03591
2.0355
2.03414
2.03141
2.02785
2.02538
2.02412
2.02313
2.02026
2.01604
2.01198
2.00859
2.00606
2.00236
2.0157
2.02614
2.03927
2.04714
2.04783
2.0485
2.04883
2.05006
2.05265
2.05069
2.04543
2.03983
2.03562
2.03436
2.03483
2.03291
2.02966
2.02615
2.02415
2.0235
2.0223
2.01903
2.01463
2.01069
2.00763
2.0052
2.00123
1.99698
2.01676
2.03198
2.04004
2.04286
2.04395
2.04558
2.04964
2.04981
2.04538
2.03945
2.03476
2.03303
2.03438
2.03398
2.03177
2.0277
2.02489
2.0235
2.0233
2.02131
2.01754
2.0131
2.00933
2.00671
2.00428
2.0001
1.97544
2.01242
2.02411
2.02852
2.03248
2.03697
2.04392
2.04826
2.04512
2.03866
2.0328
2.03111
2.03266
2.0346
2.03342
2.02995
2.02581
2.02378
2.02331
2.023
2.02003
2.01568
2.01145
2.00804
2.00609
2.00327
1.99879
1.93683
2.01148
2.02059
2.02067
2.02588
2.03405
2.04323
2.04413
2.0391
2.03137
2.02881
2.02968
2.03358
2.03411
2.03225
2.02742
2.02441
2.02309
2.02356
2.02203
2.01831
2.01361
2.00972
2.00713
2.00578
2.00225
1.99754
1.83917
1.99573
2.01258
2.01797
2.02662
2.03717
2.04131
2.03725
2.02927
2.02614
2.02731
2.03204
2.03462
2.03366
2.02937
2.02523
2.02349
2.02356
2.02362
2.02054
2.01602
2.01155
2.00824
2.00684
2.00517
2.00115
1.99636
1.65787
1.91203
1.99304
2.01849
2.03263
2.03844
2.03581
2.02749
2.02252
2.02413
2.02938
2.03517
2.03531
2.03177
2.02608
2.02384
2.02329
2.0245
2.02258
2.01874
2.01369
2.00989
2.00746
2.00675
2.00405
1.9998
1.9952
1.49643
1.71337
1.93585
2.01956
2.03904
2.03456
2.02404
2.01804
2.02108
2.0272
2.03519
2.03651
2.03392
2.02736
2.02444
2.02334
2.02478
2.02401
2.02064
2.01586
2.01191
2.00921
2.0082
2.00628
2.00244
1.99813
1.99391
1.4359
1.50304
1.75605
1.97123
2.02899
2.02288
2.01365
2.01599
2.02449
2.03599
2.03872
2.03586
2.02789
2.0245
2.02366
2.02578
2.02599
2.02258
2.01724
2.01303
2.01058
2.01008
2.00917
2.00541
2.00059
1.9964
1.99297
1.41877
1.4263
1.52036
1.80463
1.99216
2.00789
2.01174
2.02043
2.03528
2.04111
2.03863
2.02906
2.0238
2.02271
2.02569
2.02826
2.02553
2.01977
2.01404
2.01126
2.01058
2.01093
2.00813
2.00386
1.99935
1.99557
1.99306
1.41111
1.4117
1.42194
1.54284
1.82612
1.9689
2.01324
2.03702
2.04331
2.04055
2.03132
2.02388
2.02279
2.02531
2.02977
2.02758
2.02196
2.01542
2.01265
2.01208
2.01259
2.0097
2.00561
2.0015
1.9983
1.99622
1.99412
1.40599
1.40651
1.40728
1.42052
1.52712
1.76939
1.95448
2.031
2.03873
2.02928
2.02423
2.025
2.0305
2.03299
2.02946
)
;

boundaryField
{
    inlet
    {
        type            calculated;
        value           nonuniform 0();
    }
    outlet
    {
        type            calculated;
        value           nonuniform 0();
    }
    triangle
    {
        type            calculated;
        value           nonuniform List<scalar> 
16
(
2.35373
2.34656
2.33956
2.33268
2.32589
2.31917
2.31248
2.30578
2.29907
2.2923
2.28544
2.27847
2.27135
2.26406
2.25656
2.24883
)
;
    }
    top
    {
        type            symmetryPlane;
    }
    bottom
    {
        type            symmetryPlane;
    }
    defaultFaces
    {
        type            empty;
    }
    procBoundary19to11
    {
        type            processor;
        value           nonuniform List<scalar> 
16
(
2.37685
2.36879
2.36112
2.36112
2.37947
2.37179
2.37179
2.40108
2.39265
2.39265
2.42362
2.41359
2.40607
2.40607
2.42035
2.42035
)
;
    }
    procBoundary19to18
    {
        type            processor;
        value           nonuniform List<scalar> 
115
(
2.41981
2.40725
2.39574
2.38554
2.37611
2.36749
2.35944
2.35196
2.34492
2.33827
2.33193
2.32586
2.31999
2.31429
2.30882
2.30381
2.29926
2.29468
2.28984
2.28497
2.28014
2.27533
2.27053
2.26569
2.26083
2.25637
2.2523
2.24838
2.24451
2.24071
2.23695
2.23325
2.22958
2.22595
2.22235
2.21879
2.21526
2.21178
2.20834
2.20496
2.20164
2.19839
2.19522
2.19212
2.18908
2.18609
2.18318
2.18033
2.17751
2.17474
2.17205
2.16937
2.16658
2.16362
2.16046
2.1571
2.15359
2.14981
2.14589
2.14198
2.1382
2.13522
2.13271
2.12993
2.12731
2.12478
2.12237
2.1201
2.11784
2.11718
2.11826
2.12059
2.12225
2.12347
2.12432
2.12437
2.12382
2.12203
2.11887
2.11639
2.11607
2.11602
2.11265
2.10449
2.09788
2.0948
2.09473
2.09306
2.08476
2.07844
2.0747
2.07114
2.06675
2.06126
2.05181
2.06085
2.07253
2.08433
2.087
2.08647
2.08119
2.07272
2.06053
2.03984
2.01227
1.97425
1.92222
1.84924
1.74442
1.61528
1.51109
1.45572
1.43018
1.41755
1.4101
)
;
    }
    procBoundary19to20
    {
        type            processor;
        value           nonuniform List<scalar> 
120
(
2.24084
2.23385
2.23575
2.23478
2.23391
2.2324
2.23022
2.2272
2.2237
2.21987
2.21598
2.21208
2.20828
2.20457
2.20097
2.19744
2.19397
2.19051
2.18706
2.18361
2.18018
2.17675
2.17334
2.16993
2.16653
2.16315
2.15979
2.15644
2.15306
2.14962
2.14616
2.14271
2.13931
2.13596
2.13263
2.12929
2.12594
2.12259
2.11928
2.11601
2.11279
2.10961
2.10649
2.10344
2.10048
2.09758
2.09468
2.0919
2.08901
2.08637
2.08405
2.08206
2.08043
2.07893
2.07775
2.07674
2.07586
2.07528
2.07498
2.07489
2.07491
2.07489
2.07464
2.07392
2.0725
2.07031
2.06765
2.0645
2.06059
2.05618
2.05145
2.04663
2.04197
2.03778
2.03395
2.03046
2.02769
2.02562
2.02378
2.0219
2.02098
2.02187
2.0235
2.02365
2.02172
2.01849
2.0157
2.01447
2.01378
2.01345
2.0114
2.00795
2.00494
2.00387
2.00429
2.00599
2.00801
2.00982
2.01072
2.01072
2.00993
2.00892
2.00759
2.00596
2.00415
2.00243
2.00099
1.99982
1.99875
1.99766
1.9966
1.99551
1.99424
1.99294
1.99176
1.99095
1.99063
1.99088
1.99101
1.99006
)
;
    }
    procBoundary19to26
    {
        type            processor;
        value           uniform 1.40523;
    }
    procBoundary19to27
    {
        type            processor;
        value           nonuniform List<scalar> 
28
(
2.02159
2.01489
2.01276
2.01426
2.01541
2.01224
2.00665
2.00192
1.99927
1.99891
1.99742
1.99326
1.4026
1.40307
1.40329
1.40361
1.41061
1.47788
1.68872
1.91824
2.01012
2.01489
2.02005
2.0306
2.03721
2.03427
2.02159
2.0261
)
;
    }
}


// ************************************************************************* //
