/*--------------------------------*- C++ -*----------------------------------*\
  =========                 |
  \\      /  F ield         | OpenFOAM: The Open Source CFD Toolbox
   \\    /   O peration     | Website:  https://openfoam.org
    \\  /    A nd           | Version:  8
     \\/     M anipulation  |
\*---------------------------------------------------------------------------*/
FoamFile
{
    version     2.0;
    format      ascii;
    class       volScalarField;
    location    "1";
    object      p;
}
// * * * * * * * * * * * * * * * * * * * * * * * * * * * * * * * * * * * * * //

dimensions      [1 -1 -2 0 0 0 0];

internalField   nonuniform List<scalar> 
2600
(
0.564451
0.511432
0.486404
0.491177
0.559662
0.670373
0.950948
1.28879
1.34784
1.28768
0.570715
0.502944
0.480633
0.496142
0.569794
0.669381
0.953762
1.29476
1.3596
1.29138
0.572901
0.499401
0.478115
0.503359
0.581264
0.668396
0.958665
1.29678
1.3715
1.29528
0.574549
0.495432
0.476145
0.508249
0.587893
0.666079
0.962172
1.30483
1.38603
1.3025
0.575785
0.492691
0.474602
0.5109
0.596661
0.667843
0.959941
1.31216
1.39886
1.31011
0.576973
0.491968
0.473212
0.51149
0.599018
0.667388
0.960729
1.3152
1.40622
1.30954
0.577486
0.490383
0.472255
0.511346
0.602671
0.669698
0.963572
1.32235
1.41033
1.30885
0.578484
0.49302
0.471207
0.511367
0.604616
0.672061
0.967067
1.32547
1.41401
1.3132
0.578786
0.493878
0.470425
0.511582
0.605155
0.672322
0.970281
1.32878
1.41375
1.31426
0.579413
0.495159
0.471243
0.511251
0.605084
0.673079
0.971147
1.32782
1.41238
1.31011
0.579402
0.495328
0.47102
0.511183
0.605115
0.673058
0.971123
1.32817
1.41659
1.31655
0.578758
0.493994
0.470489
0.511569
0.605306
0.672522
0.970362
1.32909
1.41824
1.31279
0.578465
0.492852
0.471033
0.511327
0.604691
0.672135
0.967167
1.32569
1.41313
1.31317
0.577601
0.490187
0.471828
0.511376
0.60283
0.669793
0.963619
1.32236
1.40676
1.31628
0.577109
0.492123
0.473216
0.511516
0.599121
0.667458
0.960535
1.31458
1.40638
1.31027
0.575852
0.492865
0.474837
0.510924
0.596782
0.667915
0.959784
1.31231
1.40154
1.3044
0.57453
0.495355
0.47607
0.508182
0.587995
0.666179
0.962166
1.30532
1.38578
1.29936
0.572799
0.499262
0.477929
0.503301
0.581395
0.668515
0.958462
1.29643
1.37043
1.29774
0.57075
0.502923
0.480448
0.496247
0.569985
0.669502
0.953566
1.29433
1.3591
1.29378
0.56448
0.511468
0.486463
0.491354
0.559738
0.67045
0.950922
1.2886
1.34804
1.28792
0.660184
0.512855
0.496446
0.486126
0.547794
0.672316
0.945934
1.27889
1.33025
1.28061
0.762471
0.525206
0.521782
0.486631
0.533353
0.674531
0.93655
1.26236
1.30783
1.27158
0.858567
0.548741
0.536569
0.489625
0.521715
0.675198
0.937141
1.2474
1.28222
1.26108
0.935715
0.589792
0.546606
0.494078
0.518226
0.67561
0.942112
1.23735
1.25673
1.24836
1.00373
0.643486
0.554679
0.496974
0.518558
0.674595
0.943175
1.22917
1.23275
1.23411
1.0603
0.698332
0.566449
0.500848
0.52257
0.671715
0.939398
1.21924
1.20835
1.21788
1.11019
0.753173
0.584705
0.505896
0.530624
0.667199
0.931913
1.20947
1.18154
1.19886
1.15338
0.804111
0.605589
0.512383
0.542627
0.661565
0.920824
1.19887
1.15615
1.177
1.19106
0.85204
0.630901
0.522251
0.558301
0.654894
0.905736
1.18829
1.14063
1.15372
1.22462
0.895135
0.656153
0.536191
0.57811
0.649058
0.887932
1.17771
1.1307
1.12971
1.25451
0.933836
0.683758
0.557192
0.599457
0.644992
0.865848
1.16724
1.1253
1.10536
1.28133
0.967935
0.711522
0.583282
0.621133
0.643394
0.838707
1.15622
1.12331
1.08391
1.30543
0.997586
0.740272
0.617196
0.643993
0.643751
0.811703
1.14305
1.12108
1.07027
1.32656
1.02393
0.769235
0.655053
0.667749
0.646571
0.785323
1.12585
1.11681
1.06186
1.34525
1.0469
0.799119
0.697954
0.690778
0.65286
0.760966
1.10701
1.11047
1.05508
1.36098
1.06784
0.830077
0.743389
0.71339
0.659748
0.74039
1.08515
1.10351
1.05036
1.37457
1.08703
0.862558
0.790862
0.736042
0.66786
0.723744
1.06018
1.0941
1.04646
1.38582
1.10563
0.897325
0.837235
0.759463
0.675812
0.712337
1.03416
1.08589
1.04209
1.39541
1.12447
0.934612
0.88122
0.784993
0.68607
0.706514
1.00714
1.07826
1.03681
1.40372
1.14448
0.9747
0.92162
0.811555
0.695294
0.704756
0.979903
1.07074
1.031
2.72887
2.59212
2.49713
2.40408
2.31311
2.22434
2.1316
2.03097
1.89335
1.73461
2.54416
2.41431
2.35275
2.28502
2.21678
2.14321
2.06074
1.96132
1.82313
1.62636
2.48222
2.38452
2.33196
2.26599
2.20229
2.13316
2.05302
1.95252
1.81449
1.61863
2.4008
2.32734
2.28413
2.22441
2.16778
2.10122
2.02256
1.92224
1.78832
1.591
2.32744
2.27167
2.23825
2.18573
2.134
2.06953
1.99354
1.89557
1.76715
1.57251
2.25799
2.21636
2.18943
2.14435
2.09893
2.03825
1.96598
1.87042
1.74738
1.55968
2.19783
2.16865
2.14704
2.10811
2.06684
2.00876
1.94007
1.84746
1.73023
1.55342
2.15029
2.12854
2.10949
2.07427
2.0357
1.98032
1.91542
1.82637
1.71541
1.55081
2.11531
2.09593
2.07745
2.04416
2.0073
1.95436
1.89292
1.80758
1.70296
1.55056
2.08763
2.06644
2.04742
2.0157
1.98044
1.93007
1.87202
1.79067
1.69242
1.55158
2.06182
2.0394
2.02055
1.99025
1.95623
1.90818
1.85309
1.77582
1.68342
1.55308
2.03662
2.01392
1.99542
1.96638
1.93361
1.88794
1.83564
1.76256
1.67554
1.5551
2.0122
1.98997
1.97195
1.94413
1.91265
1.86925
1.81951
1.75061
1.66876
1.55756
1.98862
1.96742
1.95001
1.92337
1.89323
1.85203
1.80469
1.73971
1.66264
1.55995
1.96634
1.94659
1.92986
1.90429
1.87532
1.8362
1.79099
1.72967
1.6571
1.56217
1.94525
1.92728
1.91129
1.88691
1.85909
1.82206
1.7789
1.72099
1.65231
1.56427
1.9258
1.90974
1.89467
1.87175
1.84495
1.80973
1.76819
1.71307
1.6481
1.5665
1.9079
1.89334
1.87937
1.85803
1.83226
1.79895
1.75927
1.70687
1.64491
1.56852
1.89143
1.87837
1.86537
1.84589
1.82102
1.78903
1.75075
1.70098
1.6425
1.57088
1.87695
1.86436
1.85154
1.83312
1.81024
1.78035
1.74409
1.697
1.64111
1.57315
1.01071
1.04066
1.1117
1.19155
1.20883
1.20727
1.1989
1.20428
1.7651
2.20178
1.01071
1.04066
1.1117
1.19155
1.20883
1.20728
1.19894
1.20395
1.76293
2.19165
1.01071
1.04066
1.1117
1.19155
1.20883
1.20728
1.19901
1.20326
1.75982
2.17685
1.01071
1.04066
1.11171
1.19155
1.20882
1.20729
1.19911
1.20219
1.75536
2.15943
1.01071
1.04066
1.11171
1.19155
1.20882
1.2073
1.19921
1.20077
1.74964
2.1417
1.01071
1.04066
1.11171
1.19155
1.20881
1.20732
1.19925
1.19911
1.74244
2.12324
1.01071
1.04066
1.11171
1.19155
1.2088
1.20735
1.19926
1.19723
1.73363
2.10461
1.01071
1.04066
1.11171
1.19156
1.2088
1.20736
1.19934
1.1951
1.72299
2.08504
1.01071
1.04066
1.11172
1.19156
1.20878
1.20738
1.19941
1.19287
1.71067
2.06502
1.01071
1.04066
1.11172
1.19157
1.20877
1.20739
1.19947
1.19071
1.69666
2.045
1.01071
1.04066
1.11172
1.19157
1.20875
1.20741
1.1995
1.18873
1.68124
2.02532
1.01071
1.04066
1.11173
1.19158
1.20873
1.20742
1.19953
1.18703
1.66458
2.00595
1.01071
1.04066
1.11173
1.19159
1.20871
1.20743
1.19958
1.18565
1.64683
1.98698
1.01071
1.04066
1.11173
1.1916
1.20869
1.20744
1.19964
1.18484
1.62798
1.96849
1.01071
1.04066
1.11174
1.1916
1.20866
1.20745
1.19971
1.18444
1.60826
1.95073
1.01071
1.04066
1.11174
1.19161
1.20863
1.20746
1.19978
1.1842
1.58794
1.93346
1.01071
1.04066
1.11175
1.19162
1.20861
1.20746
1.19984
1.18406
1.56718
1.91682
1.01071
1.04066
1.11175
1.19163
1.20858
1.20747
1.19988
1.18403
1.54609
1.90044
1.01071
1.04066
1.11176
1.19164
1.20855
1.20747
1.1999
1.18406
1.52494
1.88408
1.01071
1.04066
1.11176
1.19165
1.20853
1.20748
1.1999
1.18413
1.50386
1.86817
1.01071
1.04066
1.11176
1.19165
1.20853
1.20748
1.1999
1.18413
1.50386
1.86817
1.01071
1.04066
1.11176
1.19164
1.20855
1.20747
1.1999
1.18406
1.52494
1.88408
1.01071
1.04066
1.11175
1.19163
1.20858
1.20747
1.19988
1.18403
1.54609
1.90044
1.01071
1.04066
1.11175
1.19162
1.20861
1.20746
1.19984
1.18406
1.56718
1.91682
1.01071
1.04066
1.11174
1.19161
1.20863
1.20746
1.19978
1.1842
1.58794
1.93346
1.01071
1.04066
1.11174
1.1916
1.20866
1.20745
1.19971
1.18444
1.60826
1.95073
1.01071
1.04066
1.11173
1.1916
1.20869
1.20744
1.19964
1.18484
1.62798
1.96849
1.01071
1.04066
1.11173
1.19159
1.20871
1.20743
1.19958
1.18565
1.64683
1.98698
1.01071
1.04066
1.11173
1.19158
1.20873
1.20742
1.19953
1.18703
1.66457
2.00595
1.01071
1.04066
1.11172
1.19157
1.20875
1.20741
1.1995
1.18873
1.68124
2.02532
1.01071
1.04066
1.11172
1.19157
1.20877
1.20739
1.19947
1.19071
1.69666
2.045
1.01071
1.04066
1.11172
1.19156
1.20878
1.20738
1.19941
1.19287
1.71067
2.06502
1.01071
1.04066
1.11171
1.19156
1.2088
1.20736
1.19934
1.1951
1.72299
2.08504
1.01071
1.04066
1.11171
1.19155
1.2088
1.20735
1.19926
1.19723
1.73363
2.10461
1.01071
1.04066
1.11171
1.19155
1.20881
1.20732
1.19925
1.19911
1.74244
2.12324
1.01071
1.04066
1.11171
1.19155
1.20882
1.2073
1.19921
1.20077
1.74964
2.1417
1.01071
1.04066
1.11171
1.19155
1.20882
1.20729
1.19911
1.20219
1.75536
2.15943
1.01071
1.04066
1.1117
1.19155
1.20883
1.20728
1.19901
1.20326
1.75982
2.17685
1.01071
1.04066
1.1117
1.19155
1.20883
1.20728
1.19894
1.20395
1.76293
2.19165
1.01071
1.04066
1.1117
1.19155
1.20883
1.20727
1.1989
1.20428
1.7651
2.20178
1.87695
1.86436
1.85154
1.83312
1.81024
1.78035
1.74409
1.697
1.64111
1.57314
1.89143
1.87837
1.86537
1.84589
1.82102
1.78903
1.75075
1.70098
1.6425
1.57088
1.9079
1.89334
1.87937
1.85803
1.83226
1.79895
1.75927
1.70687
1.64491
1.56852
1.9258
1.90974
1.89467
1.87175
1.84495
1.80973
1.76819
1.71307
1.6481
1.5665
1.94525
1.92728
1.91129
1.88691
1.85909
1.82206
1.7789
1.72099
1.65231
1.56427
1.96633
1.94659
1.92986
1.90429
1.87532
1.8362
1.79099
1.72967
1.6571
1.56218
1.98862
1.96741
1.95001
1.92337
1.89323
1.85203
1.80469
1.73971
1.66264
1.55995
2.0122
1.98997
1.97195
1.94413
1.91265
1.86925
1.81951
1.75061
1.66876
1.55756
2.03662
2.01392
1.99542
1.96638
1.93361
1.88794
1.83564
1.76257
1.67554
1.5551
2.06182
2.0394
2.02055
1.99025
1.95623
1.90818
1.85309
1.77583
1.68343
1.55307
2.08763
2.06644
2.04741
2.0157
1.98044
1.93007
1.87203
1.79067
1.69242
1.55156
2.11531
2.09593
2.07745
2.04416
2.0073
1.95436
1.89292
1.80758
1.70296
1.55054
2.15029
2.12854
2.10949
2.07427
2.0357
1.98032
1.91542
1.82637
1.7154
1.5508
2.19783
2.16865
2.14704
2.10811
2.06685
2.00876
1.94007
1.84746
1.73022
1.55342
2.25799
2.21636
2.18943
2.14435
2.09893
2.03825
1.96598
1.87042
1.74737
1.55967
2.32744
2.27167
2.23825
2.18573
2.134
2.06953
1.99354
1.89557
1.76714
1.5725
2.4008
2.32734
2.28413
2.22441
2.16778
2.10122
2.02256
1.92224
1.78832
1.59098
2.48222
2.38452
2.33196
2.26599
2.20229
2.13316
2.05302
1.95252
1.81449
1.61862
2.54416
2.41431
2.35275
2.28502
2.21678
2.14321
2.06074
1.96132
1.82313
1.62635
2.72887
2.59212
2.49713
2.40408
2.31311
2.22434
2.1316
2.03097
1.89335
1.73461
1.40372
1.14449
0.974687
0.921653
0.811586
0.695295
0.704681
0.979734
1.07072
1.03098
1.39542
1.12448
0.934615
0.881202
0.785029
0.686059
0.706421
1.00703
1.0783
1.03682
1.38583
1.10563
0.897344
0.837161
0.759488
0.675827
0.712317
1.0342
1.08592
1.04229
1.37457
1.08703
0.86258
0.790759
0.736059
0.66792
0.723839
1.06032
1.09434
1.04636
1.36097
1.06781
0.830088
0.743306
0.713397
0.659841
0.740584
1.08533
1.10406
1.05041
1.34525
1.04687
0.79912
0.697954
0.690764
0.652939
0.761171
1.10725
1.11065
1.05519
1.32656
1.02391
0.769228
0.655146
0.667718
0.646598
0.78544
1.1261
1.1168
1.06189
1.30543
0.99758
0.74027
0.617316
0.643918
0.643682
0.81172
1.14303
1.12092
1.07022
1.2813
0.967955
0.711529
0.583357
0.621059
0.643265
0.838634
1.15604
1.1231
1.08388
1.25447
0.933881
0.683766
0.55717
0.599442
0.644869
0.86569
1.16699
1.12513
1.10534
1.22457
0.895183
0.656172
0.536083
0.578091
0.648998
0.88779
1.17757
1.13066
1.12968
1.19104
0.852056
0.630932
0.52215
0.558208
0.65484
0.905746
1.18833
1.14066
1.15369
1.15338
0.804074
0.605604
0.5123
0.542493
0.661478
0.920992
1.19899
1.15625
1.17705
1.1102
0.753085
0.584696
0.505849
0.530515
0.667108
0.932054
1.20951
1.18157
1.19896
1.0603
0.698256
0.566437
0.500844
0.522517
0.671642
0.93954
1.21924
1.20831
1.21787
1.00368
0.643516
0.554683
0.496966
0.518556
0.674577
0.943216
1.22912
1.23274
1.2339
0.935648
0.589911
0.546633
0.494042
0.518213
0.675648
0.942032
1.23733
1.25682
1.24806
0.858525
0.548819
0.536697
0.489634
0.521658
0.675243
0.937187
1.24738
1.28228
1.26092
0.76247
0.525219
0.521957
0.486735
0.533406
0.67454
0.936944
1.26214
1.30761
1.27209
0.660192
0.512856
0.496381
0.486137
0.547854
0.672292
0.945891
1.27872
1.32987
1.28144
1.84624
1.72047
1.57087
1.41415
1.24975
1.08677
0.911395
0.740803
0.736651
0.844634
1.84275
1.7174
1.56708
1.41092
1.2466
1.08354
0.908156
0.741284
0.741655
0.847636
1.84584
1.72054
1.56545
1.40615
1.24178
1.07847
0.903155
0.741685
0.73832
0.847485
1.84636
1.71938
1.56082
1.40003
1.23529
1.07145
0.896149
0.742646
0.738826
0.850412
1.8465
1.71596
1.55546
1.39287
1.22726
1.06262
0.88736
0.743557
0.741045
0.855823
1.84477
1.71107
1.54908
1.38388
1.21743
1.05175
0.876626
0.744958
0.743754
0.863548
1.84118
1.7048
1.5411
1.3734
1.20613
1.03916
0.864543
0.747192
0.748162
0.873456
1.83503
1.69823
1.53113
1.36122
1.19315
1.02461
0.851085
0.749819
0.75536
0.88383
1.82734
1.68938
1.5183
1.34664
1.17817
1.00786
0.836591
0.753162
0.766608
0.895064
1.81719
1.67852
1.50342
1.3297
1.16111
0.988922
0.822073
0.756178
0.782876
0.906026
1.80117
1.66589
1.48655
1.31044
1.14187
0.967664
0.807412
0.757658
0.803875
0.918195
1.77103
1.65069
1.46771
1.28883
1.12074
0.943437
0.793627
0.759248
0.828643
0.931846
1.71982
1.6279
1.44681
1.26476
1.09686
0.917531
0.780059
0.760503
0.856003
0.946036
1.65139
1.59251
1.42339
1.23826
1.07122
0.888555
0.767316
0.763781
0.885854
0.95951
1.57942
1.53821
1.39716
1.20985
1.04329
0.857923
0.756319
0.771332
0.917311
0.971656
1.51986
1.466
1.35478
1.17608
1.01273
0.827942
0.742639
0.787629
0.949621
0.98253
1.47841
1.3842
1.30077
1.13824
0.979078
0.79655
0.730195
0.813891
0.98168
0.992578
1.45085
1.30531
1.22732
1.09609
0.941702
0.767115
0.721478
0.849105
1.01072
1.00233
1.43153
1.23608
1.13731
1.04394
0.90081
0.737014
0.713067
0.890174
1.03571
1.01191
1.4153
1.17991
1.04184
0.977964
0.852576
0.710319
0.707537
0.938973
1.05697
1.02235
1.4153
1.17991
1.04186
0.977915
0.852539
0.710354
0.707564
0.939071
1.05713
1.02239
1.43153
1.23608
1.13731
1.04392
0.900804
0.737039
0.713048
0.890123
1.03577
1.01194
1.45085
1.30531
1.22731
1.09609
0.94171
0.767129
0.721448
0.84901
1.01067
1.00233
1.47842
1.38421
1.30077
1.13824
0.97909
0.796556
0.730183
0.813841
0.981619
0.992565
1.51986
1.466
1.35478
1.17608
1.01273
0.827944
0.742649
0.787637
0.949604
0.982525
1.57942
1.53822
1.39716
1.20985
1.04329
0.857917
0.756333
0.771357
0.917335
0.97166
1.6514
1.59252
1.42339
1.23826
1.07122
0.888548
0.767328
0.7638
0.88589
0.959522
1.71982
1.6279
1.44681
1.26476
1.09686
0.917526
0.78006
0.760511
0.856024
0.946045
1.77103
1.65069
1.46771
1.28883
1.12074
0.943435
0.793626
0.759249
0.828649
0.931846
1.80117
1.6659
1.48655
1.31044
1.14187
0.967666
0.807413
0.757657
0.803872
0.918189
1.81719
1.67852
1.50342
1.3297
1.16111
0.988925
0.822076
0.756177
0.782873
0.906022
1.82734
1.68938
1.5183
1.34664
1.17817
1.00786
0.836592
0.753161
0.766606
0.895065
1.83503
1.69823
1.53113
1.36122
1.19315
1.02461
0.851085
0.74982
0.75536
0.88383
1.84117
1.7048
1.5411
1.37341
1.20613
1.03916
0.864542
0.747191
0.748161
0.873454
1.84477
1.71107
1.54908
1.38388
1.21743
1.05175
0.876625
0.744957
0.743753
0.863545
1.8465
1.71596
1.55546
1.39287
1.22726
1.06262
0.887359
0.743556
0.741044
0.855822
1.84636
1.71938
1.56082
1.40003
1.23529
1.07145
0.896149
0.742645
0.738826
0.850412
1.84584
1.72054
1.56545
1.40615
1.24178
1.07847
0.903155
0.741684
0.73832
0.847486
1.84275
1.7174
1.56708
1.41092
1.2466
1.08354
0.908157
0.741285
0.741655
0.847637
1.84624
1.72047
1.57087
1.41415
1.24975
1.08677
0.911395
0.740804
0.736652
0.844635
1.86629
1.85208
1.83855
1.81961
1.79735
1.76882
1.73473
1.69124
1.63911
1.57577
1.86194
1.84053
1.82444
1.80464
1.78291
1.75608
1.72472
1.68541
1.63742
1.57959
1.85064
1.82836
1.81218
1.79261
1.77151
1.7462
1.71709
1.68101
1.63589
1.5812
1.83355
1.8135
1.79895
1.78062
1.76084
1.7372
1.70968
1.67576
1.63314
1.58225
1.81445
1.79762
1.78484
1.76843
1.75055
1.7287
1.70267
1.67119
1.63143
1.58601
1.79472
1.78228
1.77104
1.75636
1.74003
1.71917
1.69462
1.66594
1.63095
1.59819
1.77217
1.76675
1.75847
1.74554
1.73055
1.71083
1.6892
1.6646
1.63903
1.63251
1.74759
1.74873
1.74644
1.73539
1.72163
1.70439
1.68713
1.67132
1.67202
1.70088
1.72751
1.72731
1.72901
1.72323
1.71329
1.70216
1.69432
1.704
1.74577
1.78663
1.73222
1.72403
1.71876
1.71454
1.71008
1.70908
1.72843
1.7829
1.8378
1.85561
1.74032
1.72531
1.7179
1.71318
1.71586
1.74488
1.81472
1.8806
1.90567
1.89387
1.74971
1.72986
1.72203
1.72294
1.75736
1.83991
1.91934
1.95021
1.94016
1.90761
1.74873
1.73272
1.73272
1.76867
1.86153
1.94973
1.98762
1.98239
1.95217
1.91597
1.7423
1.74219
1.77973
1.88112
1.97799
2.0198
2.01804
1.98998
1.95629
1.92098
1.7376
1.78759
1.89662
2.00572
2.05257
2.05016
2.02186
1.98965
1.95675
1.92548
1.75718
1.90384
2.02646
2.08355
2.08171
2.0509
2.01939
1.9891
1.96013
1.9288
1.83338
2.04569
2.11564
2.1149
2.08081
2.04608
2.01819
1.99091
1.96141
1.92685
1.92195
2.13003
2.15688
2.12347
2.07938
2.04395
2.01457
1.98733
1.95781
1.92386
1.99007
2.16956
2.17181
2.1156
2.07303
2.03975
2.00935
1.98054
1.9509
1.91887
2.02302
2.19196
2.18717
2.12119
2.07767
2.04104
2.00947
1.98446
1.95716
1.92414
1.01071
1.04066
1.11177
1.19165
1.2085
1.20749
1.19988
1.18427
1.47796
1.84753
1.01071
1.04066
1.11177
1.19166
1.20847
1.20751
1.19983
1.18448
1.44805
1.82123
1.01071
1.04066
1.11178
1.19166
1.20845
1.20753
1.19975
1.18472
1.4188
1.79579
1.01071
1.04066
1.11179
1.19165
1.20844
1.20755
1.19966
1.18498
1.39065
1.77071
1.01071
1.04066
1.1118
1.19164
1.20845
1.20757
1.19957
1.18525
1.36359
1.7461
1.01071
1.04066
1.11181
1.19161
1.20847
1.20758
1.19948
1.18555
1.33769
1.72171
1.01071
1.04066
1.11181
1.19156
1.20852
1.20757
1.19938
1.18585
1.31309
1.6965
1.01071
1.04066
1.11182
1.19151
1.20861
1.20755
1.19931
1.18616
1.28984
1.67202
1.01071
1.04066
1.11183
1.19143
1.20872
1.2075
1.19925
1.18649
1.26783
1.64716
1.01071
1.04065
1.11184
1.19134
1.20886
1.20742
1.19923
1.18685
1.24706
1.61825
1.01071
1.04065
1.11185
1.19124
1.20903
1.20729
1.1993
1.1872
1.22884
1.58742
1.01072
1.04065
1.11187
1.19114
1.20921
1.20711
1.19944
1.18756
1.21352
1.55495
1.01072
1.04065
1.11188
1.19103
1.20939
1.2069
1.19973
1.18748
1.20184
1.52235
1.01072
1.04065
1.11189
1.19093
1.20956
1.20665
1.20015
1.18683
1.19361
1.49065
1.01072
1.04065
1.1119
1.19083
1.20971
1.20639
1.20067
1.18603
1.18793
1.46074
1.01072
1.04064
1.11191
1.19074
1.20984
1.20613
1.20123
1.18539
1.18436
1.43353
1.01072
1.04064
1.11192
1.19067
1.20995
1.20589
1.20176
1.18483
1.18186
1.41084
1.01072
1.04064
1.11193
1.19061
1.21003
1.20569
1.2022
1.18442
1.18005
1.3975
1.01072
1.04064
1.11193
1.19057
1.21009
1.20556
1.20251
1.18413
1.17888
1.39105
1.01072
1.04064
1.11193
1.19055
1.21014
1.20539
1.2027
1.18399
1.17814
1.38802
1.01072
1.04064
1.11193
1.19055
1.21014
1.20539
1.2027
1.18399
1.17814
1.38802
1.01072
1.04064
1.11193
1.19057
1.21009
1.20556
1.20251
1.18413
1.17888
1.39105
1.01072
1.04064
1.11193
1.19061
1.21003
1.20569
1.2022
1.18442
1.18005
1.3975
1.01072
1.04064
1.11192
1.19067
1.20995
1.20589
1.20176
1.18483
1.18186
1.41084
1.01072
1.04064
1.11191
1.19074
1.20984
1.20613
1.20123
1.18539
1.18436
1.43353
1.01072
1.04065
1.1119
1.19083
1.20971
1.20639
1.20067
1.18603
1.18793
1.46074
1.01072
1.04065
1.11189
1.19093
1.20956
1.20665
1.20015
1.18683
1.19361
1.49065
1.01072
1.04065
1.11188
1.19103
1.20939
1.2069
1.19973
1.18748
1.20184
1.52235
1.01072
1.04065
1.11187
1.19114
1.20921
1.20711
1.19944
1.18756
1.21352
1.55495
1.01071
1.04065
1.11185
1.19124
1.20903
1.20729
1.1993
1.1872
1.22884
1.58742
1.01071
1.04065
1.11184
1.19134
1.20886
1.20742
1.19923
1.18685
1.24706
1.61825
1.01071
1.04066
1.11183
1.19143
1.20872
1.2075
1.19925
1.18649
1.26783
1.64716
1.01071
1.04066
1.11182
1.19151
1.20861
1.20755
1.19931
1.18616
1.28984
1.67202
1.01071
1.04066
1.11181
1.19156
1.20852
1.20757
1.19938
1.18585
1.31309
1.6965
1.01071
1.04066
1.11181
1.19161
1.20847
1.20758
1.19948
1.18555
1.33769
1.72171
1.01071
1.04066
1.1118
1.19164
1.20845
1.20757
1.19957
1.18525
1.36359
1.7461
1.01071
1.04066
1.11179
1.19165
1.20844
1.20755
1.19966
1.18498
1.39065
1.77071
1.01071
1.04066
1.11178
1.19166
1.20845
1.20753
1.19975
1.18472
1.4188
1.79579
1.01071
1.04066
1.11177
1.19166
1.20847
1.20751
1.19983
1.18448
1.44805
1.82124
1.01071
1.04066
1.11177
1.19165
1.2085
1.20749
1.19988
1.18427
1.47796
1.84753
2.02302
2.19196
2.18717
2.12119
2.07767
2.04104
2.00947
1.98446
1.95716
1.92414
1.99007
2.16956
2.17181
2.1156
2.07303
2.03975
2.00935
1.98054
1.9509
1.91887
1.92195
2.13003
2.15688
2.12347
2.07938
2.04395
2.01457
1.98733
1.95781
1.92386
1.83337
2.04569
2.11564
2.1149
2.08081
2.04608
2.01819
1.99091
1.96141
1.92685
1.75718
1.90384
2.02646
2.08355
2.08171
2.0509
2.01939
1.9891
1.96013
1.9288
1.7376
1.78759
1.89662
2.00572
2.05257
2.05016
2.02186
1.98965
1.95675
1.92548
1.7423
1.74219
1.77973
1.88113
1.97799
2.0198
2.01805
1.98998
1.95629
1.92098
1.74874
1.73272
1.73272
1.76867
1.86153
1.94973
1.98762
1.98239
1.95217
1.91597
1.74971
1.72986
1.72203
1.72294
1.75736
1.83991
1.91934
1.95021
1.94016
1.90761
1.74032
1.72531
1.7179
1.71318
1.71586
1.74488
1.81472
1.8806
1.90567
1.89387
1.73221
1.72403
1.71876
1.71454
1.71008
1.70908
1.72843
1.7829
1.8378
1.85561
1.72751
1.72731
1.72901
1.72322
1.71329
1.70216
1.69432
1.704
1.74577
1.78663
1.74759
1.74873
1.74644
1.73539
1.72163
1.70439
1.68713
1.67131
1.67202
1.70088
1.77217
1.76675
1.75846
1.74554
1.73055
1.71083
1.6892
1.6646
1.63903
1.6325
1.79472
1.78228
1.77103
1.75636
1.74003
1.71917
1.69462
1.66594
1.63095
1.59819
1.81445
1.79762
1.78484
1.76843
1.75055
1.7287
1.70267
1.67118
1.63143
1.58601
1.83355
1.8135
1.79895
1.78062
1.76083
1.7372
1.70968
1.67576
1.63314
1.58225
1.85064
1.82836
1.81218
1.79261
1.7715
1.7462
1.71709
1.68101
1.63589
1.5812
1.86194
1.84053
1.82444
1.80464
1.78291
1.75608
1.72472
1.68541
1.63742
1.57958
1.86629
1.85208
1.83855
1.81961
1.79734
1.76882
1.73473
1.69124
1.6391
1.57577
)
;

boundaryField
{
    inlet
    {
        type            fixedValue;
        value           uniform 1;
    }
    outlet
    {
        type            zeroGradient;
    }
    triangle
    {
        type            zeroGradient;
    }
    top
    {
        type            symmetryPlane;
    }
    bottom
    {
        type            symmetryPlane;
    }
    defaultFaces
    {
        type            empty;
    }
}


// ************************************************************************* //
