/*--------------------------------*- C++ -*----------------------------------*\
  =========                 |
  \\      /  F ield         | OpenFOAM: The Open Source CFD Toolbox
   \\    /   O peration     | Website:  https://openfoam.org
    \\  /    A nd           | Version:  8
     \\/     M anipulation  |
\*---------------------------------------------------------------------------*/
FoamFile
{
    version     2.0;
    format      ascii;
    class       volScalarField;
    location    "1";
    object      rho;
}
// * * * * * * * * * * * * * * * * * * * * * * * * * * * * * * * * * * * * * //

dimensions      [1 -3 0 0 0 0 0];

internalField   nonuniform List<scalar> 
2600
(
0.747106
0.698861
0.707928
0.765934
0.863472
0.997312
1.30822
1.63457
1.69049
1.63855
0.749219
0.685657
0.687205
0.749235
0.853736
0.973845
1.29377
1.6303
1.69839
1.63812
0.755096
0.684458
0.676031
0.7335
0.839536
0.941449
1.27015
1.6165
1.70254
1.63508
0.76012
0.68234
0.667356
0.715296
0.814809
0.900549
1.23069
1.59872
1.70255
1.6302
0.762255
0.678445
0.658592
0.697556
0.789894
0.864958
1.17714
1.56957
1.69095
1.61909
0.762554
0.674586
0.650937
0.683365
0.767411
0.841351
1.13647
1.52863
1.66316
1.5936
0.76119
0.669851
0.646759
0.677205
0.762019
0.837147
1.12261
1.49229
1.62712
1.56475
0.760364
0.670724
0.644909
0.677122
0.76607
0.843748
1.12578
1.46731
1.5972
1.54447
0.759652
0.670885
0.644229
0.679239
0.772676
0.852392
1.13341
1.46072
1.57905
1.53096
0.759927
0.671995
0.645291
0.680653
0.776546
0.857722
1.13807
1.45908
1.57248
1.52178
0.759916
0.672155
0.645059
0.680592
0.776585
0.857718
1.13807
1.45935
1.57586
1.52695
0.75962
0.670993
0.644264
0.679231
0.772841
0.85261
1.13352
1.46098
1.58269
1.52961
0.760328
0.670561
0.644724
0.677085
0.766153
0.843841
1.1259
1.46756
1.59662
1.54457
0.761275
0.669632
0.646324
0.677209
0.762158
0.83724
1.12267
1.49242
1.62434
1.57119
0.762671
0.674663
0.650862
0.68333
0.767489
0.841401
1.13632
1.52819
1.66336
1.59421
0.762312
0.67857
0.658724
0.697519
0.789984
0.864984
1.17701
1.5697
1.69317
1.61409
0.760092
0.682257
0.667239
0.71519
0.814896
0.9006
1.23068
1.59914
1.70226
1.62747
0.754995
0.684297
0.675848
0.733418
0.839665
0.941531
1.26996
1.61618
1.70154
1.63718
0.74924
0.685622
0.687026
0.749334
0.853934
0.973946
1.29359
1.62992
1.69786
1.64031
0.747119
0.698886
0.707988
0.766129
0.863547
0.997381
1.30818
1.6344
1.69066
1.63886
0.891154
0.723851
0.743828
0.781462
0.867045
1.01583
1.31455
1.63199
1.67566
1.63433
1.05168
0.773408
0.802675
0.800207
0.863197
1.03013
1.31242
1.62029
1.65613
1.62734
1.18905
0.831
0.844274
0.815186
0.85796
1.03782
1.31686
1.60767
1.6338
1.61863
1.29243
0.901089
0.872609
0.82671
0.858224
1.04177
1.32365
1.59871
1.61175
1.60791
1.37456
0.981935
0.892912
0.833672
0.860745
1.04244
1.32557
1.59127
1.59117
1.59589
1.43581
1.05764
0.914392
0.840768
0.867444
1.04047
1.32207
1.58249
1.57007
1.58211
1.48541
1.12447
0.940069
0.848341
0.878341
1.03626
1.31441
1.57424
1.54645
1.56573
1.52598
1.18091
0.965556
0.856661
0.892988
1.0304
1.3032
1.56539
1.52403
1.54664
1.56006
1.23101
0.994452
0.868594
0.911651
1.02319
1.28819
1.55669
1.51086
1.52602
1.58985
1.27436
1.02247
0.885301
0.935038
1.01682
1.27054
1.54817
1.50307
1.50449
1.61662
1.31229
1.05248
0.910165
0.959879
1.01229
1.2485
1.53995
1.49979
1.48236
1.64157
1.34526
1.08202
0.94032
0.984358
1.01044
1.22102
1.53121
1.49966
1.46298
1.66522
1.37398
1.11224
0.97864
1.00959
1.01069
1.19335
1.52015
1.49915
1.45109
1.68695
1.3999
1.14254
1.02042
1.03553
1.01379
1.16609
1.50455
1.49643
1.44424
1.70663
1.42302
1.17392
1.06708
1.06061
1.02103
1.14081
1.48617
1.49164
1.43893
1.72332
1.44461
1.20667
1.11615
1.08527
1.02902
1.11928
1.4636
1.48639
1.43545
1.73763
1.46495
1.24132
1.16695
1.10996
1.03851
1.10172
1.43749
1.47841
1.43267
1.7496
1.48512
1.27858
1.21607
1.13533
1.0478
1.08964
1.41068
1.47105
1.42924
1.76014
1.50591
1.31837
1.2623
1.16291
1.05951
1.08353
1.38398
1.46382
1.42469
1.76963
1.5279
1.36042
1.30449
1.19167
1.06992
1.08179
1.35841
1.4565
1.41939
2.78475
2.68202
2.60723
2.53429
2.46361
2.39485
2.3226
2.24341
2.13402
1.99337
2.6558
2.55715
2.50785
2.4542
2.40026
2.342
2.27632
2.19655
2.08467
1.9183
2.62063
2.54725
2.50804
2.45745
2.40716
2.35165
2.28678
2.20519
2.09209
1.93011
2.56808
2.51239
2.4805
2.43505
2.39064
2.3374
2.27362
2.19166
2.08081
1.91553
2.51875
2.47553
2.4495
2.4084
2.36749
2.31598
2.25456
2.17451
2.06794
1.90255
2.46865
2.43542
2.41307
2.37641
2.33957
2.29055
2.23196
2.1539
2.05181
1.89084
2.42098
2.39695
2.37835
2.34603
2.31203
2.26464
2.20863
2.13276
2.03539
1.88343
2.38032
2.3624
2.34622
2.31706
2.28515
2.23966
2.18631
2.11293
2.02043
1.87914
2.35166
2.33601
2.32058
2.29302
2.2623
2.21839
2.16731
2.09626
2.0084
1.87758
2.33453
2.31686
2.30045
2.27362
2.24366
2.20119
2.15212
2.08344
1.99991
1.87855
2.32071
2.30169
2.28504
2.25889
2.22944
2.18825
2.14088
2.07468
1.99504
1.88176
2.30613
2.28688
2.27058
2.24542
2.21689
2.17741
2.13197
2.06869
1.99284
1.88731
2.29066
2.27177
2.25605
2.23207
2.20477
2.16725
2.12395
2.06398
1.99216
1.89412
2.27482
2.25673
2.24164
2.21878
2.19277
2.15725
2.1161
2.05947
1.9916
1.90066
2.2594
2.24247
2.22799
2.20607
2.18113
2.14742
2.10813
2.05459
1.99053
1.90611
2.24447
2.22895
2.2151
2.19416
2.17013
2.13809
2.10042
2.04964
1.98881
1.91017
2.23021
2.21623
2.20311
2.18329
2.15993
2.12915
2.09258
2.04397
1.98626
1.91324
2.21619
2.20333
2.19098
2.17224
2.14949
2.12003
2.08482
2.03845
1.9835
1.91548
2.20193
2.19004
2.17817
2.16063
2.13841
2.11003
2.07615
2.03235
1.98091
1.91782
2.18763
2.17573
2.16374
2.14699
2.1265
2.10017
2.06855
2.02775
1.97938
1.92031
1.41071
1.44047
1.51007
1.5865
1.60292
1.60146
1.59358
1.59837
2.0951
2.41503
1.41071
1.44047
1.51007
1.5865
1.60292
1.60146
1.59363
1.59805
2.0934
2.40932
1.41071
1.44047
1.51007
1.5865
1.60292
1.60147
1.59371
1.59738
2.09068
2.40221
1.41071
1.44047
1.51007
1.5865
1.60291
1.60148
1.59383
1.59632
2.08655
2.39356
1.41071
1.44047
1.51008
1.5865
1.60291
1.60149
1.59396
1.59488
2.08138
2.38421
1.41071
1.44047
1.51008
1.5865
1.6029
1.60151
1.59404
1.59318
2.07535
2.37415
1.41071
1.44047
1.51008
1.58651
1.6029
1.60153
1.59405
1.59136
2.06852
2.36482
1.41071
1.44047
1.51008
1.58651
1.60289
1.60154
1.59406
1.58942
2.06043
2.35616
1.41071
1.44047
1.51008
1.58651
1.60288
1.60156
1.59408
1.58742
2.05067
2.34764
1.41071
1.44046
1.51009
1.58652
1.60286
1.60157
1.59411
1.58548
2.03881
2.33793
1.41071
1.44046
1.51009
1.58652
1.60285
1.60159
1.59412
1.58371
2.02513
2.32667
1.41071
1.44046
1.51009
1.58653
1.60283
1.6016
1.59415
1.58219
2.01005
2.31407
1.41071
1.44046
1.5101
1.58654
1.60281
1.60161
1.59419
1.58093
1.99393
2.30064
1.41071
1.44046
1.5101
1.58655
1.60279
1.60162
1.59425
1.58017
1.9769
2.28688
1.41071
1.44046
1.51011
1.58655
1.60276
1.60163
1.59432
1.57978
1.95926
2.27329
1.41071
1.44046
1.51011
1.58656
1.60273
1.60164
1.59438
1.57955
1.94131
2.25989
1.41071
1.44046
1.51011
1.58657
1.60271
1.60164
1.59444
1.57942
1.92316
2.24687
1.41071
1.44046
1.51012
1.58658
1.60268
1.60165
1.59448
1.57939
1.90489
2.23399
1.41071
1.44046
1.51012
1.58659
1.60266
1.60165
1.5945
1.57941
1.88669
2.221
1.41071
1.44046
1.51013
1.58659
1.60263
1.60165
1.5945
1.57949
1.86858
2.20806
1.41071
1.44046
1.51013
1.58659
1.60263
1.60165
1.5945
1.57949
1.86858
2.20806
1.41071
1.44046
1.51012
1.58659
1.60266
1.60165
1.5945
1.57941
1.88669
2.221
1.41071
1.44046
1.51012
1.58658
1.60268
1.60165
1.59448
1.57939
1.90489
2.23399
1.41071
1.44046
1.51011
1.58657
1.60271
1.60164
1.59444
1.57942
1.92316
2.24687
1.41071
1.44046
1.51011
1.58656
1.60273
1.60164
1.59438
1.57955
1.94131
2.25989
1.41071
1.44046
1.51011
1.58655
1.60276
1.60163
1.59432
1.57978
1.95926
2.27329
1.41071
1.44046
1.5101
1.58655
1.60279
1.60162
1.59425
1.58017
1.9769
2.28688
1.41071
1.44046
1.5101
1.58654
1.60281
1.60161
1.59419
1.58093
1.99393
2.30064
1.41071
1.44046
1.51009
1.58653
1.60283
1.6016
1.59415
1.58219
2.01005
2.31407
1.41071
1.44046
1.51009
1.58652
1.60285
1.60159
1.59412
1.58371
2.02513
2.32667
1.41071
1.44046
1.51009
1.58652
1.60286
1.60157
1.59411
1.58548
2.03881
2.33793
1.41071
1.44047
1.51008
1.58651
1.60288
1.60156
1.59408
1.58742
2.05067
2.34764
1.41071
1.44047
1.51008
1.58651
1.60289
1.60154
1.59406
1.58942
2.06043
2.35616
1.41071
1.44047
1.51008
1.58651
1.6029
1.60153
1.59405
1.59136
2.06852
2.36482
1.41071
1.44047
1.51008
1.5865
1.6029
1.60151
1.59404
1.59318
2.07535
2.37415
1.41071
1.44047
1.51008
1.5865
1.60291
1.60149
1.59396
1.59488
2.08138
2.38421
1.41071
1.44047
1.51007
1.5865
1.60291
1.60148
1.59383
1.59632
2.08655
2.39356
1.41071
1.44047
1.51007
1.5865
1.60292
1.60147
1.59371
1.59738
2.09068
2.40221
1.41071
1.44047
1.51007
1.5865
1.60292
1.60146
1.59363
1.59805
2.0934
2.40932
1.41071
1.44047
1.51007
1.5865
1.60292
1.60146
1.59358
1.59837
2.0951
2.41503
2.18763
2.17573
2.16374
2.14699
2.1265
2.10017
2.06855
2.02775
1.97938
1.92031
2.20193
2.19004
2.17816
2.16063
2.13841
2.11003
2.07615
2.03235
1.98091
1.91782
2.21619
2.20333
2.19098
2.17224
2.14949
2.12003
2.08482
2.03845
1.9835
1.91547
2.23021
2.21623
2.20311
2.18329
2.15994
2.12915
2.09258
2.04397
1.98626
1.91324
2.24446
2.22895
2.2151
2.19416
2.17013
2.13809
2.10042
2.04964
1.98881
1.91017
2.2594
2.24247
2.22799
2.20607
2.18113
2.14742
2.10813
2.05459
1.99053
1.90611
2.27482
2.25673
2.24164
2.21878
2.19277
2.15725
2.1161
2.05947
1.99161
1.90066
2.29066
2.27177
2.25605
2.23207
2.20477
2.16725
2.12395
2.06398
1.99216
1.89412
2.30613
2.28688
2.27058
2.24542
2.21689
2.17741
2.13197
2.06869
1.99285
1.88731
2.32071
2.30169
2.28504
2.25889
2.22944
2.18825
2.14088
2.07468
1.99504
1.88175
2.33453
2.31686
2.30045
2.27362
2.24366
2.20119
2.15212
2.08344
1.99991
1.87853
2.35166
2.33601
2.32058
2.29302
2.2623
2.21839
2.16731
2.09626
2.00839
1.87757
2.38032
2.3624
2.34622
2.31706
2.28515
2.23966
2.18632
2.11293
2.02042
1.87913
2.42098
2.39695
2.37835
2.34603
2.31203
2.26464
2.20863
2.13276
2.03539
1.88343
2.46865
2.43542
2.41307
2.37641
2.33957
2.29055
2.23196
2.1539
2.05181
1.89084
2.51875
2.47553
2.4495
2.4084
2.36749
2.31598
2.25456
2.17451
2.06793
1.90253
2.56808
2.51239
2.4805
2.43505
2.39065
2.3374
2.27362
2.19166
2.08081
1.91552
2.62063
2.54725
2.50804
2.45745
2.40716
2.35165
2.28678
2.20519
2.09209
1.9301
2.6558
2.55715
2.50785
2.4542
2.40026
2.342
2.27632
2.19655
2.08466
1.91829
2.78475
2.68202
2.60723
2.53429
2.46361
2.39485
2.3226
2.2434
2.13402
1.99336
1.76963
1.52791
1.36041
1.30452
1.1917
1.06992
1.08171
1.35824
1.45648
1.41937
1.76014
1.50592
1.31837
1.26229
1.16295
1.0595
1.08343
1.38387
1.46387
1.4247
1.74961
1.48513
1.2786
1.216
1.13536
1.04782
1.08962
1.41072
1.47109
1.42943
1.73763
1.46494
1.24134
1.16684
1.10998
1.03857
1.10182
1.43762
1.47863
1.43256
1.72331
1.44459
1.20668
1.11606
1.08528
1.02912
1.11949
1.46378
1.4869
1.43549
1.70663
1.42299
1.17392
1.06708
1.06059
1.02112
1.14103
1.4864
1.49181
1.43903
1.68695
1.39988
1.14253
1.02053
1.0355
1.01382
1.16621
1.5048
1.49642
1.44428
1.66521
1.37398
1.11224
0.97878
1.0095
1.01061
1.19336
1.52014
1.499
1.45105
1.64155
1.34528
1.08202
0.940411
0.984276
1.01029
1.22094
1.53104
1.49946
1.46295
1.61658
1.31233
1.05249
0.910143
0.959865
1.01215
1.24833
1.53971
1.49963
1.48235
1.58981
1.27441
1.02249
0.885175
0.935016
1.01675
1.2704
1.54803
1.50304
1.50447
1.56003
1.23103
0.994487
0.868472
0.911541
1.02313
1.2882
1.55672
1.51089
1.526
1.52598
1.18087
0.965574
0.856556
0.892828
1.03031
1.30338
1.56549
1.52412
1.54668
1.48542
1.12438
0.940062
0.848276
0.878207
1.03617
1.31456
1.57427
1.54647
1.56582
1.4358
1.05756
0.914384
0.840757
0.867378
1.04041
1.3222
1.58249
1.57002
1.5821
1.37452
0.981969
0.892917
0.833663
0.860746
1.04243
1.32561
1.59123
1.59115
1.5957
1.29236
0.90123
0.872639
0.826664
0.858207
1.04181
1.32358
1.5987
1.61183
1.60763
1.189
0.831093
0.844413
0.815195
0.857898
1.03787
1.31691
1.60766
1.63385
1.61847
1.05167
0.773426
0.802855
0.800327
0.863256
1.03013
1.31284
1.62008
1.65591
1.62783
0.891166
0.723861
0.743756
0.781473
0.867108
1.01581
1.31453
1.63184
1.67532
1.63514
2.1661
2.06028
1.93098
1.79141
1.63991
1.48395
1.30854
1.12765
1.12305
1.23771
2.16333
2.05775
1.92771
1.78852
1.63697
1.48082
1.30521
1.12816
1.12851
1.2408
2.16636
2.06061
1.92644
1.78429
1.63251
1.47593
1.30006
1.12863
1.12487
1.24053
2.16713
2.05988
1.92256
1.77891
1.62655
1.46919
1.29286
1.12971
1.12537
1.24344
2.16696
2.05695
1.91792
1.77256
1.61919
1.46075
1.28382
1.13073
1.1277
1.24891
2.16469
2.05219
1.91205
1.76439
1.61007
1.45029
1.27278
1.13225
1.13058
1.25678
2.16046
2.04577
1.90432
1.75453
1.59936
1.43804
1.26032
1.13461
1.13535
1.2669
2.15415
2.03895
1.89447
1.7427
1.58675
1.42366
1.24636
1.13739
1.14305
1.27753
2.14709
2.0304
1.88204
1.7284
1.5719
1.40679
1.23121
1.14091
1.15504
1.28899
2.13853
2.0206
1.86805
1.71187
1.55479
1.38736
1.2159
1.14402
1.17227
1.30005
2.12505
2.00956
1.85264
1.69338
1.53548
1.36524
1.20027
1.14541
1.19426
1.31218
2.09888
1.99599
1.83556
1.67291
1.51439
1.33983
1.18533
1.14687
1.21986
1.3257
2.05388
1.97513
1.81615
1.65008
1.49075
1.31255
1.1702
1.14793
1.24777
1.33975
1.99396
1.94275
1.79367
1.62453
1.46536
1.28202
1.15546
1.15116
1.27797
1.35309
1.93152
1.89382
1.76803
1.59647
1.43748
1.24956
1.14247
1.15878
1.30965
1.36501
1.88017
1.82952
1.72798
1.56272
1.40641
1.21736
1.12677
1.17547
1.34173
1.37541
1.84416
1.75688
1.67767
1.52466
1.37149
1.18306
1.11263
1.20225
1.37283
1.38464
1.81936
1.68584
1.60881
1.4822
1.33198
1.15023
1.10266
1.23723
1.40037
1.39326
1.80047
1.62092
1.52267
1.42975
1.28817
1.11644
1.09293
1.27627
1.42354
1.40181
1.78289
1.56508
1.42872
1.36272
1.23616
1.08664
1.08584
1.32109
1.44336
1.41137
1.7829
1.56507
1.42874
1.36268
1.23612
1.08668
1.08587
1.32119
1.44352
1.41141
1.80047
1.62091
1.52267
1.42972
1.28816
1.11647
1.09291
1.27622
1.4236
1.40184
1.81936
1.68584
1.60881
1.4822
1.33199
1.15024
1.10263
1.23713
1.40032
1.39326
1.84416
1.75688
1.67767
1.52466
1.3715
1.18307
1.11262
1.2022
1.37277
1.38463
1.88017
1.82953
1.72798
1.56273
1.40641
1.21736
1.12678
1.17548
1.34171
1.37541
1.93152
1.89382
1.76803
1.59648
1.43748
1.24956
1.14249
1.15881
1.30968
1.36502
1.99396
1.94275
1.79367
1.62453
1.46536
1.28201
1.15547
1.15118
1.27801
1.3531
2.05388
1.97513
1.81615
1.65008
1.49075
1.31254
1.1702
1.14794
1.24779
1.33976
2.09889
1.99599
1.83556
1.67291
1.51439
1.33983
1.18533
1.14687
1.21986
1.3257
2.12505
2.00956
1.85264
1.69338
1.53548
1.36524
1.20027
1.14541
1.19426
1.31218
2.13853
2.0206
1.86805
1.71187
1.55479
1.38737
1.2159
1.14401
1.17227
1.30005
2.14709
2.0304
1.88205
1.7284
1.5719
1.40679
1.23121
1.14091
1.15504
1.28899
2.15415
2.03895
1.89447
1.7427
1.58676
1.42366
1.24636
1.13739
1.14305
1.27753
2.16046
2.04577
1.90432
1.75453
1.59936
1.43804
1.26032
1.13461
1.13534
1.2669
2.16468
2.05219
1.91205
1.76439
1.61007
1.45029
1.27278
1.13225
1.13058
1.25678
2.16696
2.05695
1.91792
1.77256
1.61919
1.46075
1.28382
1.13073
1.1277
1.24891
2.16713
2.05988
1.92256
1.77891
1.62655
1.46919
1.29286
1.12971
1.12537
1.24344
2.16636
2.06061
1.92644
1.78429
1.63251
1.47593
1.30006
1.12863
1.12487
1.24053
2.16333
2.05775
1.92771
1.78852
1.63697
1.48082
1.30521
1.12816
1.12851
1.2408
2.1661
2.06028
1.93098
1.79141
1.63991
1.48395
1.30854
1.12765
1.12305
1.23771
2.17364
2.16077
2.14853
2.13191
2.1127
2.08843
2.05964
2.0229
1.97867
1.92437
2.16412
2.14716
2.13433
2.11812
2.10033
2.07846
2.05285
2.02032
1.98
1.93072
2.15863
2.14014
2.12717
2.11137
2.09429
2.07372
2.04987
2.01982
1.9816
1.9344
2.15022
2.13333
2.12114
2.10585
2.08934
2.06953
2.0463
2.01741
1.98065
1.93611
2.13741
2.12311
2.11209
2.09794
2.08248
2.06356
2.041
2.01364
1.97892
1.93912
2.12109
2.11033
2.10039
2.08748
2.07312
2.05486
2.03339
2.00835
1.97779
1.94901
2.10038
2.09554
2.08821
2.07695
2.06392
2.04681
2.02813
2.00674
1.98453
1.97837
2.07831
2.07931
2.07741
2.06805
2.05631
2.04163
2.02675
2.01307
2.01345
2.03802
2.06264
2.06253
2.064
2.05907
2.05056
2.04094
2.03395
2.04226
2.07774
2.11219
2.06787
2.06092
2.05637
2.05268
2.04883
2.04755
2.06413
2.11035
2.15635
2.171
2.07491
2.06204
2.0556
2.05154
2.05377
2.07841
2.13741
2.19237
2.21288
2.20293
2.08249
2.06559
2.05889
2.05966
2.08888
2.15833
2.22426
2.24948
2.24103
2.21394
2.08145
2.06783
2.0678
2.09828
2.17621
2.24915
2.28011
2.27588
2.25104
2.22122
2.0761
2.07599
2.10777
2.19268
2.27253
2.30676
2.30558
2.28284
2.25537
2.22642
2.07281
2.11508
2.20629
2.29602
2.33425
2.33259
2.31001
2.28373
2.25697
2.23138
2.09029
2.21323
2.3141
2.36046
2.3593
2.33463
2.30897
2.28443
2.26078
2.23507
2.15478
2.32979
2.38682
2.38656
2.3592
2.3312
2.30866
2.28648
2.26228
2.23382
2.22735
2.39628
2.41937
2.39271
2.35744
2.329
2.30537
2.28324
2.25905
2.23103
2.28166
2.42569
2.4297
2.38539
2.35129
2.32467
2.30023
2.27686
2.25267
2.22634
2.30765
2.44285
2.44027
2.38935
2.35459
2.3252
2.29977
2.27958
2.25746
2.23045
1.41071
1.44046
1.51013
1.5866
1.6026
1.60166
1.59448
1.57962
1.84625
2.19021
1.41071
1.44046
1.51014
1.5866
1.60258
1.60168
1.59442
1.57982
1.82019
2.1659
1.41071
1.44046
1.51015
1.5866
1.60256
1.6017
1.59435
1.58004
1.79434
2.14056
1.41071
1.44046
1.51016
1.5866
1.60255
1.60172
1.59427
1.58029
1.76929
2.11615
1.41071
1.44046
1.51016
1.58658
1.60256
1.60174
1.59418
1.58055
1.74509
2.09365
1.41071
1.44046
1.51017
1.58656
1.60258
1.60175
1.5941
1.58083
1.72182
2.07212
1.41071
1.44046
1.51018
1.58651
1.60263
1.60174
1.59401
1.58112
1.69956
2.0495
1.41071
1.44046
1.51019
1.58646
1.60271
1.60172
1.59394
1.58142
1.67837
2.02644
1.41071
1.44046
1.5102
1.58639
1.60282
1.60167
1.59388
1.58174
1.65817
2.00222
1.41071
1.44046
1.51021
1.58631
1.60295
1.6016
1.59386
1.58208
1.63896
1.97493
1.41071
1.44046
1.51022
1.58621
1.60311
1.60147
1.59393
1.58242
1.62189
1.94683
1.41071
1.44046
1.51023
1.58611
1.60328
1.60131
1.59405
1.58277
1.60742
1.91775
1.41071
1.44046
1.51024
1.58601
1.60345
1.6011
1.59433
1.5827
1.59634
1.88869
1.41071
1.44045
1.51025
1.58591
1.60361
1.60087
1.59472
1.58209
1.58853
1.86045
1.41071
1.44045
1.51026
1.58582
1.60375
1.60062
1.59522
1.58134
1.58312
1.83388
1.41071
1.44045
1.51027
1.58573
1.60387
1.60037
1.59575
1.58074
1.5797
1.80975
1.41071
1.44045
1.51028
1.58566
1.60397
1.60015
1.59625
1.5802
1.57732
1.7895
1.41071
1.44045
1.51029
1.58561
1.60405
1.59996
1.59667
1.57981
1.57561
1.77728
1.41071
1.44045
1.51029
1.58557
1.60411
1.59983
1.59696
1.57953
1.57449
1.77099
1.41071
1.44045
1.51029
1.58555
1.60416
1.59967
1.59715
1.5794
1.57379
1.76792
1.41071
1.44045
1.51029
1.58555
1.60416
1.59967
1.59715
1.5794
1.57379
1.76792
1.41071
1.44045
1.51029
1.58557
1.60411
1.59983
1.59696
1.57953
1.57449
1.77099
1.41071
1.44045
1.51029
1.58561
1.60405
1.59996
1.59667
1.57981
1.57561
1.77728
1.41071
1.44045
1.51028
1.58566
1.60397
1.60015
1.59625
1.5802
1.57732
1.7895
1.41071
1.44045
1.51027
1.58573
1.60387
1.60037
1.59575
1.58074
1.5797
1.80975
1.41071
1.44045
1.51026
1.58582
1.60375
1.60062
1.59522
1.58134
1.58312
1.83388
1.41071
1.44045
1.51025
1.58591
1.60361
1.60087
1.59472
1.58209
1.58853
1.86045
1.41071
1.44046
1.51024
1.58601
1.60345
1.6011
1.59433
1.5827
1.59634
1.88869
1.41071
1.44046
1.51023
1.58611
1.60328
1.60131
1.59405
1.58277
1.60742
1.91775
1.41071
1.44046
1.51022
1.58621
1.60311
1.60147
1.59393
1.58242
1.62189
1.94683
1.41071
1.44046
1.51021
1.58631
1.60295
1.6016
1.59386
1.58208
1.63896
1.97493
1.41071
1.44046
1.5102
1.58639
1.60282
1.60167
1.59388
1.58174
1.65817
2.00222
1.41071
1.44046
1.51019
1.58646
1.60271
1.60172
1.59394
1.58142
1.67837
2.02644
1.41071
1.44046
1.51018
1.58651
1.60263
1.60174
1.59401
1.58112
1.69956
2.0495
1.41071
1.44046
1.51017
1.58656
1.60258
1.60175
1.5941
1.58083
1.72182
2.07212
1.41071
1.44046
1.51016
1.58658
1.60256
1.60174
1.59418
1.58055
1.74509
2.09365
1.41071
1.44046
1.51016
1.5866
1.60255
1.60172
1.59427
1.58029
1.76928
2.11615
1.41071
1.44046
1.51015
1.58661
1.60256
1.6017
1.59435
1.58004
1.79434
2.14056
1.41071
1.44046
1.51014
1.5866
1.60258
1.60168
1.59442
1.57982
1.82019
2.1659
1.41071
1.44046
1.51013
1.5866
1.6026
1.60166
1.59448
1.57962
1.84625
2.19021
2.30765
2.44285
2.44027
2.38935
2.35459
2.3252
2.29977
2.27958
2.25746
2.23045
2.28166
2.42569
2.4297
2.38539
2.35129
2.32467
2.30023
2.27686
2.25267
2.22634
2.22735
2.39628
2.41937
2.39271
2.35744
2.329
2.30537
2.28324
2.25905
2.23103
2.15478
2.32979
2.38682
2.38656
2.3592
2.3312
2.30866
2.28648
2.26228
2.23382
2.09029
2.21323
2.3141
2.36046
2.3593
2.33463
2.30897
2.28443
2.26078
2.23507
2.07281
2.11508
2.20629
2.29602
2.33425
2.33259
2.31001
2.28373
2.25697
2.23138
2.0761
2.07599
2.10777
2.19268
2.27253
2.30676
2.30558
2.28284
2.25537
2.22642
2.08145
2.06783
2.0678
2.09828
2.17621
2.24915
2.28011
2.27588
2.25104
2.22122
2.08249
2.06559
2.05889
2.05966
2.08888
2.15833
2.22426
2.24948
2.24104
2.21394
2.07491
2.06204
2.0556
2.05154
2.05377
2.07841
2.13741
2.19237
2.21288
2.20293
2.06787
2.06092
2.05637
2.05268
2.04883
2.04755
2.06413
2.11035
2.15635
2.171
2.06264
2.06253
2.064
2.05907
2.05056
2.04094
2.03395
2.04226
2.07774
2.11219
2.07831
2.07931
2.07741
2.06805
2.05631
2.04163
2.02675
2.01307
2.01344
2.03802
2.10038
2.09554
2.08821
2.07695
2.06392
2.04681
2.02813
2.00674
1.98453
1.97837
2.12109
2.11033
2.10039
2.08748
2.07312
2.05486
2.03339
2.00835
1.97779
1.94901
2.13741
2.12311
2.11209
2.09794
2.08248
2.06356
2.041
2.01364
1.97892
1.93912
2.15022
2.13333
2.12114
2.10585
2.08933
2.06953
2.0463
2.01741
1.98065
1.93611
2.15863
2.14014
2.12717
2.11137
2.09429
2.07372
2.04987
2.01982
1.9816
1.9344
2.16412
2.14716
2.13433
2.11812
2.10033
2.07846
2.05285
2.02032
1.98
1.93072
2.17364
2.16077
2.14853
2.13191
2.1127
2.08843
2.05964
2.0229
1.97867
1.92437
)
;

boundaryField
{
    inlet
    {
        type            calculated;
        value           uniform 1.40001;
    }
    outlet
    {
        type            calculated;
        value           nonuniform List<scalar> 
100
(
1.41147
1.40189
1.39331
1.3847
1.37546
1.36504
1.35307
1.33969
1.32561
1.31208
1.29997
1.28891
1.27745
1.2668
1.25666
1.24877
1.24329
1.24037
1.24064
1.23754
1.63439
1.62742
1.61879
1.60814
1.59619
1.58252
1.56629
1.54731
1.52674
1.50524
1.48314
1.46351
1.45125
1.44429
1.43891
1.43537
1.43258
1.42922
1.42473
1.41945
1.6385
1.63803
1.63509
1.6304
1.61912
1.59348
1.56468
1.5445
1.53146
1.522
1.52689
1.52934
1.54462
1.57134
1.59443
1.6142
1.62737
1.63706
1.6403
1.63892
1.41943
1.42473
1.42942
1.43248
1.43541
1.43902
1.44433
1.4512
1.46348
1.48313
1.50521
1.52672
1.54736
1.56638
1.5825
1.59599
1.60786
1.61865
1.62794
1.63517
1.23754
1.24064
1.24037
1.24329
1.24877
1.25666
1.2668
1.27745
1.28891
1.29997
1.31209
1.32561
1.33968
1.35306
1.36503
1.37547
1.38471
1.39331
1.40186
1.41143
)
;
    }
    triangle
    {
        type            calculated;
        value           nonuniform List<scalar> 
40
(
2.78475
2.68202
2.60723
2.53429
2.46361
2.39485
2.3226
2.24341
2.13402
1.99337
0.747106
0.749219
0.755096
0.76012
0.762255
0.762554
0.76119
0.760364
0.759652
0.759927
0.759916
0.75962
0.760328
0.761275
0.762671
0.762312
0.760092
0.754995
0.74924
0.747119
2.78475
2.68202
2.60723
2.53429
2.46361
2.39485
2.3226
2.2434
2.13402
1.99336
)
;
    }
    top
    {
        type            symmetryPlane;
    }
    bottom
    {
        type            symmetryPlane;
    }
    defaultFaces
    {
        type            empty;
    }
}


// ************************************************************************* //
