/*--------------------------------*- C++ -*----------------------------------*\
  =========                 |
  \\      /  F ield         | OpenFOAM: The Open Source CFD Toolbox
   \\    /   O peration     | Website:  https://openfoam.org
    \\  /    A nd           | Version:  8
     \\/     M anipulation  |
\*---------------------------------------------------------------------------*/
FoamFile
{
    version     2.0;
    format      ascii;
    class       volScalarField;
    location    "1";
    object      T;
}
// * * * * * * * * * * * * * * * * * * * * * * * * * * * * * * * * * * * * * //

dimensions      [0 0 0 1 0 0 0];

internalField   nonuniform List<scalar> 
2600
(
1.05773
1.02454
0.961917
0.897793
0.907418
0.941055
1.01766
1.10384
1.11623
1.10022
1.06645
1.02693
0.979167
0.92708
0.93438
0.962305
1.03207
1.11187
1.12074
1.10367
1.0622
1.02149
0.990137
0.960743
0.969313
0.993955
1.05667
1.1231
1.12779
1.10906
1.05822
1.01651
0.998876
0.994764
1.01012
1.03549
1.09455
1.14264
1.13973
1.11858
1.05752
1.01669
1.00889
1.02538
1.05752
1.08096
1.14168
1.17041
1.15817
1.13284
1.05929
1.02101
1.01776
1.04789
1.0928
1.11053
1.18351
1.20453
1.18372
1.15045
1.06213
1.02491
1.02226
1.05712
1.10725
1.11997
1.20167
1.24057
1.21347
1.17105
1.06512
1.02908
1.02292
1.05729
1.10495
1.11513
1.20263
1.26467
1.23943
1.19037
1.06668
1.03063
1.0223
1.05444
1.09647
1.10425
1.19851
1.27355
1.25345
1.20184
1.06745
1.03159
1.0224
1.05157
1.09088
1.09862
1.19467
1.27406
1.25747
1.20528
1.06744
1.0317
1.02228
1.05152
1.09088
1.09859
1.19464
1.27416
1.25851
1.2071
1.06667
1.0307
1.02239
1.05443
1.09651
1.1043
1.19849
1.27362
1.25454
1.20155
1.06514
1.02898
1.02284
1.05727
1.10496
1.11513
1.20262
1.26467
1.23911
1.19027
1.06222
1.02484
1.02203
1.05718
1.10734
1.12001
1.20166
1.24048
1.21247
1.17287
1.05937
1.02121
1.01789
1.04799
1.09288
1.11058
1.18343
1.20432
1.18372
1.15065
1.05757
1.01686
1.00919
1.02549
1.05761
1.08104
1.14163
1.17045
1.15887
1.13139
1.05822
1.01648
0.998893
0.994781
1.01019
1.03559
1.09455
1.14278
1.13972
1.11776
1.06216
1.02144
0.99002
0.96074
0.969381
0.994045
1.05661
1.12303
1.12757
1.10974
1.06648
1.02694
0.979045
0.927154
0.934478
0.96238
1.03201
1.11175
1.12067
1.10424
1.05776
1.02457
0.961953
0.897888
0.907462
0.941098
1.01767
1.1038
1.11629
1.10021
1.03715
0.991918
0.934392
0.870905
0.884514
0.926575
1.00742
1.0971
1.11141
1.097
1.01501
0.950717
0.910079
0.851387
0.865037
0.916727
0.999053
1.09074
1.10558
1.09395
1.01089
0.924477
0.889759
0.840884
0.851326
0.910833
0.996313
1.08627
1.09873
1.09075
1.0136
0.916349
0.876969
0.836705
0.845372
0.907931
0.99646
1.08356
1.09163
1.08695
1.0223
0.917457
0.869686
0.83458
0.843436
0.905987
0.996139
1.08142
1.08465
1.08263
1.03386
0.92439
0.867277
0.833988
0.843398
0.903824
0.994776
1.07864
1.07747
1.0777
1.04636
0.937726
0.870777
0.834873
0.845772
0.901399
0.992598
1.0756
1.06965
1.07196
1.05816
0.953298
0.878073
0.837366
0.850717
0.898866
0.989225
1.07221
1.06206
1.06542
1.06887
0.969006
0.888192
0.841767
0.857371
0.896072
0.984351
1.06869
1.05694
1.05845
1.07838
0.983393
0.898431
0.847926
0.865587
0.893652
0.978406
1.06501
1.05316
1.05125
1.08642
0.996257
0.909532
0.857067
0.874321
0.89203
0.970919
1.06117
1.05043
1.04395
1.09277
1.00732
0.920627
0.868425
0.883408
0.891452
0.96165
1.05715
1.04866
1.03726
1.09752
1.01648
0.9318
0.882937
0.893032
0.89172
0.952271
1.05271
1.04694
1.03259
1.10092
1.02401
0.94258
0.898722
0.902777
0.892889
0.942859
1.04762
1.04485
1.02933
1.10355
1.02997
0.953023
0.915715
0.911829
0.895181
0.933862
1.04283
1.04225
1.02654
1.10565
1.03486
0.963076
0.932442
0.920277
0.897603
0.926085
1.038
1.03938
1.02443
1.10749
1.03885
0.972822
0.948806
0.928382
0.900336
0.919693
1.03254
1.03608
1.02261
1.10892
1.04226
0.982541
0.963869
0.936512
0.902977
0.915229
1.02634
1.03344
1.02077
1.10991
1.04539
0.992486
0.97735
0.945037
0.906551
0.912872
1.01881
1.03125
1.01885
1.11052
1.04868
1.00306
0.989102
0.953439
0.909803
0.912066
1.00991
1.02921
1.01692
1.37191
1.35308
1.34088
1.32807
1.31448
1.30033
1.28487
1.26743
1.24212
1.21827
1.34116
1.3218
1.31342
1.3035
1.29299
1.28117
1.26742
1.25008
1.22436
1.18695
1.32607
1.31057
1.30172
1.29093
1.28085
1.26993
1.25689
1.23959
1.21424
1.17408
1.30881
1.29689
1.28917
1.2789
1.26949
1.25854
1.24541
1.22791
1.20322
1.16281
1.29367
1.28471
1.27926
1.27057
1.26193
1.25102
1.23792
1.22042
1.19637
1.15714
1.28054
1.27408
1.27025
1.26329
1.25601
1.2458
1.23317
1.21575
1.19228
1.15481
1.27096
1.26666
1.26385
1.25803
1.25154
1.24182
1.22977
1.21272
1.19011
1.1547
1.26471
1.26142
1.25874
1.25331
1.24718
1.23789
1.22653
1.21014
1.18865
1.15539
1.2593
1.25612
1.25332
1.24806
1.2422
1.23338
1.22276
1.2072
1.18709
1.15616
1.25194
1.24868
1.24601
1.24119
1.23576
1.22756
1.2178
1.20328
1.18475
1.15633
1.24383
1.24046
1.23795
1.23351
1.22844
1.22082
1.21181
1.19833
1.18133
1.15547
1.23639
1.2329
1.23035
1.22603
1.22111
1.21389
1.20541
1.19283
1.17709
1.15358
1.22982
1.22634
1.2237
1.2194
1.21451
1.2075
1.19933
1.18745
1.17273
1.15124
1.22387
1.22052
1.21787
1.21361
1.20876
1.20192
1.19398
1.18264
1.16876
1.14904
1.21841
1.21529
1.21267
1.20849
1.20372
1.19711
1.18939
1.1786
1.16549
1.14739
1.21337
1.21053
1.20799
1.20396
1.19935
1.19307
1.1857
1.17552
1.16313
1.14649
1.20891
1.20639
1.204
1.20024
1.19584
1.18998
1.18298
1.17336
1.16165
1.14628
1.20526
1.20304
1.2009
1.1975
1.19339
1.18797
1.18139
1.17228
1.16102
1.14642
1.20259
1.20077
1.19896
1.19607
1.19221
1.18702
1.18058
1.17174
1.16083
1.14674
1.20118
1.19965
1.198
1.19534
1.19179
1.18681
1.18041
1.17165
1.16075
1.1469
1.00305
1.01143
1.03067
1.05148
1.0558
1.0554
1.05326
1.05482
1.17949
1.27639
1.00305
1.01143
1.03067
1.05148
1.0558
1.05541
1.05327
1.05474
1.179
1.27353
1.00305
1.01143
1.03067
1.05148
1.0558
1.05541
1.05328
1.05458
1.17845
1.26867
1.00305
1.01143
1.03067
1.05148
1.0558
1.05541
1.05328
1.05435
1.17779
1.26306
1.00305
1.01143
1.03067
1.05148
1.0558
1.05541
1.05328
1.05405
1.17687
1.25761
1.00305
1.01143
1.03067
1.05148
1.0558
1.05542
1.05327
1.05371
1.17543
1.25205
1.00305
1.01143
1.03067
1.05148
1.0558
1.05542
1.05328
1.05327
1.17335
1.24595
1.00305
1.01143
1.03068
1.05148
1.05579
1.05543
1.05334
1.05267
1.17073
1.23891
1.00305
1.01143
1.03068
1.05148
1.05579
1.05543
1.05339
1.05204
1.16788
1.23147
1.00305
1.01143
1.03068
1.05148
1.05579
1.05543
1.05342
1.05142
1.16506
1.22459
1.00305
1.01143
1.03068
1.05149
1.05578
1.05544
1.05343
1.05084
1.16227
1.21868
1.00305
1.01143
1.03068
1.05149
1.05578
1.05544
1.05345
1.05035
1.15938
1.2136
1.00305
1.01143
1.03068
1.05149
1.05577
1.05544
1.05346
1.04996
1.15629
1.20913
1.00305
1.01143
1.03068
1.05149
1.05577
1.05545
1.05348
1.04975
1.15291
1.20509
1.00305
1.01143
1.03068
1.05149
1.05576
1.05545
1.05349
1.04965
1.14919
1.20135
1.00305
1.01143
1.03068
1.0515
1.05575
1.05545
1.05351
1.04959
1.14517
1.19778
1.00305
1.01143
1.03068
1.0515
1.05575
1.05545
1.05353
1.04956
1.14086
1.19435
1.00305
1.01143
1.03069
1.0515
1.05574
1.05545
1.05354
1.04955
1.1363
1.19098
1.00305
1.01143
1.03069
1.0515
1.05573
1.05545
1.05354
1.04956
1.13158
1.18763
1.00305
1.01143
1.03069
1.05151
1.05573
1.05546
1.05354
1.04958
1.12674
1.1845
1.00305
1.01143
1.03069
1.05151
1.05573
1.05546
1.05354
1.04958
1.12674
1.1845
1.00305
1.01143
1.03069
1.0515
1.05573
1.05545
1.05354
1.04956
1.13158
1.18763
1.00305
1.01143
1.03069
1.0515
1.05574
1.05545
1.05354
1.04955
1.1363
1.19098
1.00305
1.01143
1.03068
1.0515
1.05575
1.05545
1.05353
1.04956
1.14086
1.19435
1.00305
1.01143
1.03068
1.0515
1.05575
1.05545
1.05351
1.04959
1.14517
1.19778
1.00305
1.01143
1.03068
1.05149
1.05576
1.05545
1.05349
1.04965
1.14919
1.20135
1.00305
1.01143
1.03068
1.05149
1.05577
1.05545
1.05348
1.04975
1.15291
1.20509
1.00305
1.01143
1.03068
1.05149
1.05577
1.05544
1.05346
1.04996
1.15629
1.20913
1.00305
1.01143
1.03068
1.05149
1.05578
1.05544
1.05345
1.05035
1.15938
1.2136
1.00305
1.01143
1.03068
1.05149
1.05578
1.05544
1.05343
1.05084
1.16227
1.21868
1.00305
1.01143
1.03068
1.05148
1.05579
1.05543
1.05342
1.05142
1.16506
1.22459
1.00305
1.01143
1.03068
1.05148
1.05579
1.05543
1.05339
1.05204
1.16788
1.23147
1.00305
1.01143
1.03068
1.05148
1.05579
1.05543
1.05334
1.05267
1.17073
1.23891
1.00305
1.01143
1.03067
1.05148
1.0558
1.05542
1.05328
1.05327
1.17335
1.24595
1.00305
1.01143
1.03067
1.05148
1.0558
1.05542
1.05327
1.05371
1.17543
1.25205
1.00305
1.01143
1.03067
1.05148
1.0558
1.05541
1.05328
1.05405
1.17687
1.25761
1.00305
1.01143
1.03067
1.05148
1.0558
1.05541
1.05328
1.05435
1.17779
1.26306
1.00305
1.01143
1.03067
1.05148
1.0558
1.05541
1.05328
1.05458
1.17845
1.26867
1.00305
1.01143
1.03067
1.05148
1.0558
1.05541
1.05327
1.05474
1.179
1.27353
1.00305
1.01143
1.03067
1.05148
1.0558
1.0554
1.05326
1.05482
1.17949
1.27639
1.20118
1.19965
1.198
1.19534
1.19179
1.18681
1.18041
1.17165
1.16075
1.1469
1.20259
1.20077
1.19896
1.19607
1.19221
1.18702
1.18058
1.17174
1.16083
1.14674
1.20526
1.20304
1.2009
1.1975
1.19339
1.18797
1.18139
1.17228
1.16102
1.14642
1.20891
1.20639
1.204
1.20024
1.19584
1.18997
1.18298
1.17336
1.16165
1.14628
1.21337
1.21053
1.20799
1.20396
1.19935
1.19307
1.1857
1.17552
1.16313
1.14649
1.21841
1.21529
1.21267
1.20849
1.20372
1.19711
1.18939
1.1786
1.16549
1.14739
1.22387
1.22052
1.21787
1.21361
1.20876
1.20192
1.19398
1.18264
1.16876
1.14904
1.22982
1.22634
1.2237
1.2194
1.21451
1.2075
1.19933
1.18745
1.17273
1.15124
1.23639
1.2329
1.23035
1.22603
1.22111
1.21389
1.20541
1.19283
1.17709
1.15358
1.24383
1.24046
1.23795
1.23351
1.22844
1.22082
1.21181
1.19833
1.18133
1.15547
1.25194
1.24868
1.24601
1.24119
1.23576
1.22756
1.2178
1.20328
1.18475
1.15633
1.2593
1.25612
1.25332
1.24806
1.2422
1.23338
1.22276
1.20721
1.18709
1.15616
1.26471
1.26142
1.25874
1.25331
1.24718
1.23789
1.22654
1.21014
1.18865
1.15539
1.27096
1.26666
1.26385
1.25803
1.25154
1.24182
1.22977
1.21272
1.1901
1.1547
1.28054
1.27408
1.27025
1.26329
1.25601
1.2458
1.23317
1.21575
1.19228
1.15481
1.29367
1.28471
1.27926
1.27057
1.26193
1.25103
1.23792
1.22042
1.19637
1.15714
1.30881
1.29689
1.28917
1.2789
1.26949
1.25854
1.24541
1.22791
1.20321
1.16281
1.32607
1.31057
1.30172
1.29093
1.28085
1.26993
1.25689
1.23959
1.21424
1.17408
1.34116
1.3218
1.31342
1.3035
1.29299
1.28117
1.26742
1.25008
1.22436
1.18694
1.37191
1.35308
1.34088
1.32807
1.31448
1.30033
1.28487
1.26743
1.24212
1.21827
1.11052
1.04868
1.00306
0.989111
0.95345
0.909803
0.912037
1.00986
1.0292
1.01692
1.10991
1.04539
0.992488
0.977344
0.94505
0.906548
0.912838
1.01877
1.03126
1.01885
1.10892
1.04226
0.982548
0.963844
0.936521
0.902984
0.915223
1.02635
1.03344
1.02083
1.10749
1.03884
0.97283
0.948771
0.928387
0.90036
0.919728
1.03257
1.03614
1.02258
1.10564
1.03486
0.963079
0.932414
0.920279
0.897639
0.926154
1.03804
1.03954
1.02444
1.10355
1.02997
0.953023
0.915716
0.911823
0.895212
0.933935
1.04289
1.04231
1.02657
1.10092
1.024
0.942578
0.898758
0.902765
0.892899
0.942901
1.04768
1.04485
1.02934
1.09752
1.01648
0.931799
0.882983
0.893002
0.891693
0.952278
1.0527
1.0469
1.03258
1.09277
1.00733
0.920631
0.868452
0.883376
0.891402
0.961627
1.0571
1.0486
1.03724
1.08641
0.996271
0.909535
0.857053
0.874313
0.891982
0.97087
1.06111
1.05038
1.04394
1.07837
0.983408
0.898439
0.847876
0.865579
0.893628
0.978364
1.06497
1.05316
1.05124
1.06886
0.969011
0.888204
0.841723
0.857333
0.89605
0.984355
1.0687
1.05695
1.05844
1.05816
0.953286
0.878078
0.837332
0.85066
0.898829
0.989272
1.07225
1.0621
1.06543
1.04637
0.937692
0.870769
0.834858
0.845728
0.901355
0.992634
1.07562
1.06967
1.07199
1.03386
0.92436
0.867267
0.833992
0.843376
0.903783
0.994824
1.07864
1.07746
1.0777
1.02229
0.917469
0.869687
0.834575
0.843432
0.905973
0.996152
1.08141
1.08465
1.08258
1.01358
0.91639
0.876982
0.83669
0.845368
0.907949
0.996424
1.08355
1.09165
1.08687
1.01088
0.924504
0.889824
0.840891
0.851294
0.910853
0.996323
1.08626
1.09875
1.09071
1.01501
0.950717
0.91018
0.851442
0.865063
0.916734
0.99915
1.09069
1.10552
1.09405
1.03715
0.991906
0.93436
0.870913
0.884547
0.926566
1.0074
1.09705
1.11133
1.09716
1.19327
1.1691
1.13892
1.10517
1.06693
1.0253
0.975101
0.919729
0.918314
0.955385
1.19254
1.16845
1.13809
1.10443
1.06615
1.02441
0.974115
0.919909
0.920079
0.956394
1.19287
1.16895
1.13766
1.1033
1.06492
1.02299
0.972585
0.920022
0.91891
0.956431
1.19278
1.16858
1.13659
1.10183
1.06324
1.02099
0.97042
0.920331
0.919132
0.957489
1.19297
1.16792
1.13543
1.10012
1.06113
1.01844
0.967665
0.920629
0.919983
0.95936
1.1931
1.1673
1.13424
1.09808
1.05859
1.01529
0.964253
0.921127
0.920996
0.961957
1.19311
1.16666
1.13298
1.09589
1.05579
1.01167
0.960364
0.92197
0.922566
0.965225
1.19261
1.16606
1.13149
1.09354
1.05273
1.00759
0.956002
0.922949
0.925164
0.968562
1.19151
1.16486
1.12943
1.09078
1.04934
1.003
0.951285
0.924202
0.929191
0.972149
1.18964
1.16299
1.12674
1.08745
1.04552
0.997932
0.946549
0.925383
0.934964
0.975685
1.18663
1.16058
1.12336
1.0834
1.04113
0.992305
0.941772
0.926067
0.942365
0.979649
1.18132
1.15781
1.11944
1.07858
1.03609
0.985809
0.937358
0.926831
0.951015
0.984073
1.1723
1.15388
1.11529
1.07308
1.0301
0.978669
0.933246
0.927502
0.960441
0.988584
1.15948
1.14761
1.111
1.06712
1.02344
0.970331
0.929715
0.928887
0.970444
0.992779
1.14479
1.13712
1.10633
1.06096
1.01609
0.961212
0.926805
0.931898
0.980594
0.996564
1.13172
1.12183
1.09764
1.05362
1.00811
0.952162
0.922723
0.938083
0.990868
1.0001
1.12235
1.10303
1.08548
1.04518
0.999437
0.942618
0.918792
0.947763
1.00111
1.00359
1.11643
1.08399
1.06802
1.03531
0.989795
0.933696
0.916032
0.960816
1.01046
1.00718
1.11312
1.06762
1.04569
1.02223
0.979017
0.924205
0.913413
0.97648
1.01858
1.01061
1.11136
1.05546
1.0209
1.00472
0.96558
0.915158
0.912245
0.99506
1.02521
1.01412
1.11136
1.05546
1.0209
1.0047
0.965568
0.915171
0.912254
0.995089
1.02526
1.01413
1.11312
1.06762
1.04569
1.02222
0.979015
0.924214
0.913405
0.976462
1.0186
1.01062
1.11643
1.08399
1.06802
1.03531
0.989798
0.933701
0.916021
0.960785
1.01044
1.00718
1.12235
1.10303
1.08548
1.04518
0.999441
0.94262
0.918788
0.947746
1.0011
1.00359
1.13172
1.12183
1.09764
1.05362
1.00811
0.952163
0.922726
0.938085
0.990863
1.0001
1.14479
1.13713
1.10633
1.06096
1.01609
0.96121
0.92681
0.931906
0.980602
0.996565
1.15948
1.14761
1.111
1.06712
1.02344
0.970329
0.92972
0.928894
0.970455
0.992783
1.1723
1.15388
1.11529
1.07308
1.0301
0.978667
0.933246
0.927505
0.960448
0.988586
1.18132
1.15781
1.11944
1.07858
1.03609
0.985808
0.937358
0.926831
0.951017
0.984073
1.18663
1.16058
1.12336
1.08341
1.04113
0.992305
0.941772
0.926067
0.942364
0.979647
1.18964
1.16299
1.12674
1.08745
1.04552
0.997933
0.94655
0.925383
0.934963
0.975684
1.19151
1.16486
1.12943
1.09078
1.04934
1.003
0.951285
0.924202
0.929191
0.972149
1.19261
1.16606
1.13149
1.09354
1.05273
1.00759
0.956002
0.922949
0.925164
0.968562
1.1931
1.16666
1.13298
1.09589
1.05579
1.01167
0.960363
0.92197
0.922565
0.965224
1.1931
1.1673
1.13424
1.09808
1.05859
1.01529
0.964252
0.921127
0.920995
0.961956
1.19297
1.16792
1.13543
1.10012
1.06113
1.01844
0.967665
0.920629
0.919982
0.959359
1.19278
1.16858
1.13659
1.10183
1.06324
1.02099
0.97042
0.920331
0.919132
0.957489
1.19287
1.16895
1.13766
1.1033
1.06492
1.02299
0.972585
0.920022
0.91891
0.956431
1.19254
1.16845
1.13809
1.10443
1.06615
1.02441
0.974115
0.919909
0.92008
0.956394
1.19327
1.1691
1.13892
1.10517
1.06693
1.0253
0.975101
0.919729
0.918314
0.955385
1.20205
1.19999
1.19802
1.19492
1.19103
1.18575
1.17915
1.17048
1.15974
1.1464
1.20452
1.20007
1.19673
1.19281
1.18843
1.18286
1.17623
1.16793
1.15778
1.14539
1.20026
1.19605
1.19269
1.18864
1.18423
1.17889
1.17273
1.16516
1.15576
1.14438
1.19382
1.19012
1.18735
1.18379
1.17989
1.17519
1.1697
1.16291
1.15437
1.14413
1.18847
1.18537
1.18309
1.18011
1.17686
1.17282
1.16793
1.16191
1.15417
1.14507
1.18459
1.18238
1.18047
1.17793
1.17506
1.1713
1.16676
1.16131
1.15449
1.148
1.18124
1.18035
1.17893
1.17661
1.17387
1.1702
1.16605
1.16131
1.15627
1.15525
1.17722
1.17742
1.17696
1.1748
1.17214
1.16875
1.16541
1.16233
1.16261
1.16841
1.17254
1.17247
1.17278
1.17166
1.16973
1.16761
1.16623
1.16812
1.17632
1.18421
1.17276
1.17115
1.17016
1.16938
1.16853
1.16858
1.17231
1.18278
1.19319
1.19662
1.17425
1.17139
1.17001
1.16911
1.16966
1.17534
1.18864
1.20092
1.20564
1.20359
1.17629
1.17246
1.17094
1.17113
1.17781
1.19346
1.20808
1.21375
1.21204
1.20629
1.17622
1.17312
1.17314
1.18008
1.19757
1.21363
1.22041
1.21946
1.21412
1.20761
1.17491
1.1749
1.18212
1.20108
1.21855
1.22585
1.22541
1.2204
1.21435
1.20794
1.1736
1.18324
1.2035
1.22299
1.23106
1.2305
1.22537
1.21973
1.21378
1.20808
1.1769
1.2043
1.22599
1.23576
1.23529
1.22986
1.22442
1.21902
1.21382
1.20816
1.19118
1.22928
1.24094
1.24064
1.2348
1.22877
1.22386
1.21903
1.21381
1.20762
1.20805
1.24445
1.24811
1.24247
1.23487
1.22865
1.22341
1.21857
1.21332
1.20725
1.22109
1.25218
1.2514
1.24166
1.23433
1.22841
1.22297
1.2178
1.21246
1.20665
1.22732
1.25622
1.2548
1.24288
1.23535
1.22891
1.22328
1.21875
1.21377
1.20774
1.00305
1.01143
1.03069
1.05151
1.05572
1.05546
1.05354
1.04961
1.12073
1.18096
1.00305
1.01143
1.03069
1.05151
1.05571
1.05546
1.05352
1.04966
1.11377
1.17722
1.00305
1.01143
1.03069
1.05151
1.05571
1.05547
1.0535
1.04972
1.10699
1.17451
1.00305
1.01143
1.0307
1.05151
1.05571
1.05547
1.05348
1.04979
1.1004
1.17147
1.00305
1.01143
1.0307
1.0515
1.05571
1.05548
1.05346
1.04986
1.09394
1.1676
1.00305
1.01143
1.0307
1.0515
1.05571
1.05548
1.05344
1.04993
1.08767
1.16326
1.00305
1.01143
1.0307
1.05148
1.05573
1.05548
1.05341
1.05001
1.08165
1.15887
1.00305
1.01143
1.0307
1.05147
1.05575
1.05547
1.05339
1.05009
1.07592
1.15515
1.00305
1.01143
1.03071
1.05145
1.05578
1.05546
1.05338
1.05017
1.07043
1.15174
1.00305
1.01143
1.03071
1.05143
1.05581
1.05544
1.05337
1.05026
1.06524
1.14716
1.00305
1.01143
1.03071
1.0514
1.05585
1.05541
1.05339
1.05034
1.06073
1.14154
1.00305
1.01143
1.03072
1.05138
1.0559
1.05536
1.05343
1.05043
1.05694
1.13515
1.00305
1.01143
1.03072
1.05135
1.05594
1.05531
1.0535
1.05041
1.05402
1.12846
1.00305
1.01143
1.03072
1.05132
1.05599
1.05525
1.05361
1.05024
1.05196
1.12173
1.00305
1.01143
1.03073
1.0513
1.05603
1.05518
1.05374
1.05003
1.05053
1.11515
1.00305
1.01142
1.03073
1.05127
1.05606
1.05512
1.05388
1.04986
1.04963
1.10896
1.00305
1.01142
1.03073
1.05126
1.05609
1.05506
1.05401
1.04972
1.049
1.10376
1.00305
1.01142
1.03073
1.05124
1.05611
1.05501
1.05412
1.04962
1.04853
1.10085
1.00305
1.01142
1.03073
1.05123
1.05612
1.05498
1.0542
1.04954
1.04823
1.09965
1.00305
1.01142
1.03073
1.05122
1.05613
1.05494
1.05425
1.04951
1.04805
1.09916
1.00305
1.01142
1.03073
1.05122
1.05613
1.05494
1.05425
1.04951
1.04805
1.09916
1.00305
1.01142
1.03073
1.05123
1.05612
1.05498
1.0542
1.04954
1.04823
1.09965
1.00305
1.01142
1.03073
1.05124
1.05611
1.05501
1.05412
1.04962
1.04853
1.10085
1.00305
1.01142
1.03073
1.05126
1.05609
1.05506
1.05401
1.04972
1.049
1.10376
1.00305
1.01142
1.03073
1.05127
1.05606
1.05512
1.05388
1.04986
1.04963
1.10896
1.00305
1.01143
1.03073
1.0513
1.05603
1.05518
1.05374
1.05003
1.05053
1.11515
1.00305
1.01143
1.03072
1.05132
1.05599
1.05525
1.05361
1.05024
1.05196
1.12173
1.00305
1.01143
1.03072
1.05135
1.05594
1.05531
1.0535
1.05041
1.05402
1.12846
1.00305
1.01143
1.03072
1.05138
1.0559
1.05536
1.05343
1.05043
1.05694
1.13515
1.00305
1.01143
1.03071
1.0514
1.05585
1.05541
1.05339
1.05034
1.06073
1.14155
1.00305
1.01143
1.03071
1.05143
1.05581
1.05544
1.05337
1.05026
1.06524
1.14716
1.00305
1.01143
1.03071
1.05145
1.05578
1.05546
1.05338
1.05017
1.07043
1.15174
1.00305
1.01143
1.0307
1.05147
1.05575
1.05547
1.05339
1.05009
1.07592
1.15515
1.00305
1.01143
1.0307
1.05148
1.05573
1.05548
1.05341
1.05001
1.08165
1.15887
1.00305
1.01143
1.0307
1.0515
1.05571
1.05548
1.05344
1.04993
1.08767
1.16326
1.00305
1.01143
1.0307
1.0515
1.05571
1.05548
1.05346
1.04986
1.09394
1.1676
1.00305
1.01143
1.0307
1.05151
1.05571
1.05547
1.05348
1.04979
1.1004
1.17147
1.00305
1.01143
1.03069
1.05151
1.05571
1.05547
1.0535
1.04972
1.10699
1.17451
1.00305
1.01143
1.03069
1.05151
1.05571
1.05546
1.05352
1.04966
1.11377
1.17722
1.00305
1.01143
1.03069
1.05151
1.05572
1.05546
1.05354
1.04961
1.12073
1.18096
1.22732
1.25622
1.2548
1.24288
1.23535
1.22891
1.22328
1.21875
1.21377
1.20774
1.22109
1.25218
1.2514
1.24166
1.23433
1.22841
1.22297
1.2178
1.21246
1.20665
1.20805
1.24445
1.24811
1.24247
1.23487
1.22865
1.22341
1.21857
1.21332
1.20725
1.19118
1.22928
1.24094
1.24064
1.2348
1.22877
1.22386
1.21903
1.21381
1.20762
1.1769
1.2043
1.22599
1.23576
1.23529
1.22986
1.22442
1.21902
1.21382
1.20816
1.1736
1.18324
1.2035
1.22299
1.23106
1.2305
1.22537
1.21973
1.21378
1.20808
1.17491
1.1749
1.18212
1.20108
1.21855
1.22585
1.22541
1.2204
1.21435
1.20794
1.17622
1.17312
1.17314
1.18008
1.19757
1.21363
1.22041
1.21946
1.21412
1.20761
1.17629
1.17246
1.17094
1.17113
1.17781
1.19346
1.20808
1.21375
1.21204
1.20629
1.17425
1.17139
1.17001
1.16911
1.16966
1.17534
1.18864
1.20092
1.20564
1.20359
1.17276
1.17115
1.17016
1.16938
1.16853
1.16858
1.17231
1.18278
1.19319
1.19662
1.17254
1.17247
1.17278
1.17166
1.16973
1.16761
1.16623
1.16812
1.17632
1.18421
1.17722
1.17742
1.17696
1.1748
1.17214
1.16875
1.16541
1.16233
1.16261
1.16841
1.18124
1.18035
1.17893
1.17661
1.17387
1.1702
1.16605
1.16131
1.15627
1.15525
1.18459
1.18237
1.18047
1.17793
1.17506
1.1713
1.16676
1.16131
1.15449
1.148
1.18847
1.18537
1.18309
1.18011
1.17686
1.17282
1.16793
1.16191
1.15417
1.14507
1.19382
1.19012
1.18735
1.18379
1.17989
1.17519
1.1697
1.16291
1.15437
1.14413
1.20026
1.19605
1.19269
1.18864
1.18423
1.17889
1.17273
1.16516
1.15576
1.14438
1.20452
1.20007
1.19673
1.19281
1.18843
1.18286
1.17623
1.16793
1.15778
1.14539
1.20205
1.19999
1.19802
1.19492
1.19103
1.18575
1.17915
1.17047
1.15974
1.1464
)
;

boundaryField
{
    inlet
    {
        type            fixedValue;
        value           uniform 1;
    }
    outlet
    {
        type            inletOutlet;
        inletValue      uniform 1;
        value           nonuniform List<scalar> 
100
(
1.01408
1.01058
1.00714
1.00354
1.00006
0.996551
0.992804
0.988641
0.984144
0.979717
0.975744
0.972212
0.968624
0.9653
0.96205
0.959466
0.957607
0.956553
0.956516
0.955517
1.09696
1.0939
1.09064
1.08679
1.08242
1.07742
1.07158
1.06495
1.05795
1.05073
1.0434
1.03688
1.03248
1.0293
1.02655
1.02448
1.02267
1.02079
1.01882
1.01688
1.10025
1.10373
1.10906
1.11844
1.13282
1.15054
1.17109
1.19035
1.20145
1.2051
1.20714
1.20176
1.19023
1.17276
1.1505
1.13131
1.11783
1.10982
1.10425
1.10017
1.01687
1.01882
1.02084
1.02264
1.0245
1.02658
1.0293
1.03247
1.03687
1.0434
1.05072
1.05794
1.06496
1.07161
1.07743
1.08238
1.08672
1.09059
1.09397
1.09714
0.955517
0.956516
0.956553
0.957607
0.959466
0.962051
0.9653
0.968624
0.972212
0.975745
0.979719
0.984144
0.988638
0.992801
0.996549
1.00006
1.00354
1.00714
1.01057
1.01407
)
;
    }
    triangle
    {
        type            zeroGradient;
    }
    top
    {
        type            symmetryPlane;
    }
    bottom
    {
        type            symmetryPlane;
    }
    defaultFaces
    {
        type            empty;
    }
}


// ************************************************************************* //
