/*--------------------------------*- C++ -*----------------------------------*\
  =========                 |
  \\      /  F ield         | OpenFOAM: The Open Source CFD Toolbox
   \\    /   O peration     | Website:  https://openfoam.org
    \\  /    A nd           | Version:  8
     \\/     M anipulation  |
\*---------------------------------------------------------------------------*/
FoamFile
{
    version     2.0;
    format      ascii;
    class       volVectorField;
    location    "1";
    object      U;
}
// * * * * * * * * * * * * * * * * * * * * * * * * * * * * * * * * * * * * * //

dimensions      [0 1 -1 0 0 0 0];

internalField   nonuniform List<vector> 
2600
(
(0.67007 0.0301106 0)
(1.00013 0.0800339 0)
(1.28251 0.192814 0)
(1.46771 0.234135 0)
(1.48769 0.156396 0)
(1.49593 0.0991911 0)
(1.29923 0.200622 0)
(1.05869 0.159039 0)
(1.01995 0.0845605 0)
(1.02964 -0.000205938 0)
(0.209577 -0.0910742 0)
(0.612187 0.0275641 0)
(1.04415 0.158272 0)
(1.36084 0.215203 0)
(1.43962 0.142254 0)
(1.47464 0.0796658 0)
(1.29842 0.187886 0)
(1.05839 0.156261 0)
(1.01046 0.0848965 0)
(1.02407 0.00152913 0)
(0.0180572 -0.100167 0)
(0.294139 0.00802927 0)
(0.752911 0.116394 0)
(1.18209 0.178442 0)
(1.34827 0.116418 0)
(1.40952 0.0605511 0)
(1.28149 0.171399 0)
(1.05562 0.157972 0)
(1.00084 0.0858423 0)
(1.01827 0.00355015 0)
(-0.0541856 -0.11778 0)
(0.10001 -0.0450292 0)
(0.462372 0.0613036 0)
(0.926326 0.13549 0)
(1.18328 0.0945818 0)
(1.26368 0.041967 0)
(1.22004 0.146304 0)
(1.04112 0.152785 0)
(0.98974 0.0802646 0)
(1.01066 0.00412897 0)
(-0.0992972 -0.11029 0)
(-0.0381785 -0.0525662 0)
(0.187999 0.0268798 0)
(0.602734 0.0907916 0)
(0.918209 0.0714781 0)
(1.00038 0.0299038 0)
(1.06398 0.12916 0)
(0.991918 0.149157 0)
(0.969976 0.0772489 0)
(0.995596 0.00126848 0)
(-0.137533 -0.10911 0)
(-0.155132 -0.0662943 0)
(-0.065998 -0.0039716 0)
(0.238492 0.0497702 0)
(0.549546 0.0365203 0)
(0.621682 0.00772447 0)
(0.779447 0.0955735 0)
(0.877576 0.136073 0)
(0.927981 0.0700876 0)
(0.965193 0.00672785 0)
(-0.17073 -0.0949037 0)
(-0.266691 -0.0586837 0)
(-0.289528 -0.00964997 0)
(-0.115017 0.0224628 0)
(0.141303 0.0383037 0)
(0.210553 0.0148993 0)
(0.407329 0.0756748 0)
(0.681988 0.121364 0)
(0.839364 0.0715333 0)
(0.916041 0.00471536 0)
(-0.200164 -0.0745255 0)
(-0.361997 -0.0505618 0)
(-0.457301 -0.0110318 0)
(-0.386797 0.00648197 0)
(-0.190974 0.0145666 0)
(-0.116708 0.00103277 0)
(0.0664632 0.0443775 0)
(0.445553 0.0828361 0)
(0.709777 0.052612 0)
(0.858914 0.0102608 0)
(-0.221634 -0.047251 0)
(-0.422407 -0.03302 0)
(-0.553471 -0.00900874 0)
(-0.535933 0.00327376 0)
(-0.377373 0.0147493 0)
(-0.296185 0.00302205 0)
(-0.147919 0.0282355 0)
(0.2524 0.0616569 0)
(0.589707 0.0433349 0)
(0.814198 0.0052171 0)
(-0.235324 -0.0164808 0)
(-0.4488 -0.0117603 0)
(-0.585839 -0.00379184 0)
(-0.579705 0.00131851 0)
(-0.434383 0.00622487 0)
(-0.349408 0.00147725 0)
(-0.222888 0.0122828 0)
(0.165376 0.024525 0)
(0.530885 0.0187996 0)
(0.796379 -0.001587 0)
(-0.235348 0.0162849 0)
(-0.448843 0.0124094 0)
(-0.585941 0.00467698 0)
(-0.579773 -0.00135309 0)
(-0.434395 -0.00624812 0)
(-0.349427 -0.00107258 0)
(-0.222903 -0.012103 0)
(0.165412 -0.0251459 0)
(0.530638 -0.0175212 0)
(0.796205 -0.00666133 0)
(-0.221737 0.0469542 0)
(-0.422579 0.0327535 0)
(-0.55366 0.0084669 0)
(-0.536135 -0.00356883 0)
(-0.377593 -0.0148763 0)
(-0.296379 -0.00299055 0)
(-0.147941 -0.028146 0)
(0.252537 -0.0615262 0)
(0.589665 -0.0435291 0)
(0.81407 -0.00357063 0)
(-0.200306 0.0741501 0)
(-0.362402 0.0500304 0)
(-0.457656 0.010452 0)
(-0.387134 -0.00640164 0)
(-0.191514 -0.014354 0)
(-0.117187 -0.000768583 0)
(0.066477 -0.0442733 0)
(0.445781 -0.0822637 0)
(0.709994 -0.0532648 0)
(0.858737 -0.00160107 0)
(-0.170953 0.0947314 0)
(-0.267137 0.0586651 0)
(-0.290051 0.00983597 0)
(-0.115471 -0.0227491 0)
(0.140568 -0.0383381 0)
(0.209884 -0.0147972 0)
(0.407406 -0.0756187 0)
(0.682168 -0.121499 0)
(0.839733 -0.0730868 0)
(0.916336 -0.00468307 0)
(-0.137704 0.108979 0)
(-0.155552 0.0664978 0)
(-0.0664594 0.00415778 0)
(0.238176 -0.0496028 0)
(0.548854 -0.036466 0)
(0.621012 -0.00760435 0)
(0.779582 -0.0957007 0)
(0.87771 -0.136692 0)
(0.927945 -0.0700375 0)
(0.965107 -0.00567115 0)
(-0.0994901 0.110144 0)
(-0.038549 0.0527746 0)
(0.187605 -0.026938 0)
(0.602562 -0.090943 0)
(0.917745 -0.0715733 0)
(0.999913 -0.029911 0)
(1.06417 -0.129105 0)
(0.992059 -0.148894 0)
(0.96987 -0.0751048 0)
(0.99539 -0.00522218 0)
(-0.0544209 0.117449 0)
(0.0998191 0.0449913 0)
(0.462286 -0.0609917 0)
(0.92627 -0.135433 0)
(1.18303 -0.0947407 0)
(1.26345 -0.0419769 0)
(1.22022 -0.146259 0)
(1.04124 -0.152408 0)
(0.989533 -0.080893 0)
(1.01073 -0.00594066 0)
(0.0179132 0.100187 0)
(0.294041 -0.00816364 0)
(0.752917 -0.116745 0)
(1.18203 -0.178602 0)
(1.34815 -0.116456 0)
(1.40945 -0.0605503 0)
(1.28158 -0.171617 0)
(1.05567 -0.158298 0)
(1.00106 -0.0861852 0)
(1.01835 -0.00148868 0)
(0.209445 0.091058 0)
(0.612114 -0.0276278 0)
(1.04416 -0.158417 0)
(1.36082 -0.214943 0)
(1.43956 -0.141975 0)
(1.47464 -0.0795503 0)
(1.2984 -0.18799 0)
(1.05838 -0.156535 0)
(1.0107 -0.0852742 0)
(1.02416 -0.000836319 0)
(0.669995 -0.0300783 0)
(1.00007 -0.0800779 0)
(1.2825 -0.19258 0)
(1.46771 -0.233883 0)
(1.48766 -0.156154 0)
(1.49595 -0.0990599 0)
(1.29924 -0.200519 0)
(1.05868 -0.159012 0)
(1.01996 -0.0844589 0)
(1.02953 0.000805262 0)
(1.20089 0.00591326 0)
(1.33439 -0.0773644 0)
(1.447 -0.208658 0)
(1.52731 -0.25364 0)
(1.51302 -0.17747 0)
(1.49548 -0.122289 0)
(1.29479 -0.214855 0)
(1.05865 -0.1638 0)
(1.03109 -0.0859985 0)
(1.03689 0.00145915 0)
(1.31198 0.140344 0)
(1.49245 -0.066575 0)
(1.53617 -0.203648 0)
(1.55967 -0.250045 0)
(1.53133 -0.200494 0)
(1.48306 -0.150225 0)
(1.29318 -0.227982 0)
(1.06173 -0.171069 0)
(1.04289 -0.0906403 0)
(1.04554 0.00280298 0)
(1.31795 0.166425 0)
(1.52071 -0.0637395 0)
(1.55694 -0.209806 0)
(1.5671 -0.245477 0)
(1.53829 -0.221407 0)
(1.46456 -0.179788 0)
(1.29426 -0.234604 0)
(1.06834 -0.178472 0)
(1.054 -0.097089 0)
(1.0541 0.00298758 0)
(1.27642 0.207182 0)
(1.49912 -0.0384086 0)
(1.55274 -0.199472 0)
(1.56964 -0.237608 0)
(1.54971 -0.232967 0)
(1.46584 -0.210993 0)
(1.29601 -0.2339 0)
(1.07316 -0.18204 0)
(1.06366 -0.103467 0)
(1.06232 0.00179206 0)
(1.25137 0.218678 0)
(1.4704 -0.0257066 0)
(1.54304 -0.19498 0)
(1.56889 -0.234675 0)
(1.55195 -0.244586 0)
(1.46397 -0.242972 0)
(1.2978 -0.236757 0)
(1.07596 -0.183536 0)
(1.07205 -0.10929 0)
(1.07028 -0.000319522 0)
(1.22708 0.23169 0)
(1.44225 -0.00175498 0)
(1.52875 -0.171857 0)
(1.56481 -0.228173 0)
(1.54755 -0.254689 0)
(1.46605 -0.273925 0)
(1.30347 -0.239703 0)
(1.07932 -0.185425 0)
(1.07969 -0.116161 0)
(1.07812 -0.00357759 0)
(1.20677 0.238023 0)
(1.41855 0.0167311 0)
(1.52138 -0.159313 0)
(1.56102 -0.225706 0)
(1.53948 -0.265888 0)
(1.47465 -0.304206 0)
(1.31538 -0.243099 0)
(1.08363 -0.186109 0)
(1.08697 -0.125036 0)
(1.08605 -0.0086857 0)
(1.1882 0.241434 0)
(1.3954 0.0375815 0)
(1.50368 -0.125811 0)
(1.55307 -0.216606 0)
(1.52678 -0.278187 0)
(1.48051 -0.333504 0)
(1.32843 -0.24902 0)
(1.08922 -0.184831 0)
(1.09419 -0.133587 0)
(1.09424 -0.0156931 0)
(1.1714 0.24256 0)
(1.37304 0.0566631 0)
(1.49761 -0.105646 0)
(1.54692 -0.212585 0)
(1.5146 -0.291898 0)
(1.48635 -0.359894 0)
(1.34367 -0.25686 0)
(1.09715 -0.182513 0)
(1.10094 -0.137184 0)
(1.10249 -0.0237224 0)
(1.15672 0.242048 0)
(1.35335 0.0718647 0)
(1.48004 -0.0711263 0)
(1.53489 -0.200484 0)
(1.50392 -0.30151 0)
(1.49272 -0.381776 0)
(1.36073 -0.26695 0)
(1.1054 -0.178913 0)
(1.10682 -0.136676 0)
(1.11021 -0.0323444 0)
(1.144 0.240178 0)
(1.33354 0.0879947 0)
(1.46989 -0.0485714 0)
(1.52456 -0.197888 0)
(1.49569 -0.31375 0)
(1.49548 -0.39781 0)
(1.3776 -0.280481 0)
(1.11463 -0.175079 0)
(1.1139 -0.133435 0)
(1.11718 -0.0416833 0)
(1.13244 0.237983 0)
(1.31793 0.099755 0)
(1.45087 -0.0204364 0)
(1.51138 -0.184944 0)
(1.49829 -0.317985 0)
(1.49845 -0.408202 0)
(1.38758 -0.293618 0)
(1.12418 -0.172829 0)
(1.12143 -0.128048 0)
(1.12302 -0.049713 0)
(1.12201 0.235012 0)
(1.3005 0.113375 0)
(1.43662 -0.000879876 0)
(1.49419 -0.180837 0)
(1.50496 -0.324703 0)
(1.49541 -0.41295 0)
(1.39728 -0.309066 0)
(1.13371 -0.172486 0)
(1.12836 -0.122676 0)
(1.12766 -0.0530696 0)
(1.11224 0.232135 0)
(1.2875 0.123187 0)
(1.4205 0.0176405 0)
(1.47169 -0.17083 0)
(1.50892 -0.322798 0)
(1.48887 -0.413572 0)
(1.40853 -0.324471 0)
(1.1442 -0.173306 0)
(1.13484 -0.118414 0)
(1.13134 -0.0527309 0)
(1.10331 0.228992 0)
(1.27206 0.134176 0)
(1.40511 0.0310519 0)
(1.44731 -0.166304 0)
(1.50081 -0.323589 0)
(1.4851 -0.41246 0)
(1.41965 -0.337133 0)
(1.15595 -0.175417 0)
(1.14014 -0.115106 0)
(1.13489 -0.0511258 0)
(1.09515 0.225677 0)
(1.26021 0.142186 0)
(1.38963 0.0407435 0)
(1.42513 -0.160423 0)
(1.48598 -0.318294 0)
(1.48195 -0.405324 0)
(1.42934 -0.348487 0)
(1.16902 -0.17892 0)
(1.14593 -0.113368 0)
(1.13792 -0.0485408 0)
(1.08841 0.22254 0)
(1.24747 0.149729 0)
(1.37294 0.0467454 0)
(1.40986 -0.157336 0)
(1.46778 -0.312798 0)
(1.47707 -0.40081 0)
(1.43471 -0.356513 0)
(1.18251 -0.18202 0)
(1.15017 -0.112143 0)
(1.14141 -0.0456064 0)
(1.08286 0.21939 0)
(1.23626 0.15496 0)
(1.35531 0.0483157 0)
(1.40107 -0.153008 0)
(1.44986 -0.302125 0)
(1.47068 -0.390945 0)
(1.43559 -0.360783 0)
(1.19528 -0.186607 0)
(1.15452 -0.110736 0)
(1.14431 -0.0427776 0)
(1.07891 0.216679 0)
(1.22548 0.158608 0)
(1.33691 0.0461906 0)
(1.39374 -0.149476 0)
(1.43415 -0.291606 0)
(1.47188 -0.38427 0)
(1.43296 -0.361181 0)
(1.20774 -0.191314 0)
(1.15786 -0.109427 0)
(1.1471 -0.0407649 0)
(1.07605 0.214459 0)
(1.21529 0.159962 0)
(1.31791 0.0410163 0)
(1.38336 -0.145714 0)
(1.4205 -0.27761 0)
(1.47803 -0.375445 0)
(1.42776 -0.356824 0)
(1.22187 -0.196757 0)
(1.16183 -0.107863 0)
(1.15006 -0.0393718 0)
(0.376825 0.128852 0)
(0.447037 0.161682 0)
(0.487951 0.214433 0)
(0.532379 0.254193 0)
(0.572061 0.287984 0)
(0.611259 0.316446 0)
(0.652009 0.343429 0)
(0.701019 0.369503 0)
(0.767329 0.403045 0)
(0.88824 0.433848 0)
(0.405073 0.156438 0)
(0.458384 0.178014 0)
(0.487751 0.218794 0)
(0.528517 0.254093 0)
(0.566693 0.287404 0)
(0.606638 0.31595 0)
(0.649072 0.343201 0)
(0.700273 0.369845 0)
(0.770059 0.40409 0)
(0.88921 0.428584 0)
(0.458001 0.151145 0)
(0.499025 0.165825 0)
(0.516105 0.197669 0)
(0.547832 0.230063 0)
(0.578346 0.264464 0)
(0.615604 0.294823 0)
(0.658378 0.324595 0)
(0.71196 0.352644 0)
(0.78538 0.387271 0)
(0.90861 0.401015 0)
(0.5098 0.160239 0)
(0.543437 0.180168 0)
(0.552828 0.209907 0)
(0.579854 0.234858 0)
(0.604272 0.262244 0)
(0.637106 0.287052 0)
(0.675222 0.313517 0)
(0.724702 0.338426 0)
(0.795995 0.369701 0)
(0.915769 0.377195 0)
(0.555724 0.160355 0)
(0.582929 0.180405 0)
(0.589772 0.208824 0)
(0.61412 0.232676 0)
(0.634074 0.259361 0)
(0.664303 0.28281 0)
(0.699875 0.30804 0)
(0.74815 0.330419 0)
(0.818773 0.358832 0)
(0.93619 0.360921 0)
(0.595748 0.165938 0)
(0.616028 0.185418 0)
(0.620746 0.211569 0)
(0.642626 0.233289 0)
(0.660489 0.257892 0)
(0.68977 0.278868 0)
(0.723894 0.30254 0)
(0.771125 0.322322 0)
(0.839586 0.347216 0)
(0.951121 0.34703 0)
(0.630416 0.171463 0)
(0.644359 0.188576 0)
(0.647458 0.210772 0)
(0.66658 0.229602 0)
(0.682694 0.252156 0)
(0.710956 0.271489 0)
(0.743652 0.29406 0)
(0.789698 0.311958 0)
(0.855226 0.333931 0)
(0.959999 0.33345 0)
(0.657955 0.179605 0)
(0.668634 0.193733 0)
(0.67214 0.212417 0)
(0.689795 0.228669 0)
(0.705101 0.249062 0)
(0.732332 0.26626 0)
(0.763498 0.28711 0)
(0.807922 0.302938 0)
(0.869671 0.321581 0)
(0.966454 0.320687 0)
(0.680864 0.184258 0)
(0.69117 0.195489 0)
(0.695497 0.211386 0)
(0.71203 0.225913 0)
(0.726629 0.244543 0)
(0.752609 0.26014 0)
(0.782133 0.279483 0)
(0.824728 0.293787 0)
(0.88286 0.309902 0)
(0.97118 0.30911 0)
(0.702393 0.1875 0)
(0.713453 0.197499 0)
(0.718442 0.211725 0)
(0.734047 0.224824 0)
(0.748142 0.241602 0)
(0.772793 0.255439 0)
(0.80062 0.272987 0)
(0.840918 0.285569 0)
(0.894826 0.299112 0)
(0.975479 0.298811 0)
(0.723339 0.18927 0)
(0.734926 0.198283 0)
(0.740176 0.210963 0)
(0.754903 0.222869 0)
(0.7685 0.238147 0)
(0.791831 0.250791 0)
(0.81804 0.266905 0)
(0.856081 0.278429 0)
(0.905786 0.289548 0)
(0.978931 0.28944 0)
(0.742884 0.190167 0)
(0.754657 0.19839 0)
(0.760054 0.209892 0)
(0.774006 0.220837 0)
(0.7871 0.23475 0)
(0.809069 0.246294 0)
(0.833619 0.261002 0)
(0.869312 0.27164 0)
(0.915501 0.281252 0)
(0.981596 0.281145 0)
(0.760803 0.189694 0)
(0.772376 0.19736 0)
(0.777758 0.207919 0)
(0.790931 0.218066 0)
(0.803443 0.230805 0)
(0.824038 0.241585 0)
(0.846971 0.255203 0)
(0.880319 0.265121 0)
(0.923249 0.273657 0)
(0.983159 0.273587 0)
(0.77733 0.188768 0)
(0.788342 0.196115 0)
(0.793534 0.205912 0)
(0.805843 0.215413 0)
(0.817636 0.227044 0)
(0.836695 0.23709 0)
(0.857981 0.249596 0)
(0.888977 0.258723 0)
(0.928777 0.266232 0)
(0.983425 0.266364 0)
(0.792487 0.187497 0)
(0.80257 0.194704 0)
(0.807357 0.203854 0)
(0.818592 0.212868 0)
(0.829541 0.223483 0)
(0.846965 0.232878 0)
(0.866802 0.244297 0)
(0.895811 0.25274 0)
(0.932784 0.259303 0)
(0.98272 0.259551 0)
(0.806085 0.186208 0)
(0.814886 0.193405 0)
(0.81908 0.202019 0)
(0.829019 0.21071 0)
(0.839203 0.22054 0)
(0.855128 0.229341 0)
(0.873827 0.239598 0)
(0.900957 0.247132 0)
(0.935209 0.252742 0)
(0.981167 0.253043 0)
(0.817535 0.185488 0)
(0.824875 0.192676 0)
(0.828537 0.200859 0)
(0.837249 0.209101 0)
(0.846669 0.217952 0)
(0.861174 0.225984 0)
(0.879159 0.235117 0)
(0.905161 0.241918 0)
(0.937787 0.24684 0)
(0.980524 0.24713 0)
(0.826036 0.185501 0)
(0.832186 0.192314 0)
(0.835487 0.199682 0)
(0.843347 0.207248 0)
(0.852508 0.215435 0)
(0.866312 0.222911 0)
(0.883935 0.231066 0)
(0.908647 0.236933 0)
(0.93929 0.240985 0)
(0.979594 0.241313 0)
(0.832038 0.185888 0)
(0.837398 0.192111 0)
(0.840962 0.198821 0)
(0.848295 0.205589 0)
(0.857205 0.212743 0)
(0.870754 0.219281 0)
(0.888322 0.226511 0)
(0.912724 0.23197 0)
(0.942525 0.235498 0)
(0.980653 0.235841 0)
(0.836963 0.186248 0)
(0.842001 0.191541 0)
(0.845738 0.19732 0)
(0.853801 0.203139 0)
(0.863807 0.20969 0)
(0.877837 0.215641 0)
(0.89521 0.222129 0)
(0.918449 0.227097 0)
(0.9467 0.230302 0)
(0.982727 0.231068 0)
(1.406 -3.88098e-08 0)
(1.3786 2.1294e-07 0)
(1.32577 -3.05874e-07 0)
(1.26192 -1.81317e-06 0)
(1.24368 2.27218e-06 0)
(1.23606 5.00593e-06 0)
(1.2304 -4.17667e-05 0)
(1.21844 -9.83328e-05 0)
(0.872747 0.00481607 0)
(0.472272 0.0139392 0)
(1.406 -1.19321e-07 0)
(1.3786 6.69704e-07 0)
(1.32577 -1.03279e-06 0)
(1.26192 -5.58044e-06 0)
(1.24368 7.48275e-06 0)
(1.23605 1.30986e-05 0)
(1.23047 -0.000136098 0)
(1.21833 -0.000118943 0)
(0.877161 0.0139173 0)
(0.49598 0.0402874 0)
(1.406 -1.97812e-07 0)
(1.3786 1.12224e-06 0)
(1.32577 -1.80271e-06 0)
(1.26192 -9.31994e-06 0)
(1.24368 1.27311e-05 0)
(1.23602 1.30829e-05 0)
(1.2306 -0.000186728 0)
(1.21814 -0.000117337 0)
(0.882593 0.0214207 0)
(0.528949 0.0599432 0)
(1.406 -2.7298e-07 0)
(1.3786 1.56178e-06 0)
(1.32577 -2.57135e-06 0)
(1.26192 -1.30065e-05 0)
(1.24369 1.74499e-05 0)
(1.23598 2.10085e-05 0)
(1.23074 -0.000246855 0)
(1.21794 -4.22476e-05 0)
(0.886579 0.0288733 0)
(0.560544 0.0784373 0)
(1.406 -3.43895e-07 0)
(1.3786 1.98803e-06 0)
(1.32577 -3.37519e-06 0)
(1.26191 -1.66757e-05 0)
(1.2437 2.31183e-05 0)
(1.23594 1.60714e-05 0)
(1.23084 -0.000261844 0)
(1.21785 0.000118243 0)
(0.891805 0.0355016 0)
(0.591753 0.0909539 0)
(1.406 -4.0935e-07 0)
(1.3786 2.3969e-06 0)
(1.32577 -4.21696e-06 0)
(1.26191 -2.0374e-05 0)
(1.2437 2.79075e-05 0)
(1.2359 2.54985e-05 0)
(1.23087 -0.000328648 0)
(1.21796 0.000380601 0)
(0.897662 0.0416507 0)
(0.620806 0.102263 0)
(1.406 -4.68231e-07 0)
(1.3786 2.78398e-06 0)
(1.32577 -5.09518e-06 0)
(1.26191 -2.41824e-05 0)
(1.24371 3.46562e-05 0)
(1.23587 2.33516e-05 0)
(1.23092 -0.000388522 0)
(1.21822 0.000730869 0)
(0.904422 0.0470801 0)
(0.649068 0.110068 0)
(1.406 -5.19612e-07 0)
(1.3786 3.14533e-06 0)
(1.32577 -6.0081e-06 0)
(1.26191 -2.81871e-05 0)
(1.24372 4.19057e-05 0)
(1.23584 2.09979e-05 0)
(1.23097 -0.000388632 0)
(1.21864 0.00101651 0)
(0.911922 0.0518596 0)
(0.675618 0.117145 0)
(1.406 -5.62777e-07 0)
(1.3786 3.47698e-06 0)
(1.32577 -6.9482e-06 0)
(1.26191 -3.24695e-05 0)
(1.24372 5.10757e-05 0)
(1.23583 9.96878e-06 0)
(1.231 -0.000351344 0)
(1.21931 0.00122651 0)
(0.920154 0.0562595 0)
(0.699629 0.122631 0)
(1.406 -5.97102e-07 0)
(1.3786 3.77544e-06 0)
(1.32576 -7.9057e-06 0)
(1.2619 -3.70675e-05 0)
(1.24373 6.21247e-05 0)
(1.23581 -3.87161e-06 0)
(1.23102 -0.000304915 0)
(1.2202 0.00132829 0)
(0.929682 0.0601638 0)
(0.719763 0.12771 0)
(1.406 -6.25054e-07 0)
(1.3786 4.03747e-06 0)
(1.32576 -8.86964e-06 0)
(1.2619 -4.19998e-05 0)
(1.24374 7.41774e-05 0)
(1.23581 -1.99399e-05 0)
(1.23101 -0.000251775 0)
(1.22115 0.00126822 0)
(0.940228 0.0634878 0)
(0.736648 0.131553 0)
(1.406 -6.42325e-07 0)
(1.3786 4.2603e-06 0)
(1.32576 -9.82588e-06 0)
(1.26189 -4.72536e-05 0)
(1.24375 8.84617e-05 0)
(1.2358 -3.86383e-05 0)
(1.231 -0.000191284 0)
(1.22209 0.000956553 0)
(0.951303 0.0663886 0)
(0.751271 0.13466 0)
(1.406 -6.5037e-07 0)
(1.3786 4.44215e-06 0)
(1.32576 -1.07682e-05 0)
(1.26189 -5.27777e-05 0)
(1.24376 0.000104148 0)
(1.23579 -6.06856e-05 0)
(1.231 -0.000125418 0)
(1.2226 0.0005487 0)
(0.962739 0.068964 0)
(0.764683 0.136753 0)
(1.406 -6.47631e-07 0)
(1.3786 4.58268e-06 0)
(1.32576 -1.16812e-05 0)
(1.26188 -5.84905e-05 0)
(1.24377 0.000121695 0)
(1.23579 -8.73392e-05 0)
(1.23099 -4.94994e-05 0)
(1.22266 0.000225709 0)
(0.974632 0.071055 0)
(0.777444 0.138276 0)
(1.406 -6.33949e-07 0)
(1.3786 4.68193e-06 0)
(1.32575 -1.25549e-05 0)
(1.26187 -6.42772e-05 0)
(1.24378 0.000140534 0)
(1.23578 -0.000117743 0)
(1.23097 3.04638e-05 0)
(1.22266 -5.47701e-07 0)
(0.986848 0.0726097 0)
(0.78983 0.139214 0)
(1.406 -6.12375e-07 0)
(1.3786 4.73637e-06 0)
(1.32575 -1.33835e-05 0)
(1.26187 -7.00075e-05 0)
(1.2438 0.00016048 0)
(1.23577 -0.000151362 0)
(1.23095 0.000109617 0)
(1.22266 -0.000189269 0)
(0.999268 0.0736912 0)
(0.801758 0.139671 0)
(1.406 -5.83474e-07 0)
(1.3786 4.75505e-06 0)
(1.32575 -1.41486e-05 0)
(1.26186 -7.55331e-05 0)
(1.24381 0.000181118 0)
(1.23577 -0.000187613 0)
(1.23094 0.000185224 0)
(1.22263 -0.000319861 0)
(1.01184 0.0742619 0)
(0.812825 0.139997 0)
(1.406 -5.48161e-07 0)
(1.3786 4.73981e-06 0)
(1.32574 -1.48416e-05 0)
(1.26185 -8.06962e-05 0)
(1.24383 0.000202275 0)
(1.23576 -0.000225801 0)
(1.23093 0.000252408 0)
(1.2226 -0.000375479 0)
(1.02452 0.0743443 0)
(0.822529 0.140184 0)
(1.406 -5.07792e-07 0)
(1.3786 4.68027e-06 0)
(1.32574 -1.54406e-05 0)
(1.26184 -8.53068e-05 0)
(1.24384 0.000223488 0)
(1.23576 -0.00026541 0)
(1.23093 0.000314277 0)
(1.22256 -0.000409226 0)
(1.03727 0.0741419 0)
(0.830621 0.140451 0)
(1.406 -4.63889e-07 0)
(1.3786 4.5906e-06 0)
(1.32574 -1.59626e-05 0)
(1.26184 -8.90491e-05 0)
(1.24385 0.000244319 0)
(1.23576 -0.000305321 0)
(1.23094 0.000363143 0)
(1.2225 -0.00042317 0)
(1.0499 0.0734785 0)
(0.837141 0.141113 0)
(1.406 4.63923e-07 0)
(1.3786 -4.59099e-06 0)
(1.32574 1.59648e-05 0)
(1.26184 8.90305e-05 0)
(1.24385 -0.000244279 0)
(1.23576 0.00030527 0)
(1.23094 -0.000363072 0)
(1.2225 0.000423109 0)
(1.0499 -0.0734786 0)
(0.837141 -0.141113 0)
(1.406 5.07824e-07 0)
(1.3786 -4.68065e-06 0)
(1.32574 1.54426e-05 0)
(1.26184 8.52916e-05 0)
(1.24384 -0.000223448 0)
(1.23576 0.000265372 0)
(1.23093 -0.000314206 0)
(1.22256 0.000409164 0)
(1.03727 -0.0741418 0)
(0.830621 -0.140451 0)
(1.406 5.4819e-07 0)
(1.3786 -4.74014e-06 0)
(1.32574 1.48434e-05 0)
(1.26185 8.0684e-05 0)
(1.24383 -0.000202241 0)
(1.23576 0.000225774 0)
(1.23093 -0.000252392 0)
(1.2226 0.000375424 0)
(1.02452 -0.0743443 0)
(0.822529 -0.140184 0)
(1.406 5.83499e-07 0)
(1.3786 -4.75538e-06 0)
(1.32575 1.41501e-05 0)
(1.26186 7.55236e-05 0)
(1.24381 -0.000181087 0)
(1.23577 0.00018759 0)
(1.23094 -0.000185183 0)
(1.22263 0.000319907 0)
(1.01184 -0.0742618 0)
(0.812826 -0.139997 0)
(1.406 6.12392e-07 0)
(1.3786 -4.73659e-06 0)
(1.32575 1.33847e-05 0)
(1.26187 7.00002e-05 0)
(1.2438 -0.00016046 0)
(1.23577 0.000151345 0)
(1.23095 -0.000109622 0)
(1.22266 0.000189348 0)
(0.999268 -0.0736912 0)
(0.801758 -0.139671 0)
(1.406 6.33959e-07 0)
(1.3786 -4.6821e-06 0)
(1.32575 1.25557e-05 0)
(1.26187 6.42717e-05 0)
(1.24378 -0.000140521 0)
(1.23578 0.000117751 0)
(1.23097 -3.04716e-05 0)
(1.22266 5.62928e-07 0)
(0.986848 -0.0726097 0)
(0.78983 -0.139214 0)
(1.406 6.47635e-07 0)
(1.3786 -4.5828e-06 0)
(1.32576 1.16818e-05 0)
(1.26188 5.84869e-05 0)
(1.24377 -0.000121687 0)
(1.23579 8.73627e-05 0)
(1.23099 4.94507e-05 0)
(1.22266 -0.000225753 0)
(0.974632 -0.071055 0)
(0.777444 -0.138276 0)
(1.406 6.50366e-07 0)
(1.3786 -4.44221e-06 0)
(1.32576 1.07685e-05 0)
(1.26189 5.27761e-05 0)
(1.24376 -0.000104141 0)
(1.23579 6.07086e-05 0)
(1.231 0.000125368 0)
(1.2226 -0.000548688 0)
(0.962739 -0.068964 0)
(0.764683 -0.136753 0)
(1.406 6.42317e-07 0)
(1.3786 -4.2603e-06 0)
(1.32576 9.82588e-06 0)
(1.26189 4.72543e-05 0)
(1.24375 -8.84569e-05 0)
(1.2358 3.86505e-05 0)
(1.231 0.000191227 0)
(1.22209 -0.000956512 0)
(0.951303 -0.0663885 0)
(0.751271 -0.13466 0)
(1.406 6.25044e-07 0)
(1.3786 -4.03741e-06 0)
(1.32576 8.8693e-06 0)
(1.2619 4.20025e-05 0)
(1.24374 -7.41719e-05 0)
(1.23581 1.99451e-05 0)
(1.23101 0.000251734 0)
(1.22115 -0.00126818 0)
(0.940228 -0.0634877 0)
(0.736648 -0.131553 0)
(1.406 5.97086e-07 0)
(1.3786 -3.77532e-06 0)
(1.32576 7.90506e-06 0)
(1.2619 3.7072e-05 0)
(1.24373 -6.2123e-05 0)
(1.23581 3.87636e-06 0)
(1.23102 0.000304887 0)
(1.2202 -0.00132826 0)
(0.929683 -0.0601636 0)
(0.719763 -0.12771 0)
(1.406 5.62757e-07 0)
(1.3786 -3.47681e-06 0)
(1.32577 6.9473e-06 0)
(1.26191 3.24752e-05 0)
(1.24372 -5.10751e-05 0)
(1.23583 -9.95729e-06 0)
(1.231 0.000351304 0)
(1.21931 -0.00122653 0)
(0.920154 -0.0562595 0)
(0.699629 -0.122631 0)
(1.406 5.1959e-07 0)
(1.3786 -3.14512e-06 0)
(1.32577 6.00699e-06 0)
(1.26191 2.81931e-05 0)
(1.24372 -4.19065e-05 0)
(1.23584 -2.09848e-05 0)
(1.23097 0.000388562 0)
(1.21864 -0.00101651 0)
(0.911922 -0.0518595 0)
(0.675618 -0.117145 0)
(1.406 4.68209e-07 0)
(1.3786 -2.78375e-06 0)
(1.32577 5.09391e-06 0)
(1.26191 2.41879e-05 0)
(1.24371 -3.46576e-05 0)
(1.23587 -2.33328e-05 0)
(1.23092 0.000388454 0)
(1.21822 -0.000730928 0)
(0.904422 -0.0470801 0)
(0.649069 -0.110068 0)
(1.406 4.09329e-07 0)
(1.3786 -2.39665e-06 0)
(1.32577 4.21556e-06 0)
(1.26191 2.03785e-05 0)
(1.2437 -2.79045e-05 0)
(1.2359 -2.54977e-05 0)
(1.23087 0.000328604 0)
(1.21796 -0.000380615 0)
(0.897662 -0.0416508 0)
(0.620806 -0.102263 0)
(1.406 3.43878e-07 0)
(1.3786 -1.98778e-06 0)
(1.32577 3.37371e-06 0)
(1.26191 1.6679e-05 0)
(1.2437 -2.31137e-05 0)
(1.23594 -1.60631e-05 0)
(1.23084 0.000261828 0)
(1.21785 -0.000118319 0)
(0.891805 -0.0355017 0)
(0.591753 -0.0909539 0)
(1.406 2.72966e-07 0)
(1.3786 -1.56154e-06 0)
(1.32577 2.56979e-06 0)
(1.26192 1.30089e-05 0)
(1.24369 -1.74423e-05 0)
(1.23598 -2.09943e-05 0)
(1.23074 0.000246837 0)
(1.21794 4.21887e-05 0)
(0.886579 -0.0288734 0)
(0.560544 -0.0784374 0)
(1.406 1.97803e-07 0)
(1.3786 -1.12201e-06 0)
(1.32577 1.80107e-06 0)
(1.26192 9.3218e-06 0)
(1.24368 -1.2724e-05 0)
(1.23602 -1.30739e-05 0)
(1.2306 0.000186719 0)
(1.21814 0.000117234 0)
(0.882593 -0.0214209 0)
(0.528949 -0.0599433 0)
(1.406 1.19316e-07 0)
(1.3786 -6.69489e-07 0)
(1.32577 1.03125e-06 0)
(1.26192 5.58214e-06 0)
(1.24368 -7.48068e-06 0)
(1.23605 -1.29848e-05 0)
(1.23047 0.000136114 0)
(1.21833 0.000118926 0)
(0.877161 -0.0139174 0)
(0.49598 -0.0402876 0)
(1.406 3.88061e-08 0)
(1.3786 -2.12731e-07 0)
(1.32577 3.044e-07 0)
(1.26192 1.81461e-06 0)
(1.24368 -2.25975e-06 0)
(1.23606 -5.16486e-06 0)
(1.2304 4.18115e-05 0)
(1.21844 9.83e-05 0)
(0.872747 -0.0048161 0)
(0.472272 -0.0139392 0)
(0.836963 -0.186248 0)
(0.842002 -0.191541 0)
(0.845739 -0.19732 0)
(0.853801 -0.203139 0)
(0.863808 -0.20969 0)
(0.877837 -0.215641 0)
(0.89521 -0.222129 0)
(0.91845 -0.227096 0)
(0.946701 -0.230301 0)
(0.982728 -0.231067 0)
(0.832039 -0.185888 0)
(0.837399 -0.19211 0)
(0.840963 -0.198821 0)
(0.848295 -0.205589 0)
(0.857205 -0.212743 0)
(0.870754 -0.219281 0)
(0.888322 -0.226511 0)
(0.912725 -0.23197 0)
(0.942526 -0.235498 0)
(0.980654 -0.23584 0)
(0.826036 -0.185501 0)
(0.832186 -0.192313 0)
(0.835487 -0.199682 0)
(0.843347 -0.207247 0)
(0.852508 -0.215435 0)
(0.866312 -0.22291 0)
(0.883936 -0.231066 0)
(0.908647 -0.236933 0)
(0.939291 -0.240985 0)
(0.979594 -0.241313 0)
(0.817535 -0.185488 0)
(0.824876 -0.192676 0)
(0.828537 -0.200859 0)
(0.837249 -0.209101 0)
(0.846669 -0.217952 0)
(0.861175 -0.225984 0)
(0.879159 -0.235117 0)
(0.905162 -0.241917 0)
(0.937788 -0.24684 0)
(0.980525 -0.24713 0)
(0.806086 -0.186208 0)
(0.814886 -0.193405 0)
(0.81908 -0.202019 0)
(0.829019 -0.21071 0)
(0.839203 -0.22054 0)
(0.855129 -0.229341 0)
(0.873827 -0.239598 0)
(0.900958 -0.247132 0)
(0.93521 -0.252742 0)
(0.981167 -0.253044 0)
(0.792487 -0.187496 0)
(0.80257 -0.194704 0)
(0.807357 -0.203854 0)
(0.818593 -0.212868 0)
(0.829542 -0.223483 0)
(0.846965 -0.232878 0)
(0.866802 -0.244298 0)
(0.895812 -0.25274 0)
(0.932783 -0.259304 0)
(0.98272 -0.259553 0)
(0.77733 -0.188768 0)
(0.788342 -0.196115 0)
(0.793535 -0.205912 0)
(0.805843 -0.215413 0)
(0.817637 -0.227044 0)
(0.836696 -0.23709 0)
(0.857982 -0.249596 0)
(0.888977 -0.258723 0)
(0.928776 -0.266232 0)
(0.983424 -0.266365 0)
(0.760804 -0.189694 0)
(0.772376 -0.19736 0)
(0.777758 -0.207919 0)
(0.790931 -0.218066 0)
(0.803444 -0.230805 0)
(0.824038 -0.241585 0)
(0.846971 -0.255204 0)
(0.880319 -0.265121 0)
(0.923249 -0.273658 0)
(0.983158 -0.273587 0)
(0.742884 -0.190167 0)
(0.754657 -0.19839 0)
(0.760054 -0.209892 0)
(0.774006 -0.220837 0)
(0.7871 -0.23475 0)
(0.809069 -0.246294 0)
(0.833619 -0.261003 0)
(0.869312 -0.271641 0)
(0.9155 -0.281253 0)
(0.981596 -0.281144 0)
(0.723339 -0.18927 0)
(0.734926 -0.198283 0)
(0.740176 -0.210963 0)
(0.754903 -0.222869 0)
(0.7685 -0.238147 0)
(0.791832 -0.250791 0)
(0.81804 -0.266906 0)
(0.856081 -0.278429 0)
(0.905786 -0.289548 0)
(0.978934 -0.289437 0)
(0.702393 -0.1875 0)
(0.713453 -0.1975 0)
(0.718442 -0.211725 0)
(0.734048 -0.224824 0)
(0.748142 -0.241602 0)
(0.772793 -0.255439 0)
(0.800619 -0.272988 0)
(0.840917 -0.28557 0)
(0.894827 -0.299111 0)
(0.975486 -0.298808 0)
(0.680864 -0.184258 0)
(0.691171 -0.195489 0)
(0.695497 -0.211386 0)
(0.71203 -0.225914 0)
(0.726629 -0.244543 0)
(0.752609 -0.260141 0)
(0.782133 -0.279484 0)
(0.824727 -0.293788 0)
(0.882862 -0.309901 0)
(0.971188 -0.309107 0)
(0.657955 -0.179605 0)
(0.668634 -0.193733 0)
(0.67214 -0.212417 0)
(0.689795 -0.228669 0)
(0.705102 -0.249062 0)
(0.732332 -0.266261 0)
(0.763498 -0.28711 0)
(0.807922 -0.302938 0)
(0.869674 -0.32158 0)
(0.966461 -0.320686 0)
(0.630417 -0.171464 0)
(0.644359 -0.188577 0)
(0.647459 -0.210772 0)
(0.66658 -0.229602 0)
(0.682694 -0.252157 0)
(0.710956 -0.271489 0)
(0.743652 -0.29406 0)
(0.789699 -0.311959 0)
(0.855229 -0.33393 0)
(0.960003 -0.33345 0)
(0.595748 -0.165938 0)
(0.616029 -0.185418 0)
(0.620747 -0.211569 0)
(0.642626 -0.233289 0)
(0.66049 -0.257892 0)
(0.68977 -0.278868 0)
(0.723894 -0.30254 0)
(0.771126 -0.322323 0)
(0.839588 -0.347216 0)
(0.951124 -0.34703 0)
(0.555724 -0.160355 0)
(0.582929 -0.180405 0)
(0.589772 -0.208824 0)
(0.61412 -0.232676 0)
(0.634074 -0.259361 0)
(0.664303 -0.28281 0)
(0.699875 -0.30804 0)
(0.74815 -0.33042 0)
(0.818775 -0.358832 0)
(0.936195 -0.360918 0)
(0.5098 -0.160239 0)
(0.543437 -0.180168 0)
(0.552829 -0.209907 0)
(0.579854 -0.234858 0)
(0.604272 -0.262244 0)
(0.637106 -0.287052 0)
(0.675222 -0.313517 0)
(0.724703 -0.338426 0)
(0.795997 -0.369701 0)
(0.915776 -0.377191 0)
(0.458001 -0.151145 0)
(0.499025 -0.165825 0)
(0.516105 -0.197669 0)
(0.547832 -0.230063 0)
(0.578346 -0.264464 0)
(0.615604 -0.294823 0)
(0.658378 -0.324595 0)
(0.711961 -0.352644 0)
(0.785383 -0.387272 0)
(0.908616 -0.401014 0)
(0.405073 -0.156438 0)
(0.458384 -0.178014 0)
(0.487751 -0.218794 0)
(0.528517 -0.254093 0)
(0.566693 -0.287404 0)
(0.606638 -0.31595 0)
(0.649072 -0.343201 0)
(0.700274 -0.369845 0)
(0.770061 -0.40409 0)
(0.889214 -0.428585 0)
(0.376825 -0.128852 0)
(0.447037 -0.161682 0)
(0.487951 -0.214433 0)
(0.532379 -0.254192 0)
(0.572061 -0.287984 0)
(0.611259 -0.316446 0)
(0.652009 -0.343429 0)
(0.701019 -0.369503 0)
(0.767331 -0.403045 0)
(0.888246 -0.433852 0)
(1.07605 -0.214459 0)
(1.21529 -0.159968 0)
(1.3179 -0.0410067 0)
(1.38336 0.145697 0)
(1.42051 0.27754 0)
(1.478 0.375537 0)
(1.42779 0.356871 0)
(1.22187 0.196878 0)
(1.16188 0.107917 0)
(1.15009 0.0393911 0)
(1.07891 -0.216682 0)
(1.22548 -0.158615 0)
(1.3369 -0.0461965 0)
(1.39374 0.149494 0)
(1.43418 0.291601 0)
(1.47185 0.384247 0)
(1.43297 0.361293 0)
(1.20771 0.191362 0)
(1.158 0.10935 0)
(1.14716 0.0407701 0)
(1.08286 -0.219394 0)
(1.23626 -0.154964 0)
(1.35531 -0.0483312 0)
(1.40107 0.153072 0)
(1.44986 0.302097 0)
(1.47072 0.390929 0)
(1.43562 0.360801 0)
(1.19524 0.186617 0)
(1.15458 0.110682 0)
(1.14452 0.0427922 0)
(1.08841 -0.222541 0)
(1.24747 -0.14972 0)
(1.37294 -0.0467638 0)
(1.40985 0.157431 0)
(1.46779 0.312812 0)
(1.47709 0.400684 0)
(1.43473 0.356412 0)
(1.18249 0.181949 0)
(1.14989 0.11218 0)
(1.141 0.0454983 0)
(1.09515 -0.225675 0)
(1.26021 -0.142171 0)
(1.38963 -0.0407506 0)
(1.42513 0.160503 0)
(1.48598 0.318268 0)
(1.48198 0.405231 0)
(1.42936 0.348336 0)
(1.16904 0.178815 0)
(1.14571 0.113376 0)
(1.13806 0.0485611 0)
(1.10331 -0.228989 0)
(1.27207 -0.134155 0)
(1.40511 -0.0310466 0)
(1.44731 0.166311 0)
(1.50079 0.323604 0)
(1.48508 0.412366 0)
(1.41964 0.336973 0)
(1.15598 0.175216 0)
(1.14026 0.11507 0)
(1.1349 0.0511534 0)
(1.11225 -0.232136 0)
(1.2875 -0.123171 0)
(1.4205 -0.0176316 0)
(1.4717 0.170741 0)
(1.50891 0.322817 0)
(1.48879 0.413572 0)
(1.4085 0.324366 0)
(1.14419 0.173153 0)
(1.13491 0.118296 0)
(1.13135 0.052725 0)
(1.12202 -0.235009 0)
(1.30051 -0.113371 0)
(1.4366 0.00088475 0)
(1.4942 0.18067 0)
(1.50494 0.324808 0)
(1.49542 0.413011 0)
(1.39725 0.309019 0)
(1.13372 0.172498 0)
(1.12838 0.122578 0)
(1.12767 0.0530313 0)
(1.13245 -0.23797 0)
(1.31794 -0.0997652 0)
(1.45085 0.0204256 0)
(1.51141 0.184838 0)
(1.49825 0.318092 0)
(1.49859 0.408276 0)
(1.38755 0.293701 0)
(1.12418 0.172945 0)
(1.12145 0.128049 0)
(1.12303 0.0496835 0)
(1.14401 -0.240154 0)