/*--------------------------------*- C++ -*----------------------------------*\
  =========                 |
  \\      /  F ield         | OpenFOAM: The Open Source CFD Toolbox
   \\    /   O peration     | Website:  https://openfoam.org
    \\  /    A nd           | Version:  7
     \\/     M anipulation  |
\*---------------------------------------------------------------------------*/
FoamFile
{
    version     2.0;
    format      ascii;
    class       volScalarField;
    location    "0.3";
    object      rho;
}
// * * * * * * * * * * * * * * * * * * * * * * * * * * * * * * * * * * * * * //

dimensions      [1 -3 0 0 0 0 0];

internalField   nonuniform List<scalar> 
103200
(
0.621346
0.697612
0.692877
0.706155
0.715833
0.726984
0.746497
0.770724
0.790708
0.802173
0.797843
0.771796
0.723919
0.6708
0.627066
0.591653
0.564055
0.547577
0.539019
0.533769
0.52675
0.523891
0.514965
0.51328
0.526725
0.524852
0.529213
0.541979
0.544751
0.543779
0.539447
0.540455
0.548118
0.562587
0.567878
0.569842
0.570705
0.56248
0.550957
0.5432
0.536392
0.536561
0.539816
0.542629
0.543221
0.543213
0.542922
0.542571
0.54422
0.545506
0.544585
0.543948
0.54456
0.547699
0.552477
0.556451
0.556558
0.773975
1.16411
1.2298
0.69403
0.724056
0.717251
0.726699
0.739031
0.753831
0.772949
0.795671
0.815738
0.8251
0.816094
0.783231
0.736358
0.68066
0.632378
0.599395
0.573255
0.556354
0.545037
0.535729
0.525974
0.514728
0.502436
0.489248
0.498802
0.502013
0.501174
0.515135
0.524129
0.525694
0.523484
0.525264
0.535286
0.550254
0.552662
0.556414
0.559992
0.554094
0.544015
0.533206
0.52843
0.530103
0.534482
0.538916
0.540428
0.540977
0.541072
0.541625
0.542946
0.543038
0.541442
0.540839
0.541787
0.545792
0.550881
0.550063
0.551604
0.82688
1.18562
1.23302
0.759968
0.762771
0.759326
0.761898
0.768924
0.781379
0.798816
0.820431
0.836224
0.838546
0.823126
0.788756
0.738451
0.68194
0.632377
0.599174
0.57369
0.557463
0.546249
0.535781
0.524193
0.509787
0.494072
0.477025
0.476141
0.480162
0.473742
0.484414
0.504105
0.507658
0.50646
0.508385
0.519209
0.534056
0.539335
0.546725
0.551389
0.54445
0.534014
0.522242
0.519868
0.52315
0.530949
0.536998
0.538883
0.538883
0.538219
0.538558
0.539813
0.53869
0.536256
0.534665
0.535549
0.540436
0.54592
0.542023
0.55188
0.889618
1.20414
1.23393
0.777593
0.78399
0.78472
0.785678
0.788425
0.798146
0.815122
0.833553
0.844076
0.840506
0.820685
0.785011
0.735049
0.677987
0.627405
0.594725
0.570654
0.55589
0.544452
0.533417
0.521742
0.507967
0.492052
0.475223
0.464012
0.46017
0.447699
0.452092
0.480693
0.488568
0.488167
0.488605
0.498991
0.51568
0.528399
0.538735
0.541382
0.533054
0.521076
0.51055
0.512373
0.520212
0.530781
0.536268
0.537636
0.537097
0.536744
0.537708
0.537498
0.534567
0.530948
0.527948
0.527526
0.531706
0.536531
0.53461
0.557902
0.95349
1.21375
1.23285
0.784769
0.790642
0.794703
0.795809
0.798537
0.807882
0.821363
0.83404
0.840203
0.83483
0.813828
0.777513
0.728824
0.670509
0.617901
0.585976
0.563908
0.551463
0.541691
0.531853
0.520729
0.507305
0.490894
0.472669
0.455118
0.441008
0.424843
0.421523
0.451281
0.46819
0.468768
0.467224
0.477305
0.497611
0.516689
0.528775
0.52994
0.522537
0.5077
0.504245
0.509486
0.520534
0.531652
0.536055
0.536377
0.535778
0.536554
0.537837
0.535387
0.531095
0.52578
0.521263
0.519729
0.523518
0.527834
0.527775
0.573119
1.01841
1.2149
1.23184
0.789562
0.793335
0.797998
0.800013
0.804147
0.811182
0.819214
0.828009
0.831913
0.825543
0.804237
0.768699
0.71647
0.656177
0.60563
0.577077
0.558437
0.549205
0.541369
0.533671
0.523902
0.508529
0.49114
0.469955
0.448461
0.427397
0.410674
0.398217
0.420365
0.446097
0.44705
0.444976
0.454054
0.478102
0.506406
0.518604
0.518695
0.511814
0.501829
0.502244
0.510023
0.522928
0.532864
0.535413
0.535068
0.535541
0.537385
0.536726
0.532428
0.526233
0.520036
0.516997
0.51703
0.519286
0.521158
0.521947
0.603531
1.08578
1.21423
1.23183
0.794722
0.797001
0.800292
0.801877
0.805186
0.808265
0.812575
0.820198
0.823599
0.815299
0.792589
0.753593
0.697609
0.6392
0.596503
0.57383
0.559193
0.551382
0.546488
0.540073
0.52825
0.509469
0.489724
0.466955
0.443298
0.420429
0.403996
0.388484
0.395914
0.424304
0.424199
0.421122
0.428883
0.459179
0.496673
0.507127
0.506388
0.504008
0.500715
0.503963
0.51283
0.525679
0.532625
0.533562
0.533963
0.535685
0.536713
0.533359
0.527454
0.521004
0.517302
0.515437
0.516707
0.517038
0.516016
0.516836
0.652603
1.13204
1.21573
1.23192
0.800675
0.800272
0.800565
0.799795
0.800911
0.801499
0.806027
0.814689
0.815966
0.803949
0.778601
0.734526
0.675219
0.624041
0.591954
0.574698
0.564612
0.56013
0.556484
0.546452
0.529325
0.507887
0.486878
0.463057
0.437719
0.414555
0.396095
0.385462
0.379009
0.399841
0.403609
0.398129
0.404815
0.441705
0.4837
0.491967
0.493265
0.499862
0.502031
0.506374
0.515407
0.526848
0.530235
0.531747
0.532335
0.53379
0.532555
0.527816
0.522297
0.518338
0.515816
0.515007
0.516419
0.515216
0.512194
0.512177
0.705903
1.15785
1.21725
1.23449
0.804872
0.801898
0.79803
0.794153
0.793158
0.79543
0.803538
0.810949
0.808535
0.792259
0.763084
0.714253
0.653884
0.61176
0.588956
0.578509
0.574977
0.572217
0.564108
0.54758
0.527118
0.505657
0.483585
0.458135
0.430453
0.406035
0.384038
0.37578
0.362887
0.370369
0.382906
0.378966
0.388146
0.424081
0.465035
0.477182
0.485775
0.49718
0.503633
0.507424
0.516665
0.524407
0.527967
0.528697
0.528933
0.529445
0.526348
0.521736
0.517894
0.515001
0.513475
0.514882
0.515313
0.513791
0.508622
0.507906
0.759245
1.17422
1.21894
1.23879
0.807461
0.801743
0.794615
0.788971
0.78888
0.793716
0.802504
0.807306
0.801437
0.782342
0.748898
0.695435
0.636162
0.601409
0.587721
0.585825
0.585047
0.578749
0.565957
0.545746
0.524694
0.504025
0.480059
0.453243
0.424843
0.399941
0.374126
0.360606
0.349764
0.347254
0.361788
0.364286
0.373798
0.404249
0.442466
0.468561
0.483794
0.496709
0.502757
0.506176
0.514735
0.521947
0.524535
0.525989
0.526414
0.524967
0.521726
0.5181
0.515042
0.512945
0.512105
0.513293
0.51292
0.510941
0.50441
0.508054
0.817411
1.18912
1.21983
1.24259
0.806549
0.801271
0.79351
0.787676
0.7881
0.793947
0.801586
0.803299
0.794539
0.773711
0.735646
0.67864
0.622909
0.595326
0.589699
0.591818
0.590143
0.580615
0.564313
0.543353
0.523919
0.502617
0.476855
0.4494
0.4209
0.399026
0.374155
0.354059
0.346272
0.339396
0.349777
0.353683
0.358596
0.380613
0.42522
0.465348
0.486083
0.494689
0.50023
0.502813
0.511908
0.517567
0.521864
0.524204
0.523332
0.521513
0.518894
0.516435
0.513896
0.511927
0.51105
0.511001
0.50887
0.506327
0.501757
0.51346
0.879601
1.20009
1.22138
1.24546
0.802421
0.798092
0.791183
0.786459
0.787637
0.793502
0.799356
0.798704
0.787798
0.764531
0.721766
0.664089
0.615236
0.593888
0.592283
0.594549
0.591024
0.579571
0.562794
0.544076
0.525075
0.502401
0.474011
0.444
0.413684
0.393684
0.375019
0.354463
0.347103
0.340642
0.34517
0.346905
0.343866
0.359515
0.414262
0.465472
0.484217
0.492202
0.495376
0.500146
0.507891
0.514192
0.519671
0.520804
0.519241
0.518741
0.517188
0.515419
0.513765
0.511987
0.510568
0.507169
0.503775
0.502735
0.501123
0.525897
0.944469
1.19976
1.2221
1.24801
0.795141
0.791526
0.786808
0.784302
0.785822
0.790979
0.795035
0.79281
0.779657
0.752447
0.707279
0.653425
0.612184
0.594298
0.593263
0.594577
0.589243
0.577708
0.562513
0.54583
0.526341
0.501391
0.471359
0.438923
0.405651
0.380897
0.366912
0.351114
0.343521
0.338579
0.339391
0.339851
0.331546
0.344646
0.403535
0.461158
0.480327
0.487997
0.49025
0.497649
0.505909
0.513349
0.517225
0.517298
0.51757
0.517983
0.516928
0.51517
0.513016
0.511205
0.508436
0.504683
0.502199
0.501854
0.501191
0.552566
1.0165
1.19597
1.22332
1.24998
0.786372
0.78385
0.781431
0.780356
0.782308
0.786482
0.788764
0.784443
0.768618
0.739263
0.695358
0.647193
0.611882
0.594591
0.591494
0.590694
0.585096
0.575606
0.562742
0.546442
0.524873
0.496857
0.464171
0.430243
0.397214
0.369625
0.353675
0.341047
0.333217
0.326811
0.323973
0.325066
0.321901
0.338765
0.394391
0.45362
0.473738
0.481098
0.486198
0.495911
0.505633
0.512667
0.514933
0.516806
0.519173
0.518156
0.516833
0.516318
0.514822
0.512678
0.510193
0.50649
0.503982
0.502646
0.502917
0.600686
1.06722
1.19035
1.22431
1.2516
0.779871
0.777748
0.776271
0.775786
0.777533
0.780127
0.780484
0.773799
0.75655
0.728152
0.687054
0.643367
0.612243
0.594073
0.58726
0.584308
0.580536
0.573526
0.561398
0.542922
0.51716
0.485995
0.451842
0.416692
0.383547
0.35738
0.34052
0.327034
0.318888
0.313886
0.308049
0.306278
0.31116
0.338563
0.387539
0.443369
0.466394
0.474093
0.483262
0.495146
0.506179
0.513439
0.517091
0.520011
0.523457
0.523571
0.522626
0.521104
0.519016
0.517398
0.514724
0.510339
0.507245
0.504565
0.506556
0.646802
1.09472
1.18362
1.22434
1.2528
0.776254
0.774273
0.773081
0.77239
0.773051
0.773877
0.771693
0.762844
0.745671
0.718563
0.679404
0.639237
0.611605
0.592662
0.582559
0.578807
0.576692
0.570277
0.555191
0.532146
0.504816
0.475079
0.44379
0.409679
0.375407
0.344794
0.323929
0.310173
0.303457
0.30448
0.299962
0.296485
0.305853
0.338119
0.38151
0.431012
0.458683
0.468835
0.481152
0.495019
0.506731
0.514186
0.519272
0.524476
0.52862
0.528072
0.526356
0.524739
0.524287
0.523858
0.521231
0.517771
0.514103
0.509309
0.511326
0.685923
1.11804
1.18233
1.2265
1.25324
0.774927
0.772745
0.771762
0.770513
0.769549
0.76801
0.763183
0.752812
0.735867
0.709064
0.669047
0.631729
0.608806
0.59098
0.578511
0.574587
0.572425
0.563205
0.543072
0.518783
0.495995
0.471493
0.444076
0.412274
0.376867
0.342398
0.316927
0.299583
0.290445
0.29464
0.29545
0.296423
0.308813
0.338291
0.374724
0.416441
0.446742
0.462339
0.478648
0.494497
0.506211
0.514302
0.522007
0.529589
0.532479
0.531005
0.529595
0.530253
0.532134
0.531637
0.528302
0.52503
0.522228
0.517886
0.520253
0.723535
1.1381
1.18534
1.22765
1.25268
0.774752
0.772903
0.771192
0.768695
0.765876
0.761874
0.755444
0.744544
0.725906
0.694067
0.653312
0.620977
0.603242
0.588991
0.576458
0.571479
0.566029
0.551974
0.530066
0.510952
0.493966
0.475414
0.451165
0.420076
0.383625
0.34606
0.317156
0.296366
0.28647
0.288768
0.292679
0.299259
0.314544
0.337813
0.367495
0.404118
0.434705
0.456161
0.476478
0.493381
0.504731
0.514215
0.5253
0.533263
0.535321
0.534358
0.534313
0.537627
0.540404
0.538623
0.535084
0.531508
0.529102
0.525507
0.531322
0.767847
1.15305
1.19098
1.22846
1.25179
0.77523
0.772782
0.769977
0.765689
0.760942
0.755269
0.748187
0.735457
0.711548
0.673477
0.635907
0.609637
0.596923
0.586455
0.574779
0.567432
0.557473
0.540362
0.522048
0.51076
0.501662
0.488894
0.467491
0.434351
0.394467
0.353347
0.320758
0.2977
0.289526
0.291467
0.293862
0.300271
0.315151
0.334363
0.360843
0.394185
0.425686
0.452069
0.475697
0.491966
0.502914
0.515433
0.528827
0.536162
0.536997
0.537823
0.541526
0.546417
0.546466
0.544213
0.541642
0.537884
0.535538
0.532919
0.54304
0.81235
1.15999
1.19706
1.22982
1.25266
0.774699
0.771532
0.767159
0.761153
0.754943
0.748713
0.740384
0.722678
0.69098
0.653702
0.623069
0.601104
0.590757
0.582856
0.573317
0.563787
0.548935
0.531613
0.520423
0.517508
0.517302
0.509057
0.488393
0.453451
0.408562
0.362845
0.326509
0.301506
0.29393
0.298121
0.302162
0.305562
0.315097
0.33162
0.357643
0.388859
0.418867
0.446304
0.46899
0.483515
0.497291
0.514603
0.529181
0.53711
0.539762
0.543936
0.55198
0.554044
0.551056
0.548645
0.545237
0.540998
0.541407
0.541845
0.558697
0.854844
1.16119
1.19962
1.23349
1.25731
0.772283
0.768449
0.762594
0.755643
0.749307
0.742373
0.730681
0.705444
0.670335
0.643428
0.616925
0.596309
0.585405
0.578533
0.570443
0.55896
0.541036
0.527037
0.522427
0.527794
0.535316
0.530077
0.510742
0.474673
0.426525
0.375173
0.333836
0.306832
0.296999
0.303585
0.313538
0.318395
0.326317
0.341987
0.365612
0.392072
0.41679
0.439635
0.456516
0.470973
0.490407
0.513456
0.528739
0.537939
0.543782
0.552237
0.561077
0.560247
0.55706
0.554523
0.549804
0.546961
0.55041
0.553461
0.57814
0.89395
1.15912
1.20113
1.24016
1.26417
0.767445
0.763235
0.756765
0.749943
0.744081
0.73525
0.71754
0.687119
0.662155
0.641198
0.616811
0.594597
0.581141
0.57371
0.566422
0.554565
0.535984
0.524902
0.525937
0.539122
0.552975
0.550746
0.531696
0.494442
0.443618
0.390041
0.345057
0.316526
0.302733
0.308126
0.322419
0.33164
0.342121
0.357081
0.377011
0.397123
0.414237
0.428146
0.440805
0.459144
0.486577
0.513989
0.528324
0.539238
0.547887
0.559317
0.566519
0.563731
0.561139
0.560032
0.557302
0.557955
0.562448
0.564844
0.591164
0.927416
1.15662
1.20425
1.24714
1.27062
0.760336
0.75602
0.749943
0.743838
0.737549
0.72499
0.702356
0.678918
0.662984
0.644542
0.619973
0.595018
0.578767
0.569531
0.561746
0.549632
0.533387
0.526184
0.532863
0.550901
0.56688
0.565146
0.545309
0.508086
0.459316
0.406548
0.361566
0.330633
0.314776
0.317702
0.330324
0.339414
0.351037
0.364259
0.379096
0.391081
0.400373
0.410314
0.425942
0.451846
0.4849
0.51141
0.524487
0.538099
0.548996
0.562021
0.568449
0.565424
0.567043
0.568664
0.56768
0.569761
0.571671
0.571259
0.595564
0.95419
1.15569
1.21051
1.25156
1.27486
0.75127
0.746857
0.741574
0.735347
0.726819
0.710663
0.691319
0.678201
0.667013
0.650046
0.624871
0.597009
0.577889
0.566555
0.558218
0.546249
0.533775
0.529059
0.538049
0.554906
0.570027
0.571034
0.550835
0.514527
0.470494
0.423814
0.382288
0.350508
0.331159
0.334663
0.34412
0.347237
0.354693
0.363939
0.372533
0.378929
0.388607
0.403595
0.426222
0.455301
0.486013
0.505489
0.517611
0.533772
0.547757
0.5626
0.567202
0.566322
0.574242
0.577425
0.575557
0.577654
0.577459
0.573247
0.593242
0.975033
1.15914
1.21884
1.25331
1.27463
0.738792
0.734203
0.729992
0.72233
0.710266
0.696294
0.687346
0.680307
0.670996
0.654946
0.629978
0.600402
0.578391
0.565017
0.556075
0.544833
0.535357
0.532399
0.540727
0.555088
0.568231
0.570857
0.5528
0.518247
0.47941
0.441059
0.404246
0.372959
0.351758
0.354777
0.361899
0.356728
0.35738
0.36089
0.365919
0.375738
0.391226
0.412238
0.437917
0.463248
0.482821
0.493796
0.507367
0.527766
0.545084
0.559847
0.56391
0.566483
0.578978
0.58049
0.579471
0.582157
0.578592
0.571844
0.596817
0.993662
1.16714
1.22291
1.25064
1.27162
0.722842
0.718032
0.713558
0.704592
0.695118
0.690134
0.686909
0.681466
0.67239
0.656803
0.633952
0.604801
0.580516
0.565165
0.555645
0.545328
0.537803
0.53556
0.541705
0.552236
0.56333
0.569799
0.555815
0.524094
0.489865
0.45648
0.426243
0.398431
0.378486
0.381774
0.383003
0.367048
0.35938
0.358579
0.363338
0.376116
0.39476
0.416438
0.437102
0.45289
0.463723
0.476826
0.497419
0.5206
0.537163
0.550518
0.556713
0.563672
0.579739
0.580405
0.581075
0.583626
0.579095
0.575609
0.608283
1.00676
1.1728
1.22194
1.24628
1.27093
0.703476
0.699605
0.696388
0.6914
0.688593
0.687454
0.685184
0.679843
0.669903
0.655456
0.636274
0.609898
0.584946
0.567382
0.556815
0.547024
0.540551
0.538117
0.541553
0.548507
0.557931
0.567419
0.560668
0.534404
0.503011
0.471915
0.445956
0.423414
0.410309
0.416213
0.411169
0.380981
0.360831
0.355714
0.358866
0.369913
0.384882
0.401732
0.417078
0.431168
0.44866
0.469553
0.494489
0.516295
0.530418
0.542426
0.54952
0.559331
0.57553
0.575049
0.577619
0.582757
0.576824
0.577614
0.62509
1.01179
1.16898
1.21856
1.24546
1.27667
0.688398
0.686956
0.68689
0.686507
0.686182
0.685205
0.681802
0.674249
0.663499
0.651524
0.63664
0.614589
0.590591
0.571666
0.559581
0.549873
0.54355
0.540535
0.541267
0.544777
0.552659
0.564965
0.56709
0.547375
0.518925
0.489073
0.464908
0.447826
0.441708
0.45132
0.445513
0.395747
0.357733
0.347391
0.348535
0.357615
0.37084
0.387469
0.406687
0.426547
0.449153
0.474263
0.497335
0.513435
0.523499
0.534138
0.542608
0.55659
0.569256
0.567551
0.569751
0.57899
0.571734
0.576089
0.63623
1.0004
1.15808
1.21613
1.24883
1.28754
0.681591
0.682031
0.684027
0.685047
0.684964
0.682742
0.677565
0.668407
0.657445
0.647596
0.636175
0.618091
0.596509
0.577137
0.563994
0.554098
0.547194
0.542992
0.541409
0.542314
0.54865
0.563501
0.572059
0.55919
0.534592
0.507756
0.484396
0.472521
0.470835
0.481807
0.481999
0.408978
0.348564
0.338183
0.341557
0.352521
0.368738
0.388527
0.409103
0.429266
0.450777
0.472026
0.490544
0.500618
0.509098
0.519791
0.527966
0.54351
0.552162
0.555118
0.561067
0.572323
0.561453
0.570938
0.637021
0.977177
1.14466
1.21466
1.25575
1.30054
0.680511
0.68192
0.684029
0.684845
0.683891
0.680539
0.673867
0.663886
0.653303
0.645346
0.636152
0.620657
0.601691
0.583076
0.569205
0.559075
0.55153
0.545988
0.542312
0.541363
0.546119
0.562586
0.57573
0.569464
0.548827
0.526659
0.506234
0.496943
0.496306
0.506405
0.515422
0.422858
0.338528
0.332749
0.339863
0.354357
0.372876
0.392036
0.408342
0.424427
0.442198
0.458267
0.471754
0.48062
0.490761
0.502881
0.512371
0.525477
0.529807
0.533614
0.547198
0.561516
0.551179
0.564549
0.632217
0.948514
1.13008
1.21459
1.26434
1.31075
0.682228
0.683581
0.684661
0.684545
0.68296
0.678666
0.671049
0.661958
0.652722
0.645734
0.637362
0.623013
0.605701
0.588495
0.574816
0.564456
0.556443
0.549387
0.543591
0.541366
0.545186
0.560794
0.576464
0.576171
0.561458
0.544148
0.528911
0.521664
0.52125
0.528769
0.543838
0.44208
0.333897
0.33073
0.342281
0.357943
0.375074
0.389778
0.402127
0.41674
0.434293
0.450955
0.462718
0.470513
0.482528
0.492177
0.50002
0.510311
0.512696
0.519137
0.532304
0.542154
0.538467
0.55446
0.619099
0.917442
1.11617
1.21766
1.27264
1.31605
0.685108
0.685529
0.685479
0.684205
0.681882
0.677719
0.671171
0.663564
0.655604
0.649168
0.640422
0.625871
0.609184
0.593266
0.580029
0.569719
0.561561
0.55329
0.545691
0.542251
0.545662
0.559113
0.576718
0.581371
0.571966
0.559548
0.549922
0.545403
0.548282
0.553781
0.572613
0.471624
0.336595
0.332928
0.347548
0.362297
0.375574
0.387486
0.400905
0.418634
0.437658
0.450741
0.459312
0.46667
0.479632
0.489223
0.494784
0.503506
0.504612
0.511493
0.520221
0.522868
0.521371
0.535318
0.596993
0.886334
1.10835
1.22454
1.27918
1.31599
0.688042
0.687827
0.686078
0.684087
0.68168
0.678118
0.673388
0.668008
0.661436
0.654921
0.645103
0.629592
0.612566
0.597228
0.584651
0.574795
0.566644
0.557459
0.548501
0.543828
0.546839
0.557226
0.574765
0.584161
0.580902
0.572588
0.568615
0.567524
0.5746
0.582997
0.605135
0.5128
0.349987
0.340264
0.356599
0.369879
0.381954
0.393454
0.409222
0.427443
0.441238
0.448975
0.455662
0.464735
0.479571
0.489591
0.49613
0.503687
0.502068
0.505191
0.504597
0.498992
0.498901
0.508547
0.565424
0.857247
1.10577
1.23405
1.28458
1.31418
0.691278
0.68968
0.686875
0.68421
0.68219
0.679964
0.677647
0.674424
0.668881
0.661732
0.650683
0.634195
0.616412
0.601192
0.589054
0.579897
0.571698
0.561588
0.551491
0.545511
0.548141
0.556201
0.573087
0.587108
0.588869
0.582686
0.582632
0.585659
0.597195
0.613368
0.637371
0.559277
0.376667
0.35183
0.368836
0.380937
0.393081
0.405425
0.420981
0.435826
0.444556
0.45055
0.459592
0.472552
0.486563
0.490741
0.493867
0.497482
0.494831
0.497441
0.49267
0.477961
0.476439
0.482133
0.532039
0.831014
1.10762
1.24201
1.28972
1.31545
0.694066
0.691555
0.687736
0.684794
0.683505
0.683181
0.68337
0.682184
0.677244
0.669012
0.656808
0.639525
0.621017
0.605839
0.593737
0.584506
0.576034
0.565238
0.554404
0.547653
0.549707
0.555739
0.571163
0.588618
0.594099
0.588728
0.589791
0.59778
0.615077
0.637114
0.662174
0.606549
0.415187
0.362979
0.379028
0.389747
0.402399
0.416843
0.430639
0.442037
0.448287
0.456982
0.47034
0.483789
0.490915
0.489831
0.491502
0.494227
0.492095
0.495076
0.490956
0.473201
0.472475
0.468465
0.50594
0.799683
1.10814
1.24784
1.29659
1.3241
0.696486
0.693203
0.688992
0.686309
0.686068
0.687569
0.689156
0.688219
0.682965
0.674675
0.662357
0.644934
0.626728
0.611369
0.598958
0.588697
0.579322
0.567954
0.556815
0.549941
0.551452
0.556023
0.570443
0.590816
0.598908
0.593072
0.591994
0.604407
0.626543
0.652695
0.676791
0.65033
0.460964
0.370321
0.385135
0.395708
0.409296
0.424645
0.437032
0.447552
0.454048
0.465724
0.480923
0.489982
0.491379
0.489321
0.494907
0.500331
0.500772
0.504319
0.498216
0.479385
0.481389
0.464049
0.486023
0.766396
1.10339
1.25048
1.30517
1.33872
0.698641
0.695034
0.691216
0.689003
0.689576
0.691757
0.693186
0.691342
0.686239
0.678836
0.668112
0.651546
0.632927
0.617738
0.604522
0.59263
0.581738
0.569658
0.558666
0.552184
0.553597
0.557681
0.570743
0.59145
0.598648
0.590091
0.586768
0.603776
0.634474
0.6649
0.689409
0.687857
0.51294
0.37669
0.389013
0.401551
0.415787
0.431044
0.442587
0.451148
0.461013
0.475367
0.486503
0.493517
0.494591
0.495732
0.505598
0.51009
0.511009
0.513406
0.50439
0.486389
0.487587
0.454831
0.457786
0.737537
1.09259
1.25075
1.31547
1.35555
0.698882
0.695662
0.692811
0.690808
0.691409
0.693111
0.693682
0.69127
0.685657
0.679268
0.670663
0.657057
0.639323
0.62349
0.609628
0.595872
0.583393
0.570707
0.559923
0.554109
0.555899
0.560538
0.572272
0.590248
0.595141
0.585124
0.578821
0.598151
0.635879
0.673734
0.700068
0.718456
0.569906
0.385875
0.392322
0.408548
0.422729
0.435873
0.445394
0.452478
0.467011
0.481824
0.489109
0.493702
0.49711
0.504372
0.514139
0.51442
0.513954
0.514908
0.504196
0.489761
0.488756
0.444422
0.436146
0.723548
1.08161
1.25309
1.3277
1.37353
0.69786
0.695267
0.693137
0.691024
0.690915
0.691635
0.691237
0.688808
0.682846
0.676664
0.670039
0.659185
0.643571
0.627617
0.613102
0.597918
0.58432
0.571256
0.560681
0.555624
0.55808
0.563643
0.574279
0.587803
0.589313
0.578748
0.569959
0.585991
0.626582
0.674646
0.713517
0.746116
0.627263
0.405829
0.39603
0.414731
0.427188
0.435933
0.44203
0.453788
0.469962
0.480951
0.486681
0.491058
0.49758
0.508472
0.514191
0.511133
0.511621
0.512233
0.50307
0.494994
0.489066
0.44182
0.437432
0.731175
1.07565
1.25733
1.34001
1.39132
0.696224
0.694241
0.692612
0.690205
0.688983
0.688336
0.686652
0.683208
0.677452
0.673033
0.667782
0.658597
0.645273
0.629718
0.614963
0.598922
0.584767
0.57165
0.561317
0.556822
0.559713
0.565898
0.57503
0.584197
0.581952
0.572109
0.563253
0.573349
0.613716
0.668494
0.719098
0.764957
0.682857
0.439234
0.398513
0.415311
0.424996
0.432148
0.439013
0.455484
0.467055
0.47549
0.480222
0.486043
0.496665
0.506527
0.508489
0.505853
0.508621
0.508291
0.501781
0.500773
0.487673
0.448009
0.457661
0.747405
1.07508
1.25947
1.34968
1.40567
0.694389
0.692907
0.691372
0.688559
0.686226
0.684278
0.681422
0.676748
0.670457
0.666386
0.663534
0.657559
0.64573
0.631177
0.616041
0.599565
0.585345
0.57233
0.562331
0.558239
0.561104
0.566832
0.57414
0.579573
0.575437
0.567029
0.559057
0.562633
0.599765
0.657792
0.718685
0.77596
0.733497
0.479624
0.39895
0.411398
0.41977
0.427123
0.438619
0.452542
0.460411
0.464728
0.470271
0.481074
0.492851
0.499642
0.499725
0.50069
0.507051
0.507699
0.504049
0.504978
0.484219
0.457489
0.502481
0.778864
1.07887
1.25717
1.35429
1.41396
0.692986
0.691767
0.690033
0.686775
0.683522
0.680785
0.677343
0.672357
0.666069
0.661752
0.658606
0.653894
0.645098
0.63202
0.617141
0.600695
0.586542
0.573781
0.56441
0.560621
0.562851
0.566915
0.572115
0.575013
0.571297
0.564386
0.557473
0.559038
0.589676
0.641612
0.708248
0.773294
0.76968
0.524494
0.395436
0.406327
0.412944
0.423421
0.435498
0.445875
0.449587
0.452117
0.461119
0.474935
0.484465
0.48872
0.489588
0.495666
0.506206
0.5106
0.512268
0.511881
0.486219
0.471408
0.559594
0.823673
1.08191
1.25299
1.35587
1.42076
0.693425
0.69203
0.689428
0.685328
0.681581
0.678579
0.675028
0.670394
0.664761
0.660224
0.655847
0.6508
0.643808
0.632897
0.618796
0.602514
0.587929
0.575854
0.567729
0.564353
0.565461
0.567439
0.570596
0.572031
0.570207
0.564225
0.556529
0.55861
0.585279
0.627279
0.690482
0.761193
0.788367
0.57319
0.392469
0.400793
0.407273
0.419774
0.429174
0.43532
0.436174
0.441079
0.453344
0.464765
0.471723
0.474502
0.478654
0.490807
0.503615
0.512427
0.520492
0.519534
0.49868
0.496268
0.606381
0.864544
1.07977
1.25242
1.36106
1.43423
0.695247
0.693382
0.689681
0.684765
0.68065
0.677817
0.675221
0.671473
0.666168
0.660798
0.654991
0.648987
0.64248
0.633187
0.619664
0.603696
0.589331
0.578504
0.572129
0.569363
0.568925
0.568743
0.570298
0.571391
0.570934
0.565885
0.55704
0.559866
0.580796
0.618288
0.671338
0.743685
0.792427
0.623139
0.393342
0.393798
0.403194
0.41394
0.419832
0.421754
0.422926
0.431503
0.442691
0.450245
0.454548
0.458485
0.468749
0.485233
0.49713
0.509963
0.523261
0.525984
0.517685
0.535631
0.639504
0.884275
1.07235
1.26079
1.37297
1.4556
0.697976
0.695116
0.6905
0.685098
0.681013
0.678897
0.677296
0.674345
0.668882
0.662123
0.6543
0.646594
0.639577
0.630776
0.617571
0.602584
0.589714
0.581152
0.576805
0.574773
0.573054
0.571244
0.572028
0.573607
0.573538
0.567161
0.557906
0.562449
0.57841
0.611864
0.656861
0.722392
0.78328
0.669539
0.404884
0.386804
0.39844
0.405078
0.407319
0.406938
0.410544
0.420069
0.427935
0.432086
0.435825
0.444562
0.461805
0.479336
0.492728
0.50799
0.523627
0.531736
0.540492
0.58769
0.680564
0.882781
1.08031
1.27607
1.38546
1.48005
0.701519
0.697717
0.691975
0.685988
0.682376
0.681361
0.680929
0.678663
0.672507
0.663413
0.652579
0.642192
0.633667
0.624805
0.612299
0.599103
0.588576
0.58275
0.580703
0.579642
0.577757
0.575602
0.575897
0.577965
0.57562
0.566421
0.558804
0.566215
0.581536
0.6108
0.646766
0.702122
0.763935
0.706043
0.425794
0.380546
0.390812
0.392815
0.392599
0.392229
0.398065
0.405327
0.409948
0.41297
0.419872
0.435398
0.456316
0.474366
0.490847
0.507877
0.527338
0.541216
0.567424
0.637593
0.743825
0.911496
1.11375
1.28997
1.39198
1.50216
0.704907
0.700244
0.693681
0.687366
0.684429
0.684786
0.685198
0.683218
0.675825
0.663586
0.648985
0.635639
0.62559
0.616633
0.605432
0.594579
0.586893
0.583534
0.58353
0.583585
0.582326
0.580877
0.580735
0.581686
0.575449
0.56483
0.559856
0.569905
0.587169
0.61545
0.645149
0.685024
0.739878
0.726304
0.451493
0.373393
0.37989
0.377703
0.376958
0.378104
0.383289
0.387397
0.39006
0.39474
0.407163
0.427913
0.449968
0.470122
0.489544
0.513339
0.538273
0.559881
0.598365
0.678385
0.811696
0.969784
1.15264
1.29965
1.40174
1.52904
0.707412
0.702116
0.695265
0.68919
0.687085
0.688371
0.68901
0.686387
0.677088
0.662023
0.6443
0.628712
0.617569
0.608915
0.599587
0.591461
0.586208
0.584274
0.585327
0.586211
0.5862
0.586058
0.585559
0.583568
0.573954
0.562941
0.559868
0.571737
0.592388
0.620813
0.646898
0.67499
0.715296
0.731735
0.477601
0.363549
0.366143
0.361541
0.360813
0.362571
0.365199
0.367199
0.370319
0.378533
0.395382
0.418196
0.441942
0.464966
0.49161
0.52162
0.552905
0.583595
0.634199
0.715015
0.854341
1.02293
1.18048
1.30957
1.42654
1.55993
0.70876
0.703051
0.696365
0.690971
0.689637
0.690851
0.690592
0.686502
0.675253
0.658485
0.639637
0.623189
0.611689
0.603629
0.596262
0.590402
0.586808
0.585517
0.586476
0.587979
0.589533
0.590431
0.589509
0.584159
0.571856
0.560938
0.559024
0.571492
0.594589
0.623557
0.647774
0.667556
0.695511
0.72487
0.502271
0.35148
0.349482
0.344571
0.342807
0.34322
0.344278
0.347202
0.354142
0.366834
0.385208
0.40827
0.433313
0.46134
0.49439
0.529562
0.566988
0.608718
0.671506
0.753286
0.883779
1.05425
1.18725
1.33011
1.45897
1.58459
0.70786
0.702285
0.696271
0.691606
0.690635
0.691104
0.688698
0.682433
0.66924
0.652514
0.634903
0.619308
0.608337
0.601102
0.595341
0.591501
0.588966
0.587157
0.587563
0.589276
0.591947
0.593813
0.592059
0.583244
0.569492
0.557984
0.557647
0.570472
0.594931
0.624539
0.648175
0.664916
0.683655
0.711046
0.524941
0.337275
0.330149
0.324949
0.321482
0.320966
0.323257
0.330093
0.342711
0.359894
0.379635
0.400575
0.426298
0.459037
0.496502
0.535809
0.578812
0.631242
0.707295
0.798095
0.91128
1.06065
1.18987
1.37067
1.48133
1.59054
0.705243
0.700155
0.69501
0.690985
0.689725
0.688437
0.683221
0.67367
0.659099
0.643934
0.629166
0.615759
0.606136
0.600103
0.595982
0.59356
0.591337
0.58872
0.588431
0.590069
0.593414
0.595169
0.592031
0.580799
0.566004
0.555072
0.557002
0.570896
0.596284
0.625762
0.649458
0.667199
0.679484
0.696788
0.537938
0.322162
0.307517
0.300964
0.297915
0.299623
0.305919
0.317194
0.334774
0.355392
0.374991
0.395218
0.422611
0.45837
0.498354
0.54043
0.588619
0.651674
0.740462
0.846176
0.954342
1.08653
1.23058
1.40735
1.48633
1.58131
0.702022
0.697345
0.693007
0.689419
0.687387
0.683724
0.675628
0.662724
0.647457
0.633883
0.621808
0.611099
0.603456
0.598949
0.596369
0.594799
0.592387
0.589893
0.589427
0.590686
0.593667
0.59423
0.589821
0.577371
0.562526
0.552887
0.557064
0.572607
0.599105
0.628121
0.652291
0.67165
0.681091
0.681656
0.538597
0.304315
0.27911
0.274842
0.276546
0.283709
0.294203
0.308553
0.328761
0.35162
0.372327
0.393365
0.421281
0.458555
0.499899
0.544203
0.598918
0.67259
0.769276
0.884195
1.0086
1.13739
1.28377
1.43365
1.48171
1.58156
0.698825
0.694555
0.690828
0.68735
0.684433
0.679101
0.668585
0.652839
0.636353
0.623061
0.612833
0.60464
0.599306
0.596722
0.595586
0.594376
0.592238
0.590573
0.590393
0.591521
0.593326
0.592883
0.587391
0.574253
0.559512
0.551723
0.558196
0.575284
0.601767
0.630236
0.65502
0.675655
0.686981
0.676707
0.532549
0.278056
0.251785
0.254458
0.262994
0.273891
0.286609
0.302723
0.32383
0.347802
0.370724
0.393831
0.422256
0.459127
0.501577
0.549449
0.610619
0.693568
0.794337
0.907387
1.04597
1.18558
1.32628
1.44054
1.48307
1.59683
0.696416
0.692501
0.689008
0.685324
0.681724
0.675325
0.662784
0.644679
0.626282
0.612336
0.603084
0.596922
0.593746
0.59295
0.593262
0.592648
0.591297
0.590629
0.591492
0.59303
0.593974
0.592228
0.585055
0.572022
0.557928
0.551909
0.560372
0.578079
0.602766
0.6304
0.655981
0.677271
0.693368
0.678896
0.520273
0.248589
0.234912
0.245084
0.255809
0.26769
0.28147
0.29847
0.319527
0.343891
0.369449
0.395659
0.424673
0.460046
0.50391
0.556411
0.622613
0.711099
0.813594
0.921899
1.06062
1.21101
1.33717
1.43089
1.49583
1.62083
0.695521
0.691904
0.688416
0.684395
0.680209
0.673065
0.658966
0.638672
0.618253
0.603238
0.594247
0.589368
0.587777
0.588464
0.590028
0.590337
0.590373
0.59082
0.592788
0.595161
0.595699
0.592744
0.584245
0.571702
0.55905
0.554828
0.563801
0.580401
0.602716
0.629173
0.655479
0.678084
0.699335
0.682315
0.503627
0.228845
0.228645
0.240247
0.251468
0.263787
0.27839
0.295812
0.316209
0.340279
0.368007
0.39731
0.426798
0.460655
0.506927
0.565519
0.634125
0.721882
0.824435
0.934346
1.05933
1.20599
1.31815
1.42651
1.50691
1.637
0.696603
0.693186
0.689575
0.685043
0.680094
0.672041
0.656601
0.634595
0.612821
0.596904
0.587707
0.583375
0.582673
0.584546
0.587531
0.588999
0.59002
0.591332