/*--------------------------------*- C++ -*----------------------------------*\
  =========                 |
  \\      /  F ield         | OpenFOAM: The Open Source CFD Toolbox
   \\    /   O peration     | Website:  https://openfoam.org
    \\  /    A nd           | Version:  7
     \\/     M anipulation  |
\*---------------------------------------------------------------------------*/
FoamFile
{
    version     2.0;
    format      ascii;
    class       volScalarField;
    location    "0.3";
    object      T;
}
// * * * * * * * * * * * * * * * * * * * * * * * * * * * * * * * * * * * * * //

dimensions      [0 0 0 1 0 0 0];

internalField   nonuniform List<scalar> 
103200
(
0.934552
0.967814
0.944697
0.932003
0.925132
0.921743
0.91941
0.916143
0.9142
0.912739
0.907979
0.900134
0.889494
0.879996
0.875851
0.874473
0.874984
0.877423
0.879073
0.878667
0.873848
0.866019
0.844921
0.817185
0.794149
0.75951
0.735111
0.723193
0.710588
0.699016
0.693081
0.693314
0.696388
0.703128
0.70582
0.706841
0.707243
0.703275
0.697866
0.694277
0.691259
0.691588
0.693602
0.695254
0.695492
0.69509
0.694286
0.693474
0.693632
0.69345
0.691584
0.689455
0.689224
0.690091
0.691951
0.694111
0.694437
0.808865
0.989925
0.99574
0.861123
0.902368
0.902904
0.89765
0.890387
0.886723
0.884972
0.883938
0.88412
0.883034
0.878587
0.872059
0.866703
0.861571
0.860397
0.865137
0.869092
0.872811
0.875823
0.876402
0.874171
0.868225
0.855735
0.831077
0.810753
0.778527
0.741964
0.725457
0.710975
0.695684
0.686836
0.687023
0.690642
0.697106
0.698258
0.700223
0.702162
0.699367
0.694597
0.689469
0.687399
0.68849
0.69116
0.693581
0.694263
0.694149
0.693712
0.693418
0.693229
0.692412
0.690234
0.688211
0.68816
0.689268
0.691279
0.690946
0.691812
0.841998
0.999004
0.99952
0.815195
0.836061
0.85037
0.853639
0.852036
0.851359
0.852748
0.856395
0.859673
0.859809
0.857362
0.855185
0.853382
0.853385
0.85558
0.861986
0.865895
0.869074
0.87145
0.872164
0.871109
0.866352
0.85675
0.840414
0.823107
0.797075
0.75299
0.729908
0.714692
0.695998
0.681699
0.680999
0.68396
0.689327
0.691378
0.695244
0.69797
0.694709
0.689734
0.684129
0.683119
0.685153
0.689641
0.692864
0.693758
0.693463
0.692632
0.692055
0.692029
0.690428
0.687859
0.685469
0.685324
0.686748
0.688892
0.686914
0.691877
0.873744
1.00462
1.00197
0.80012
0.808608
0.818109
0.823642
0.825871
0.828697
0.833771
0.840303
0.844626
0.845521
0.844916
0.84604
0.849427
0.85256
0.855913
0.862174
0.865246
0.867547
0.868438
0.868399
0.867499
0.864318
0.857189
0.845731
0.831017
0.809649
0.765796
0.735674
0.721909
0.699667
0.678809
0.674293
0.676268
0.680756
0.685608
0.691072
0.692837
0.688921
0.68327
0.678252
0.679399
0.684081
0.689961
0.693048
0.693553
0.692957
0.692162
0.692025
0.691251
0.688562
0.685431
0.682448
0.681384
0.682552
0.684101
0.683129
0.694597
0.898554
1.00743
1.00294
0.798548
0.802202
0.80701
0.811057
0.814633
0.819475
0.824988
0.830902
0.835049
0.836917
0.838526
0.84307
0.850677
0.855675
0.858676
0.863601
0.864742
0.86581
0.866393
0.866418
0.865419
0.862242
0.855954
0.845739
0.83209
0.813378
0.777316
0.740746
0.729253
0.707449
0.679894
0.667791
0.668894
0.672837
0.679534
0.685813
0.686718
0.683315
0.676536
0.675053
0.67828
0.684501
0.690815
0.6935
0.693435
0.692688
0.692356
0.692518
0.690458
0.687139
0.683101
0.679273
0.677589
0.678549
0.679669
0.679627
0.701512
0.919952
1.00855
1.00367
0.799602
0.801691
0.805049
0.808187
0.812023
0.816129
0.820172
0.825085
0.829115
0.831767
0.835859
0.844052
0.852919
0.859306
0.862175
0.864563
0.863645
0.864613
0.865431
0.865765
0.864743
0.860295
0.854113
0.843314
0.829611
0.811856
0.786433
0.747224
0.734607
0.716832
0.683375
0.662275
0.66159
0.664859
0.674569
0.680499
0.680651
0.677531
0.673622
0.674219
0.678789
0.686118
0.692016
0.69364
0.693178
0.69287
0.693299
0.692485
0.689347
0.685184
0.68079
0.677818
0.676478
0.676375
0.676519
0.676756
0.715689
0.944316
1.00973
1.00483
0.801904
0.803196
0.805879
0.808338
0.811464
0.814066
0.81701
0.82187
0.825885
0.828924
0.835026
0.845027
0.855463
0.863076
0.865042
0.86524
0.863831
0.863444
0.864
0.864046
0.862698
0.857028
0.849899
0.839005
0.825575
0.809936
0.791582
0.759971
0.739853
0.725671
0.688896
0.657778
0.653839
0.658619
0.670852
0.674753
0.674233
0.673463
0.672867
0.675186
0.680559
0.687921
0.692238
0.69317
0.693117
0.693565
0.693573
0.691281
0.687407
0.683151
0.680067
0.677546
0.676522
0.675361
0.674069
0.674352
0.740925
0.967826
1.012
1.00618
0.804669
0.804988
0.806471
0.807946
0.810188
0.812155
0.815233
0.820432
0.824006
0.827096
0.834757
0.845974
0.85747
0.864902
0.866247
0.865376
0.862492
0.860497
0.860149
0.85935
0.856282
0.85106
0.844834
0.834322
0.820318
0.80593
0.789452
0.771778
0.744599
0.730543
0.69653
0.656104
0.648352
0.655246
0.666855
0.66773
0.667363
0.670829
0.673389
0.676531
0.682111
0.688717
0.69144
0.692922
0.692728
0.693028
0.692193
0.689059
0.685368
0.682248
0.679646
0.67761
0.676631
0.674649
0.672277
0.672053
0.77516
0.989092
1.01374
1.00829
0.806475
0.805946
0.806055
0.806399
0.807893
0.810612
0.815304
0.819881
0.822552
0.825965
0.834741
0.847147
0.858102
0.864606
0.865623
0.863223
0.858652
0.854835
0.85226
0.849452
0.84677
0.844342
0.840555
0.830916
0.815459
0.799277
0.781832
0.76965
0.746994
0.728917
0.701312
0.658092
0.649221
0.654138
0.662491
0.661828
0.662998
0.668978
0.674185
0.677073
0.682851
0.687604
0.690797
0.691746
0.691555
0.691639
0.68969
0.686612
0.683681
0.680942
0.678648
0.677931
0.676536
0.674349
0.670607
0.670052
0.816239
1.00431
1.01474
1.011
0.807556
0.806011
0.805119
0.804815
0.806684
0.810564
0.815775
0.81947
0.821545
0.82582
0.835735
0.848723
0.857722
0.861936
0.862154
0.858904
0.851503
0.844867
0.841068
0.837848
0.83708
0.838008
0.836379
0.828572
0.813432
0.795782
0.774013
0.760285
0.744767
0.725077
0.704742
0.664648
0.6504
0.653873
0.658626
0.66095
0.662751
0.668973
0.67375
0.676459
0.681987
0.686528
0.689361
0.690563
0.690868
0.690119
0.688117
0.685526
0.682829
0.68034
0.678448
0.677705
0.675979
0.673448
0.668667
0.670273
0.856285
1.01073
1.01558
1.01404
0.807205
0.805865
0.80482
0.804563
0.806799
0.811196
0.816085
0.818867
0.820858
0.826208
0.837005
0.849808
0.85667
0.858639
0.857882
0.85196
0.841858
0.833849
0.829099
0.826559
0.82871
0.83197
0.832183
0.827338
0.814182
0.799414
0.777094
0.756812
0.746037
0.729047
0.71231
0.6746
0.650907
0.652303
0.658395
0.662402
0.665918
0.669058
0.672848
0.675203
0.680775
0.68446
0.6881
0.68998
0.689814
0.688992
0.687429
0.685454
0.68302
0.680589
0.678663
0.677336
0.674638
0.671549
0.66749
0.673149
0.8874
1.01159
1.01761
1.01708
0.805594
0.804679
0.803995
0.804343
0.80706
0.811597
0.815723
0.81795
0.820318
0.826435
0.837507
0.850128
0.856028
0.856149
0.853326
0.844012
0.831833
0.823114
0.818612
0.81755
0.820714
0.825609
0.827008
0.825269
0.814365
0.801094
0.78314
0.760384
0.750939
0.739285
0.723063
0.686152
0.652876
0.651994
0.661508
0.66917
0.669541
0.670433
0.67207
0.674729
0.678934
0.682765
0.687101
0.688653
0.688293
0.688115
0.68719
0.685623
0.683726
0.681564
0.679513
0.676469
0.672863
0.670156
0.667351
0.679264
0.909913
1.01021
1.0203
1.01986
0.802745
0.80218
0.802358
0.803764
0.806822
0.811189
0.814531
0.816509
0.818948
0.824915
0.836711
0.850281
0.856017
0.854053
0.847967
0.835768
0.822357
0.813696
0.809734
0.80941
0.811758
0.815637
0.819401
0.821042
0.813574
0.799694
0.785098
0.764019
0.751206
0.742044
0.726863
0.695326
0.657658
0.654309
0.667146
0.676681
0.674594
0.67222
0.67161
0.674572
0.678795
0.682545
0.68594
0.687306
0.687975
0.688245
0.687567
0.686232
0.684207
0.681984
0.679186
0.67576
0.672422
0.669986
0.667752
0.691953
0.932953
1.01013
1.02329
1.02219
0.799314
0.799173
0.800261
0.802409
0.805858
0.809921
0.812566
0.81396
0.815885
0.822059
0.835703
0.850644
0.856431
0.851666
0.841653
0.82732
0.813789
0.805857
0.80194
0.800356
0.800151
0.80195
0.806159
0.809617
0.80854
0.799015
0.784835
0.764765
0.747812
0.735265
0.720812
0.695939
0.666848
0.665064
0.676213
0.684317
0.678999
0.67291
0.672185
0.675407
0.679423
0.683196
0.685398
0.687252
0.689124
0.688823
0.68815
0.687358
0.685615
0.683323
0.680701
0.677324
0.673859
0.670732
0.669728
0.715414
0.953603
1.01188
1.02596
1.02418
0.796773
0.796759
0.798252
0.800829
0.804361
0.807844
0.809736
0.810272
0.811977
0.819492
0.835177
0.850882
0.85661
0.849118
0.835225
0.819441
0.806807
0.799676
0.79468
0.789557
0.7853
0.783527
0.787186
0.792232
0.795322
0.792581
0.781824
0.761473
0.741379
0.726395
0.710885
0.692617
0.681905
0.684126
0.689289
0.691981
0.683567
0.67486
0.675226
0.678333
0.681778
0.684676
0.686877
0.689392
0.691997
0.692321
0.691713
0.690314
0.688498
0.686819
0.684173
0.680286
0.676468
0.672517
0.67264
0.742168
0.972901
1.0137
1.02779
1.02598
0.79539
0.795407
0.797092
0.799806
0.803027
0.805675
0.806578
0.806357
0.808338
0.817046
0.833918
0.850003
0.855812
0.846939
0.83006
0.813372
0.801643
0.79439
0.786388
0.77643
0.768689
0.765486
0.770681
0.779559
0.784787
0.782577
0.772452
0.753171
0.733935
0.722277
0.707616
0.695499
0.697943
0.705072
0.704484
0.701169
0.690304
0.680697
0.681237
0.683329
0.685385
0.686652
0.688823
0.692526
0.695356
0.695122
0.694016
0.69278
0.692128
0.691263
0.688549
0.685032
0.681108
0.675932
0.675697
0.772084
0.991791
1.01581
1.02996
1.02781
0.794961
0.794887
0.796747
0.799395
0.802019
0.803587
0.803462
0.802714
0.804942
0.813865
0.829993
0.846492
0.853492
0.845301
0.826776
0.809487
0.797863
0.788864
0.776588
0.76351
0.756088
0.754955
0.762281
0.77387
0.781386
0.780728
0.769513
0.748561
0.727829
0.719183
0.707738
0.70376
0.711406
0.719672
0.717632
0.711183
0.700272
0.690052
0.688985
0.68926
0.689176
0.689413
0.691913
0.696468
0.698218
0.697307
0.696288
0.696418
0.69698
0.696037
0.692866
0.689455
0.686252
0.681087
0.68107
0.802358
1.0035
1.01825
1.03201
1.02976
0.795015
0.795107
0.796758
0.798991
0.800825
0.801418
0.800661
0.799598
0.801157
0.807356
0.82235
0.840682
0.849271
0.843729
0.82591
0.807986
0.795046
0.783192
0.76803
0.755499
0.750317
0.750273
0.758252
0.770966
0.780162
0.781314
0.772107
0.751609
0.731646
0.719626
0.708518
0.709392
0.718795
0.728444
0.728034
0.724182
0.714965
0.703848
0.698968
0.69634
0.694078
0.693757
0.696661
0.700421
0.700925
0.69997
0.699626
0.700985
0.701954
0.700207
0.697036
0.693627
0.690777
0.685813
0.687696
0.830191
1.00731
1.02098
1.03452
1.03208
0.795323
0.795249
0.796536
0.798074
0.799107
0.799105
0.79808
0.795888
0.794973
0.797654
0.813255
0.834105
0.844431
0.842084
0.825957
0.807669
0.793268
0.779315
0.764142
0.754004
0.749004
0.749528
0.758501
0.770622
0.780064
0.782151
0.77507
0.757141
0.742313
0.730383
0.714586
0.711607
0.719446
0.729625
0.737002
0.73727
0.73237
0.722131
0.713624
0.70666
0.701554
0.701102
0.703403
0.704888
0.703916
0.703303
0.704507
0.706537
0.70605
0.703832
0.701325
0.697872
0.695086
0.690767
0.694762
0.852149
1.00741
1.02451
1.03775
1.03514
0.795294
0.794979
0.79568
0.796491
0.797011
0.796839
0.795131
0.790516
0.78539
0.787564
0.805889
0.828501
0.840033
0.84033
0.826742
0.808652
0.79277
0.77811
0.766734
0.759343
0.756292
0.75684
0.76374
0.773478
0.780513
0.782506
0.777414
0.762145
0.752213
0.745856
0.730099
0.717298
0.719759
0.729326
0.743777
0.751053
0.750084
0.742152
0.729839
0.717773
0.711037
0.710508
0.711293
0.710747
0.7088
0.709003
0.711844
0.712377
0.709819
0.707252
0.704254
0.700267
0.699045
0.696677
0.703639
0.870648
1.00726
1.02752
1.04176
1.03932
0.794572
0.794003
0.794118
0.794508
0.79509
0.794578
0.791144
0.783286
0.775392
0.78125
0.801139
0.824432
0.836787
0.83861
0.827178
0.809376
0.793468
0.782579
0.775753
0.769778
0.767525
0.765762
0.769772
0.777098
0.782607
0.783264
0.778501
0.767018
0.759249
0.758432
0.74832
0.732306
0.731694
0.741176
0.757737
0.767917
0.769192
0.762721
0.747446
0.732559
0.725142
0.723341
0.72146
0.719016
0.716572
0.71743
0.719697
0.718293
0.714824
0.711774
0.707741
0.704331
0.704714
0.703655
0.714074
0.887491
1.00648
1.03013
1.04651
1.04417
0.792893
0.792158
0.792017
0.792458
0.793277
0.791798
0.785483
0.775386
0.771354
0.779133
0.799255
0.821688
0.834283
0.836773
0.82756
0.81191
0.798462
0.791829
0.789101
0.784441
0.780729
0.775148
0.775348
0.779401
0.783499
0.784357
0.779501
0.772849
0.767346
0.76869
0.764264
0.751378
0.75005
0.757904
0.77114
0.780707
0.783225
0.777257
0.763429
0.751265
0.745623
0.742542
0.736244
0.73132
0.727513
0.727778
0.72781
0.723928
0.719811
0.716785
0.713162
0.711602
0.711876
0.710089
0.721674
0.901379
1.00531
1.03289
1.05153
1.04921
0.790262
0.789458
0.789474
0.790209
0.790763
0.787467
0.77896
0.771693
0.771261
0.779464
0.798564
0.81988
0.832611
0.835221
0.827968
0.815479
0.806268
0.804903
0.806469
0.804047
0.795902
0.782117
0.777992
0.778295
0.783026
0.784861
0.781378
0.778256
0.778037
0.783251
0.780458
0.767552
0.764029
0.769357
0.777483
0.782113
0.783054
0.780239
0.77524
0.772257
0.771184
0.765965
0.754519
0.747602
0.741991
0.740231
0.737799
0.730904
0.727992
0.725197
0.721717
0.719882
0.717875
0.714035
0.725273
0.910249
1.00375
1.03629
1.05609
1.05369
0.786753
0.785876
0.786204
0.786899
0.786303
0.781247
0.774284
0.771189
0.772429
0.780488
0.798219
0.81856
0.831234
0.834097
0.829091
0.820502
0.815819
0.819017
0.823831
0.82181
0.807182
0.786475
0.775671
0.77274
0.776439
0.782637
0.783695
0.785464
0.790754
0.803397
0.801767
0.784428
0.775672
0.776722
0.778865
0.779717
0.781111
0.785302
0.792967
0.798569
0.798796
0.789981
0.776217
0.76789
0.760987
0.757147
0.751027
0.742098
0.740442
0.737174
0.731274
0.727313
0.722467
0.716431
0.725284
0.914717
1.00318
1.0402
1.05976
1.05653
0.781713
0.780763
0.781559
0.78156
0.779218
0.775022
0.772609
0.771941
0.773622
0.781196
0.797899
0.817543
0.830375
0.833533
0.8307
0.826362
0.825718
0.832732
0.839499
0.837761
0.817595
0.789806
0.773357
0.76756
0.76849
0.778594
0.785326
0.79339
0.805017
0.822022
0.824078
0.803387
0.78983
0.785246
0.784097
0.7854
0.791489
0.803103
0.814768
0.82095
0.819013
0.80869
0.798318
0.792381
0.785997
0.779077
0.769309
0.759118
0.756064
0.750063
0.740879
0.734757
0.725656
0.717767
0.728383
0.918003
1.00397
1.04249
1.06177
1.05819
0.775174
0.774114
0.774781
0.774072
0.772718
0.772472
0.772418
0.772312
0.773846
0.780609
0.796772
0.816627
0.830258
0.83392
0.833439
0.832168
0.835362
0.845168
0.852813
0.851855
0.82865
0.795967
0.772901
0.764321
0.76332
0.773719
0.786583
0.800834
0.818135
0.839795
0.845886
0.821591
0.803497
0.79558
0.794356
0.797968
0.806404
0.817265
0.824699
0.8264
0.824972
0.821038
0.819357
0.817869
0.812365
0.80312
0.791094
0.780002
0.774766
0.764829
0.752544
0.743777
0.73137
0.723407
0.736399
0.920864
1.00456
1.04274
1.06315
1.06049
0.767256
0.766426
0.767414
0.768426
0.770078
0.771448
0.771594
0.771424
0.772053
0.778033
0.794403
0.815377
0.830563
0.835674
0.837118
0.837836
0.844002
0.855311
0.863365
0.863834
0.840493
0.80446
0.775474
0.763109
0.760987
0.769871
0.785795
0.803928
0.827521
0.85652
0.870444
0.839626
0.812626
0.80453
0.803586
0.806806
0.812591
0.819117
0.824501
0.82805
0.833021
0.838674
0.843612
0.844675
0.839796
0.83044
0.817438
0.805034
0.795587
0.780228
0.76647
0.756475
0.741231
0.731438
0.748987
0.923169
1.00204
1.04198
1.06535
1.06498
0.761104
0.761152
0.763313
0.76645
0.769239
0.770461
0.770021
0.768816
0.768365
0.774012
0.790776
0.813198
0.8306
0.838169
0.84099
0.843495
0.851476
0.863553
0.87202
0.873451
0.852255
0.814496
0.781803
0.764848
0.760529
0.767561
0.783472
0.803133
0.831187
0.869217
0.895666
0.854406
0.815518
0.805017
0.804374
0.809469
0.816583
0.824842
0.834483
0.84548
0.85727
0.867634
0.872516
0.87306
0.86753
0.859579
0.847891
0.835946
0.822295
0.800841
0.783474
0.772443
0.753401
0.740242
0.762037
0.922227
0.997906
1.04122
1.0684
1.07146
0.758264
0.759177
0.762243
0.765968
0.768737
0.769353
0.768191
0.766082
0.764995
0.770304
0.786748
0.810029
0.830019
0.840413
0.845022
0.84918
0.857955
0.870431
0.879338
0.881425
0.863858
0.825884
0.79001
0.768526
0.762258
0.766549
0.780039
0.79901
0.829274
0.875565
0.913577
0.863939
0.809568
0.799414
0.802755
0.812683
0.825632
0.841073
0.856512
0.870235
0.881998
0.890998
0.897422
0.897488
0.893211
0.887716
0.877741
0.866099
0.849992
0.826643
0.806196
0.791969
0.764961
0.750277
0.773328
0.920378
0.993955
1.04079
1.07228
1.07866
0.757867
0.759225
0.76237
0.765994
0.76822
0.768388
0.766647
0.763948
0.762619
0.767733
0.783343
0.806361
0.828419
0.841681
0.84869
0.854412
0.863696
0.876235
0.885541
0.888042
0.874692
0.839056
0.799851
0.773701
0.765148
0.766523
0.777555
0.794341
0.82498
0.8754
0.91909
0.868114
0.793966
0.791211
0.800682
0.816037
0.83444
0.85239
0.866604
0.878356
0.89194
0.904137
0.912632
0.915
0.915664
0.914886
0.909474
0.898852
0.881111
0.855432
0.833974
0.816094
0.780732
0.764382
0.78505
0.918293
0.990485
1.04096
1.07689
1.08449
0.758723
0.760066
0.762812
0.765941
0.767768
0.767633
0.765449
0.763038
0.762134
0.76708
0.781125
0.802729
0.825648
0.841695
0.851553
0.858923
0.868737
0.880956
0.890447
0.89357
0.884894
0.852709
0.810182
0.779324
0.768497
0.767433
0.77662
0.792377
0.822521
0.870248
0.912553
0.868831
0.776483
0.781442
0.797085
0.815435
0.833857
0.849977
0.86363
0.878153
0.894732
0.910397
0.92171
0.927734
0.935511
0.938906
0.937059
0.931315
0.916934
0.895239
0.870835
0.84497
0.801922
0.78148
0.797266
0.916728
0.988144
1.04266
1.08159
1.0881
0.760196
0.761136
0.763325
0.765821
0.767374
0.767299
0.765588
0.763727
0.763238
0.767923
0.780115
0.799492
0.822159
0.840634
0.852789
0.862272
0.872829
0.884699
0.894413
0.898323
0.894059
0.866493
0.82233
0.787053
0.772264
0.769719
0.77664
0.792526
0.822017
0.863073
0.899853
0.870018
0.762595
0.769508
0.78846
0.807934
0.825305
0.840648
0.856673
0.876498
0.896892
0.911719
0.922771
0.931457
0.943283
0.951461
0.953239
0.954663
0.946887
0.934262
0.913265
0.881739
0.830693
0.798704
0.808875
0.916553
0.988748
1.04658
1.0859
1.0895
0.761751
0.762395
0.763776
0.765909
0.767458
0.767588
0.76662
0.765663
0.765706
0.769706
0.779949
0.796776
0.81829
0.83823
0.852701
0.864298
0.875774
0.887398
0.897319
0.9022
0.901331
0.87877
0.834869
0.796125
0.777777
0.773668
0.778101
0.794127
0.820857
0.854867
0.886371
0.875719
0.757601
0.755317
0.77537
0.793881
0.811464
0.828205
0.848177
0.869807
0.88748
0.900657
0.912539
0.924949
0.939791
0.951367
0.959352
0.965188
0.960696
0.954171
0.939058
0.909331
0.863019
0.816321
0.820025
0.919957
0.99356
1.05265
1.08989
1.09042
0.763396
0.763454
0.764369
0.766162
0.76783
0.768477
0.768497
0.768517
0.769143
0.772295
0.780302
0.794576
0.814416
0.83501
0.851726
0.8651
0.877541
0.889078
0.899085
0.905083
0.906491
0.889369
0.848429
0.807695
0.786071
0.77972
0.782297
0.795985
0.818182
0.845995
0.875604
0.88415
0.760329
0.74055
0.760234
0.776426
0.793214
0.810421
0.829976
0.849012
0.86345
0.876298
0.891343
0.909812
0.92849
0.939049
0.947672
0.953418
0.952209
0.952002
0.94262
0.917687
0.886499
0.834505
0.834704
0.93077
1.00402
1.0594
1.09378
1.09248
0.764786
0.764518
0.765005
0.766546
0.768409
0.769879
0.771052
0.772096
0.773174
0.775408
0.781374
0.79313
0.810866
0.831434
0.849743
0.86479
0.878093
0.889739
0.900146
0.907089
0.910015
0.89803
0.861954
0.820203
0.796423
0.788718
0.790376
0.799706
0.816781
0.837981
0.869383
0.887508
0.768836
0.725503
0.742473
0.755348
0.77042
0.787256
0.80335
0.818388
0.830756
0.846217
0.86483
0.884099
0.900041
0.909061
0.920122
0.929669
0.934492
0.940342
0.937503
0.918559
0.903251
0.85437
0.852278
0.943554
1.01657
1.06661
1.09833
1.0969
0.76597
0.76546
0.7658
0.767217
0.769488
0.77184
0.773701
0.77499
0.776006
0.777925
0.782773
0.792607
0.808239
0.827905
0.846991
0.86337
0.877503
0.889584
0.900512
0.908384
0.912347
0.904897
0.874951
0.834958
0.811114
0.803105
0.805204
0.811326
0.817939
0.834349
0.863598
0.885971
0.781584
0.709555
0.723568
0.734282
0.747747
0.76258
0.775335
0.788137
0.799438
0.815193
0.83357
0.849361
0.861514
0.872087
0.888666
0.904372
0.916143
0.926101
0.928294
0.916126
0.912933
0.869815
0.862109
0.953709
1.02867
1.07411
1.1036
1.10297
0.767053
0.766454
0.766969
0.768479
0.771061
0.773752
0.775615
0.776626
0.777706
0.779954
0.784829
0.793603
0.806998
0.825112
0.843881
0.860797
0.875749
0.888668
0.900435
0.909257
0.914015
0.910353
0.886748
0.850223
0.825913
0.818291
0.823361
0.828784
0.829892
0.834927
0.85891
0.879563
0.79734
0.695239
0.706581
0.717136
0.729008
0.741499
0.752297
0.7617
0.773055
0.787864
0.80181
0.815648
0.826991
0.840862
0.861152
0.878643
0.894075
0.906385
0.910353
0.903942
0.907926
0.867533
0.853708
0.96121
1.03915
1.0821
1.10982
1.10962
0.767309
0.766861
0.767821
0.769405
0.771913
0.774392
0.775917
0.776766
0.777668
0.780409
0.786081
0.794898
0.807139
0.823133
0.84099
0.857761
0.873393
0.887396
0.900118
0.909699
0.915157
0.914527
0.897105
0.864795
0.841182
0.835321
0.844952
0.853139
0.852216
0.847455
0.854299
0.871275
0.814877
0.687255
0.692514
0.704221
0.714808
0.72453
0.732397
0.738904
0.751251
0.764904
0.774741
0.785322
0.796931
0.813768
0.834886
0.850922
0.868235
0.882848
0.887625
0.885433
0.892309
0.854555
0.840352
0.96662
1.04855
1.09181
1.1169
1.11635
0.767102
0.766885
0.768133
0.769648
0.771759
0.773778
0.774981
0.776002
0.776926
0.779958
0.786437
0.795565
0.807211
0.82185
0.83864
0.855081
0.871398
0.886513
0.89981
0.90976
0.915938
0.917213
0.905013
0.877874
0.856596
0.852925
0.868204
0.882911
0.882409
0.866246
0.856187
0.867524
0.831092
0.690622
0.681078
0.693669
0.702198
0.707924
0.711883
0.720715
0.733031
0.742964
0.750302
0.758493
0.770744
0.788771
0.806301
0.820937
0.840917
0.85925
0.867815
0.87115
0.877265
0.84653
0.842896
0.979374
1.05832
1.10286
1.12382
1.12213
0.766707
0.766701
0.768073
0.769442
0.77098
0.772357
0.773208
0.77409
0.775427
0.779719
0.786745
0.795822
0.807107
0.821012
0.837268
0.853498
0.870467
0.886336
0.899793
0.909715
0.91616
0.918069
0.909459
0.888059
0.870454
0.869554
0.890797
0.91469
0.918427
0.890239
0.863643
0.866325
0.842618
0.702857
0.670819
0.681559
0.687299
0.69139
0.695953
0.70725
0.715613
0.722393
0.728374
0.736351
0.749338
0.764757
0.777842
0.792498
0.814442
0.835689
0.850769
0.860358
0.865143
0.845339
0.857865
0.994758
1.06893
1.11343
1.12885
1.12524
0.766172
0.766344
0.767667
0.768778
0.769762
0.770612
0.771203
0.77192
0.77352
0.778553
0.786775
0.796633
0.807556
0.821067
0.836923
0.853133
0.870603
0.886966
0.900364
0.909832
0.915868
0.917557
0.910775
0.894786
0.882347
0.884901
0.910439
0.941708
0.952597
0.921807
0.879615
0.871865
0.850288
0.72075
0.660841
0.667892
0.672889
0.677467
0.684937
0.693969
0.699498
0.703501
0.709192
0.719224
0.731113
0.742408
0.75238
0.767382
0.790332
0.813467
0.835392
0.850468
0.853823
0.844092
0.881707
1.0102
1.0801
1.12161
1.13059
1.12471
0.765684
0.765961
0.767174
0.768022
0.76857
0.769141
0.769715
0.770674
0.772904
0.778391
0.786814
0.797036
0.808667
0.82194
0.837527
0.853949
0.871941
0.888809
0.902015
0.910505
0.915184
0.915841
0.910192
0.899244
0.892084
0.898507
0.927383
0.964293
0.981743
0.954998
0.903566
0.882679
0.854814
0.740623
0.64959
0.656078
0.660039
0.666669
0.674308
0.6809
0.683874
0.686572
0.693932
0.704836
0.714088
0.721985
0.730538
0.74612
0.768747
0.793125
0.820838
0.841783
0.845689
0.844208
0.90578
1.02622
1.08945
1.12772
1.12987
1.12172
0.765944
0.766153
0.766967
0.767465
0.767768
0.768265
0.7689
0.77021
0.773263
0.77951
0.788167
0.798459
0.810504
0.824191
0.839622
0.856324
0.874636
0.891832
0.904719
0.911854
0.91462
0.913479
0.908913
0.902498
0.900267
0.91091
0.941274
0.981614
1.00533
0.988009
0.935262
0.896636
0.860756
0.760792
0.640224
0.645672
0.649569
0.657422
0.663273
0.667386
0.668497
0.67253
0.681554
0.690414
0.697376
0.703108
0.712024
0.728582
0.749198
0.773511
0.804586
0.830579
0.841938
0.853477
0.921693
1.03871
1.09442
1.1317
1.1288
1.11848
0.766845
0.76686
0.767178
0.767305
0.767411
0.767989
0.769209
0.771286
0.775198
0.782145
0.791098
0.801414
0.813544
0.827518
0.842981
0.860115
0.87865
0.895774
0.908069
0.913677
0.91447
0.911468
0.907733
0.905103
0.90741
0.923196
0.954889
0.995713
1.02086
1.01697
0.968928
0.916173
0.871096
0.780448
0.635646
0.635555
0.641314
0.64801
0.651742
0.653266
0.65449
0.660803
0.668908
0.675139
0.680006
0.685734
0.696841
0.713625
0.730851
0.754421
0.785082
0.814885
0.841361
0.870245
0.930702
1.04179
1.09421
1.13434
1.12716
1.11618
0.768155
0.767762
0.767737
0.767639
0.767714
0.768619
0.77062
0.773829
0.778811
0.786273
0.795288
0.805391
0.817311
0.831202
0.846758
0.864444
0.883237
0.899967
0.911288
0.915656
0.914697
0.910641
0.908029
0.908109
0.914718
0.935374
0.968954
1.0087
1.03309
1.03638
1.00022
0.940266
0.886658
0.800276
0.641843
0.626537
0.633725
0.637851
0.639313
0.639366
0.642096
0.649065
0.65496
0.658892
0.663116
0.671184
0.685242
0.700948
0.716926
0.738466
0.766671
0.797985
0.837654
0.889318
0.945368
1.03576
1.09591
1.13289
1.12203
1.11336
0.769824
0.769036
0.768564
0.768292
0.768542
0.770024
0.773051
0.777551
0.783657
0.791545
0.800198
0.809756
0.82129
0.835224
0.850945
0.868961
0.887615
0.903478
0.913648
0.917147
0.915293
0.911283
0.909369
0.911954
0.922214
0.947121
0.98379
1.02204
1.04442
1.05017
1.0249
0.96834
0.908918
0.821312
0.655647
0.618933
0.625221
0.626443
0.626392
0.62638
0.630618
0.636135
0.639888
0.642968
0.648978
0.660657
0.675994
0.690845
0.706725
0.726367
0.753096
0.784765
0.832116
0.900194
0.96846
1.04082
1.10051
1.12724
1.11133
1.10916
0.771388
0.770234
0.769445
0.769102
0.769629
0.7719
0.775913
0.781596
0.788726
0.796762
0.805123
0.814312
0.825741
0.839887
0.855908
0.873898
0.891727
0.906081
0.914955
0.917801
0.915862
0.912585
0.911462
0.915855
0.930006
0.959842
0.999741
1.03499
1.05341
1.06077
1.04489
0.996772
0.937989
0.846781
0.675154
0.611461
0.615323
0.613851
0.613465
0.614419
0.618402
0.62177
0.624224
0.628344
0.637669
0.652125
0.667597
0.68273
0.69868
0.71957
0.745824
0.777622
0.827142
0.901092
0.985331
1.05249
1.10144
1.11525
1.09906
1.10577
0.772531
0.771106
0.770246
0.770004
0.770977
0.773942
0.77863
0.785207
0.792859
0.801399
0.810194
0.819621
0.831303
0.845843
0.862173
0.879662
0.895753
0.907924
0.915434
0.917668
0.916144
0.914397
0.914233
0.920461
0.93933
0.974299
1.01492
1.04577
1.05958
1.06604
1.05808
1.02329
0.968784
0.877633
0.697312
0.602685
0.604025
0.600917
0.600537
0.60204
0.604382
0.606238
0.609005
0.615417
0.627438
0.643022
0.659248
0.675166
0.693913
0.716178
0.742464
0.7742
0.823907
0.89437
0.982708
1.05397
1.09233
1.09919
1.09072
1.10339
0.773137
0.771534
0.770814
0.770874
0.772287
0.775673
0.780519
0.787519
0.796119
0.806029
0.816026
0.82628
0.838538
0.853454
0.869729
0.885909
0.899674
0.909176
0.915165
0.91696
0.916251
0.916163
0.917826
0.927102
0.951434
0.990076
1.02802
1.0525
1.06185
1.0671
1.06308
1.04087
0.996344
0.911141
0.722874
0.592592
0.590944
0.587626
0.586514
0.587361
0.588491
0.590911
0.596258
0.605553
0.618457
0.634231
0.650984
0.669197
0.690726
0.714265
0.740646
0.773133
0.822256
0.884715
0.965485
1.03879
1.06812
1.08461
1.08481
1.1009
0.772756
0.771242
0.770904
0.771234
0.772874
0.77628
0.781306
0.789237
0.799379
0.811139
0.822826
0.834272
0.847227
0.862251
0.87781
0.892329
0.903433
0.909885
0.914134
0.915655
0.916057
0.918028
0.922548
0.935422
0.965829
1.00498
1.038
1.05577
1.06182
1.0655
1.06325
1.0503
1.01865
0.945536
0.755034
0.581117
0.576049
0.572599
0.570292
0.57044
0.572322
0.577524
0.586793
0.59898
0.612664
0.626979
0.643879
0.664663
0.688211
0.712578
0.739439
0.773185
0.822176
0.879703
0.943368
1.00683
1.04085
1.07617
1.07903
1.09579
0.771632
0.77041
0.770524
0.771045
0.772707
0.775977
0.781717
0.791249
0.803344
0.817043
0.830314
0.842776
0.856181
0.87093
0.885393
0.897783
0.906024
0.910113
0.912652
0.913898
0.915811
0.919429
0.926817
0.944574
0.979365
1.01662
1.0446
1.058
1.06184
1.0631
1.06122
1.05505
1.035
0.978757
0.792842
0.570356
0.558784
0.554224
0.55216
0.553684
0.558549
0.567082
0.579856
0.594297
0.607799
0.621429
0.63927
0.661839
0.686094
0.710812
0.738807
0.774668
0.823714
0.879948
0.933265
0.986348
1.02949
1.06951
1.07148
1.08868
0.770259
0.769277
0.769764
0.77043
0.77205
0.775525
0.782509
0.794158
0.808829
0.824243
0.838214
0.850887
0.864077
0.877988
0.890935
0.901075
0.906947
0.909774
0.911206
0.912179
0.915302
0.920133
0.930452
0.953428
0.988951
1.02255
1.04778
1.05954
1.0625
1.06147
1.05852
1.0565
1.04659
1.00337
0.829376
0.56157
0.53678
0.533526
0.53499
0.540631
0.548823
0.55975
0.574455
0.590453
0.604664
0.618756
0.636812
0.659805
0.684135
0.709489
0.739551
0.778286
0.826519
0.880774
0.933953
0.981804
1.02608
1.06379
1.06318
1.08611
0.7689
0.768113
0.768824
0.769518
0.771195
0.775423
0.784329
0.798822
0.816265
0.832719
0.846376
0.858215
0.870357
0.882934
0.894133
0.902236
0.906678
0.908833
0.909873
0.911137
0.914767
0.921238
0.93477
0.960082
0.992466
1.02364
1.04883
1.06037
1.06307
1.06049
1.0561
1.05595
1.05378
1.02238
0.860842
0.550262
0.514208
0.516398
0.523405
0.532192
0.54224
0.55455
0.570016
0.586907
0.602557
0.617874
0.63583
0.658071
0.682632
0.709386
0.741764
0.783164
0.830262
0.879916
0.934752
0.983436
1.02697
1.05626
1.05967
1.08814
0.767873
0.767223
0.767949
0.768582
0.770479
0.775726
0.787098
0.805155
0.825326
0.84229
0.854872
0.865079
0.875466
0.886294
0.895882
0.902435
0.906057
0.907863
0.909132
0.911092
0.915271
0.922863
0.937859
0.962513
0.992014
1.02236
1.04858
1.06041
1.06215
1.05849
1.05309
1.05292
1.05566
1.03458
0.880014
0.533038
0.49898
0.507919
0.516906
0.526642
0.537588
0.550564
0.56614
0.583406
0.600711
0.617719
0.635657
0.656792
0.681995
0.710569
0.744698
0.787205
0.832781
0.878542
0.932086
0.98405
1.02337
1.04727
1.05977
1.09209
0.767494
0.766954
0.767622
0.768142
0.770135
0.776745
0.79106
0.812929
0.835682
0.852867
0.864023
0.872158
0.880349
0.889303
0.89743
0.90275
0.906004
0.907771
0.909429
0.912394
0.917178
0.925161
0.93986
0.9624
0.989655
1.0192
1.04665
1.05896
1.05988
1.05571
1.04988
1.04903
1.05508
1.03877
0.882382
0.516064
0.492558
0.503304
0.512804
0.522962
0.534572
0.547876
0.562977
0.579998
0.598699
0.617654
0.635796
0.655782
0.682111
0.713347
0.747818
0.788909
0.833616
0.878442
0.925999
0.976377
1.01089
1.04185
1.05972
1.09403
0.767985
0.767512
0.768087
0.768453
0.770536
0.778339
0.795604
0.821074
0.846296
0.863819
0.873708
0.879884
0.88604
0.893265
0.900205
0.904729
0.907631
0.909461
0.911389
0.915095
0.920341
0.928132
0.940961
0.960609
0.984955
1.01382
1.04343
1.05733
1.05807
1.05345
1.04767