/*--------------------------------*- C++ -*----------------------------------*\
  =========                 |
  \\      /  F ield         | OpenFOAM: The Open Source CFD Toolbox
   \\    /   O peration     | Website:  https://openfoam.org
    \\  /    A nd           | Version:  7
     \\/     M anipulation  |
\*---------------------------------------------------------------------------*/
FoamFile
{
    version     2.0;
    format      ascii;
    class       volVectorField;
    location    "0.3";
    object      U;
}
// * * * * * * * * * * * * * * * * * * * * * * * * * * * * * * * * * * * * * //

dimensions      [0 1 -1 0 0 0 0];

internalField   nonuniform List<vector> 
103200
(
(0.542084 -0.0347234 0)
(0.460499 -0.0478135 0)
(0.427754 -0.0532026 0)
(0.357532 -0.0555072 0)
(0.292276 -0.0432886 0)
(0.246332 -0.0251951 0)
(0.223133 -0.0113561 0)
(0.215562 -0.0145647 0)
(0.218603 -0.0284676 0)
(0.221208 -0.0528025 0)
(0.219629 -0.0836577 0)
(0.208448 -0.114388 0)
(0.188192 -0.144146 0)
(0.167617 -0.160698 0)
(0.164963 -0.175781 0)
(0.185531 -0.191385 0)
(0.242079 -0.187497 0)
(0.343467 -0.161781 0)
(0.488471 -0.125149 0)
(0.670904 -0.0778979 0)
(0.887474 -0.014247 0)
(1.12305 0.0512057 0)
(1.34477 0.132165 0)
(1.53227 0.19587 0)
(1.66315 0.243062 0)
(1.71807 0.312535 0)
(1.75043 0.340188 0)
(1.75922 0.346188 0)
(1.75503 0.353765 0)
(1.74707 0.366321 0)
(1.73718 0.387468 0)
(1.73544 0.394613 0)
(1.73759 0.402418 0)
(1.735 0.42541 0)
(1.72595 0.434981 0)
(1.71228 0.444094 0)
(1.68899 0.460835 0)
(1.65687 0.474079 0)
(1.62658 0.509212 0)
(1.60339 0.530561 0)
(1.59107 0.536457 0)
(1.58734 0.540499 0)
(1.58667 0.544956 0)
(1.59115 0.543625 0)
(1.59491 0.537386 0)
(1.59848 0.530462 0)
(1.60351 0.527617 0)
(1.61078 0.528599 0)
(1.61984 0.533138 0)
(1.62711 0.538995 0)
(1.6303 0.543721 0)
(1.63131 0.549559 0)
(1.63267 0.557345 0)
(1.63071 0.570914 0)
(1.62843 0.592213 0)
(1.62409 0.614052 0)
(1.61382 0.627741 0)
(1.38757 0.411899 0)
(0.975778 0.279449 0)
(0.963123 0.283585 0)
(0.0329019 -0.214091 0)
(0.0436452 -0.0731437 0)
(0.100556 -0.0414928 0)
(0.104276 -0.0236937 0)
(0.0930228 -0.0191081 0)
(0.0869647 -0.0140409 0)
(0.0937535 -0.0117586 0)
(0.113052 -0.0178945 0)
(0.137807 -0.0358356 0)
(0.153316 -0.0619607 0)
(0.159033 -0.0932013 0)
(0.149828 -0.125498 0)
(0.128472 -0.142133 0)
(0.102571 -0.161323 0)
(0.0883082 -0.184956 0)
(0.0938508 -0.206354 0)
(0.127895 -0.212016 0)
(0.200058 -0.205358 0)
(0.305699 -0.178863 0)
(0.446129 -0.139112 0)
(0.626338 -0.0843012 0)
(0.84828 -0.0168964 0)
(1.09274 0.0592724 0)
(1.33352 0.145598 0)
(1.54628 0.218254 0)
(1.67153 0.308759 0)
(1.73253 0.359438 0)
(1.76817 0.366355 0)
(1.767 0.376512 0)
(1.75704 0.389461 0)
(1.74334 0.411148 0)
(1.73973 0.417839 0)
(1.7386 0.424113 0)
(1.73769 0.442192 0)
(1.72892 0.445238 0)
(1.71307 0.458092 0)
(1.69097 0.479708 0)
(1.66581 0.495004 0)
(1.63387 0.524961 0)
(1.60747 0.542115 0)
(1.5932 0.549495 0)
(1.58917 0.551274 0)
(1.58846 0.551511 0)
(1.59098 0.545824 0)
(1.5924 0.537074 0)
(1.59607 0.530346 0)
(1.60269 0.528305 0)
(1.61192 0.530574 0)
(1.62139 0.536944 0)
(1.62711 0.543202 0)
(1.63156 0.547915 0)
(1.63352 0.553345 0)
(1.63586 0.560372 0)
(1.63315 0.573538 0)
(1.63195 0.594864 0)
(1.62687 0.61026 0)
(1.61627 0.620788 0)
(1.30965 0.365173 0)
(0.96061 0.28176 0)
(0.96329 0.281923 0)
(-0.0500857 -0.178118 0)
(-0.0638542 -0.0918693 0)
(-0.0257563 -0.0420466 0)
(0.000912915 -0.0255703 0)
(0.0145102 -0.0171738 0)
(0.0269654 -0.0135419 0)
(0.0465176 -0.0174872 0)
(0.0747487 -0.0265679 0)
(0.105341 -0.0459841 0)
(0.122624 -0.0739014 0)
(0.129205 -0.102708 0)
(0.118716 -0.127064 0)
(0.0991081 -0.155882 0)
(0.0666496 -0.179246 0)
(0.0418256 -0.20496 0)
(0.0412359 -0.231796 0)
(0.0638249 -0.243158 0)
(0.113674 -0.23552 0)
(0.190666 -0.215265 0)
(0.294994 -0.18553 0)
(0.433447 -0.142339 0)
(0.614519 -0.0852177 0)
(0.838576 -0.0137755 0)
(1.0938 0.0815886 0)
(1.36184 0.182889 0)
(1.56989 0.289183 0)
(1.68243 0.363039 0)
(1.75828 0.384379 0)
(1.77961 0.398668 0)
(1.76913 0.414582 0)
(1.75215 0.436676 0)
(1.74545 0.445226 0)
(1.739 0.447698 0)
(1.7404 0.454383 0)
(1.73267 0.462554 0)
(1.71534 0.481339 0)
(1.6958 0.501323 0)
(1.67461 0.512557 0)
(1.64059 0.538757 0)
(1.60941 0.551277 0)
(1.59534 0.556043 0)
(1.58966 0.556007 0)
(1.58871 0.554517 0)
(1.58935 0.545872 0)
(1.58989 0.537196 0)
(1.59445 0.53199 0)
(1.60211 0.531341 0)
(1.61238 0.535652 0)
(1.62205 0.543833 0)
(1.62698 0.549023 0)
(1.6325 0.554368 0)
(1.63571 0.561477 0)
(1.6386 0.568124 0)
(1.63642 0.58032 0)
(1.63587 0.596322 0)
(1.62877 0.60753 0)
(1.6154 0.615587 0)
(1.23583 0.332863 0)
(0.956158 0.281834 0)
(0.963062 0.278313 0)
(-0.0470959 -0.149442 0)
(-0.0701767 -0.0948787 0)
(-0.050374 -0.0504976 0)
(-0.026545 -0.0277163 0)
(-0.006886 -0.0221828 0)
(0.0110979 -0.0225864 0)
(0.0330505 -0.0283962 0)
(0.0630512 -0.0381776 0)
(0.091666 -0.0599684 0)
(0.107061 -0.0860498 0)
(0.111655 -0.112063 0)
(0.101678 -0.137167 0)
(0.075078 -0.15993 0)
(0.0365231 -0.189825 0)
(0.00713987 -0.22162 0)
(0.0033701 -0.245468 0)
(0.0205466 -0.255767 0)
(0.0605336 -0.25327 0)
(0.120221 -0.239049 0)
(0.198646 -0.214716 0)
(0.302943 -0.181494 0)
(0.441234 -0.136267 0)
(0.623546 -0.0718571 0)
(0.854888 0.0181188 0)
(1.13313 0.133061 0)
(1.40458 0.248876 0)
(1.58959 0.352309 0)
(1.71843 0.395683 0)
(1.78466 0.416965 0)
(1.78228 0.442427 0)
(1.76464 0.46257 0)
(1.75208 0.474329 0)
(1.74018 0.470387 0)
(1.73977 0.468301 0)
(1.73554 0.480486 0)
(1.7169 0.504236 0)
(1.70399 0.517224 0)
(1.68361 0.531055 0)
(1.64465 0.551428 0)
(1.60917 0.558993 0)
(1.5996 0.560461 0)
(1.59147 0.561654 0)
(1.58837 0.556395 0)
(1.58636 0.545137 0)
(1.58744 0.537333 0)
(1.59379 0.533256 0)
(1.60364 0.534668 0)
(1.61442 0.54227 0)
(1.62086 0.550535 0)
(1.62765 0.555551 0)
(1.6331 0.561282 0)
(1.63673 0.568529 0)
(1.63982 0.574759 0)
(1.63871 0.587324 0)
(1.63778 0.597957 0)
(1.63018 0.612626 0)
(1.60983 0.609173 0)
(1.17428 0.303021 0)
(0.957069 0.278213 0)
(0.959633 0.274579 0)
(-0.0309198 -0.126345 0)
(-0.0581535 -0.093879 0)
(-0.0483514 -0.0600262 0)
(-0.0298061 -0.0387827 0)
(-0.0107868 -0.0313679 0)
(0.0104388 -0.0302056 0)
(0.0323842 -0.038919 0)
(0.0579822 -0.0532038 0)
(0.0809476 -0.0713585 0)
(0.0949804 -0.0913866 0)
(0.0972725 -0.111584 0)
(0.0838184 -0.13384 0)
(0.0514664 -0.168268 0)
(0.0105607 -0.20964 0)
(-0.0177623 -0.243084 0)
(-0.0207984 -0.265209 0)
(-0.0060396 -0.273125 0)
(0.0251521 -0.26899 0)
(0.0713383 -0.254951 0)
(0.133067 -0.236806 0)
(0.214491 -0.2157 0)
(0.32192 -0.183442 0)
(0.465388 -0.134006 0)
(0.655266 -0.0584722 0)
(0.902896 0.0448082 0)
(1.19357 0.17046 0)
(1.44796 0.299541 0)
(1.63415 0.392696 0)
(1.76952 0.432046 0)
(1.79002 0.466346 0)
(1.77798 0.486937 0)
(1.75801 0.505927 0)
(1.74295 0.500154 0)
(1.73822 0.489019 0)
(1.73585 0.498626 0)
(1.72139 0.521055 0)
(1.71385 0.527586 0)
(1.68914 0.544734 0)
(1.64298 0.558073 0)
(1.6132 0.568087 0)
(1.60257 0.568159 0)
(1.5918 0.565813 0)
(1.58624 0.555233 0)
(1.58229 0.542667 0)
(1.58596 0.535104 0)
(1.59448 0.532666 0)
(1.60506 0.536639 0)
(1.61451 0.545825 0)
(1.62174 0.551078 0)
(1.62962 0.555982 0)
(1.6342 0.56119 0)
(1.63745 0.568791 0)
(1.64138 0.577545 0)
(1.64144 0.593344 0)
(1.64018 0.603897 0)
(1.63307 0.622488 0)
(1.59894 0.591836 0)
(1.1227 0.282258 0)
(0.957356 0.270771 0)
(0.953434 0.272539 0)
(-0.0172728 -0.11074 0)
(-0.0396067 -0.0907622 0)
(-0.0391473 -0.065352 0)
(-0.025361 -0.0475622 0)
(-0.00971696 -0.0380157 0)
(0.00898832 -0.038696 0)
(0.0279101 -0.0488608 0)
(0.0518781 -0.0617411 0)
(0.0721345 -0.0774861 0)
(0.0849965 -0.0910966 0)
(0.0837806 -0.108539 0)
(0.0638048 -0.136326 0)
(0.0250207 -0.178261 0)
(-0.0166467 -0.224849 0)
(-0.0414905 -0.256898 0)
(-0.0454095 -0.273496 0)
(-0.0348809 -0.276123 0)
(-0.00975838 -0.268829 0)
(0.0282784 -0.262313 0)
(0.0784386 -0.255188 0)
(0.144925 -0.243169 0)
(0.234912 -0.217112 0)
(0.350665 -0.173622 0)
(0.50172 -0.110537 0)
(0.70242 -0.0247112 0)
(0.968669 0.0920161 0)
(1.25473 0.2289 0)
(1.5036 0.359946 0)
(1.71163 0.441064 0)
(1.78592 0.483882 0)
(1.78409 0.509018 0)
(1.76324 0.53566 0)
(1.74573 0.529668 0)
(1.73483 0.510088 0)
(1.73645 0.520407 0)
(1.72898 0.535967 0)
(1.7198 0.538001 0)
(1.68885 0.553884 0)
(1.63902 0.569522 0)
(1.61849 0.57729 0)
(1.6035 0.574577 0)
(1.59118 0.566701 0)
(1.58225 0.551335 0)
(1.57896 0.537948 0)
(1.58533 0.531278 0)
(1.59544 0.531656 0)
(1.60688 0.538777 0)
(1.6151 0.545431 0)
(1.62427 0.549329 0)
(1.63109 0.552929 0)
(1.63612 0.558393 0)
(1.64252 0.567678 0)
(1.6472 0.583011 0)
(1.64518 0.60018 0)
(1.64355 0.611316 0)
(1.63782 0.633016 0)
(1.58451 0.558807 0)
(1.07296 0.27315 0)
(0.954178 0.266402 0)
(0.946193 0.271072 0)
(-0.0103268 -0.101551 0)
(-0.0253069 -0.0882257 0)
(-0.0285136 -0.069927 0)
(-0.0205607 -0.0567016 0)
(-0.00880973 -0.0476064 0)
(0.0070847 -0.0482271 0)
(0.0247285 -0.0582835 0)
(0.0480802 -0.0682136 0)
(0.0648114 -0.078332 0)
(0.0762119 -0.0889918 0)
(0.069598 -0.107371 0)
(0.0412932 -0.140979 0)
(-0.00517761 -0.187434 0)
(-0.0453643 -0.234524 0)
(-0.0669483 -0.259791 0)
(-0.0708447 -0.270341 0)
(-0.0637805 -0.272493 0)
(-0.0462443 -0.273553 0)
(-0.0184291 -0.272579 0)
(0.0228852 -0.274392 0)
(0.0844822 -0.268984 0)
(0.16731 -0.245242 0)
(0.271411 -0.212799 0)
(0.39591 -0.155678 0)
(0.557189 -0.0842258 0)
(0.775243 0.0209909 0)
(1.05168 0.149685 0)
(1.33096 0.314442 0)
(1.5994 0.432638 0)
(1.75715 0.496345 0)
(1.77748 0.526128 0)
(1.76582 0.560625 0)
(1.74839 0.560837 0)
(1.73429 0.543144 0)
(1.74012 0.543446 0)
(1.73509 0.548018 0)
(1.72061 0.546825 0)
(1.68541 0.565016 0)
(1.63865 0.579423 0)
(1.62292 0.582736 0)
(1.60463 0.57667 0)
(1.58782 0.562653 0)
(1.57776 0.544005 0)
(1.57716 0.53296 0)
(1.58517 0.52979 0)
(1.59725 0.532686 0)
(1.60739 0.540029 0)
(1.6161 0.543415 0)
(1.62558 0.545366 0)
(1.63247 0.549238 0)
(1.64029 0.557564 0)
(1.6469 0.569341 0)
(1.65046 0.587091 0)
(1.64912 0.603999 0)
(1.64614 0.617001 0)
(1.64238 0.641272 0)
(1.55716 0.506262 0)
(1.02455 0.269128 0)
(0.946262 0.265658 0)
(0.940257 0.268744 0)
(-0.00713267 -0.096895 0)
(-0.0164593 -0.08879 0)
(-0.0205995 -0.0773013 0)
(-0.0155984 -0.0663561 0)
(-0.00690477 -0.0579048 0)
(0.00595062 -0.0592678 0)
(0.0227556 -0.06553 0)
(0.044756 -0.0702047 0)
(0.0586199 -0.0779561 0)
(0.0663509 -0.0907502 0)
(0.0530422 -0.112546 0)
(0.0159909 -0.148642 0)
(-0.0360498 -0.193885 0)
(-0.0741724 -0.236506 0)
(-0.093569 -0.257911 0)
(-0.0992172 -0.267112 0)
(-0.0970638 -0.27015 0)
(-0.0894537 -0.271508 0)
(-0.0715978 -0.282851 0)
(-0.0353252 -0.289888 0)
(0.0235744 -0.288934 0)
(0.102381 -0.269044 0)
(0.199172 -0.23648 0)
(0.314286 -0.186563 0)
(0.450572 -0.118187 0)
(0.624801 -0.0252487 0)
(0.859936 0.0957976 0)
(1.14561 0.233447 0)
(1.43748 0.400153 0)
(1.68689 0.484592 0)
(1.75921 0.543531 0)
(1.75995 0.582987 0)
(1.75038 0.59006 0)
(1.74059 0.578747 0)
(1.74915 0.564231 0)
(1.7382 0.556581 0)
(1.71679 0.556146 0)
(1.68388 0.577554 0)
(1.64673 0.587417 0)
(1.62284 0.582552 0)
(1.60293 0.573129 0)
(1.58435 0.553668 0)
(1.57477 0.536117 0)
(1.57608 0.532112 0)
(1.58665 0.532179 0)
(1.5985 0.537613 0)
(1.60633 0.542093 0)
(1.61668 0.543438 0)
(1.62564 0.545479 0)
(1.63461 0.551333 0)
(1.64294 0.559754 0)
(1.6504 0.57194 0)
(1.65353 0.589927 0)
(1.65271 0.605394 0)
(1.6484 0.620966 0)
(1.64467 0.645472 0)
(1.48067 0.434893 0)
(0.977594 0.263398 0)
(0.938107 0.26226 0)
(0.93758 0.264681 0)
(-0.00528046 -0.0959148 0)
(-0.0119465 -0.0916251 0)
(-0.0149028 -0.0837907 0)
(-0.0117742 -0.0760155 0)
(-0.0047224 -0.0697924 0)
(0.00692237 -0.0683144 0)
(0.0240934 -0.0687453 0)
(0.041397 -0.0717257 0)
(0.0529042 -0.0794561 0)
(0.0541896 -0.0952192 0)
(0.0340987 -0.120888 0)
(-0.00965219 -0.156734 0)
(-0.0654701 -0.193058 0)
(-0.10178 -0.23253 0)
(-0.121983 -0.253002 0)
(-0.131316 -0.262035 0)
(-0.136279 -0.272437 0)
(-0.136237 -0.284984 0)
(-0.125376 -0.297005 0)
(-0.0955067 -0.306041 0)
(-0.042188 -0.310704 0)
(0.0328866 -0.302948 0)
(0.132306 -0.28463 0)
(0.248374 -0.239599 0)
(0.376285 -0.173358 0)
(0.522091 -0.0835583 0)
(0.70976 0.0329213 0)
(0.955982 0.153169 0)
(1.25669 0.311908 0)
(1.56141 0.444699 0)
(1.71496 0.532874 0)
(1.74106 0.60208 0)
(1.75516 0.633311 0)
(1.75247 0.617559 0)
(1.7582 0.577921 0)
(1.73942 0.562924 0)
(1.71342 0.571323 0)
(1.67943 0.592403 0)
(1.6506 0.59434 0)
(1.62394 0.579322 0)
(1.60156 0.564412 0)
(1.57929 0.543484 0)
(1.5722 0.535376 0)
(1.57696 0.536573 0)
(1.58891 0.538923 0)
(1.59808 0.544066 0)
(1.60619 0.545949 0)
(1.6167 0.546698 0)
(1.62676 0.549808 0)
(1.63586 0.555078 0)
(1.6439 0.563369 0)
(1.653 0.577354 0)
(1.65722 0.590988 0)
(1.65855 0.604374 0)
(1.65216 0.620997 0)
(1.64945 0.64335 0)
(1.37465 0.374351 0)
(0.947682 0.263857 0)
(0.93438 0.256695 0)
(0.932703 0.262158 0)
(-0.00411247 -0.094704 0)
(-0.0092438 -0.0935897 0)
(-0.0115758 -0.0880203 0)
(-0.00864925 -0.0816555 0)
(-0.00115057 -0.0755134 0)
(0.0101439 -0.0715364 0)
(0.0255609 -0.0706519 0)
(0.0372408 -0.0752885 0)
(0.0460501 -0.0853843 0)
(0.0406732 -0.102715 0)
(0.0142755 -0.128042 0)
(-0.0340769 -0.158772 0)
(-0.0913367 -0.189005 0)
(-0.127738 -0.224016 0)
(-0.153231 -0.246872 0)
(-0.166358 -0.265238 0)
(-0.177003 -0.278814 0)
(-0.184458 -0.289396 0)
(-0.179348 -0.305488 0)
(-0.155166 -0.322059 0)
(-0.109782 -0.340111 0)
(-0.039907 -0.345893 0)
(0.0558709 -0.329211 0)
(0.177161 -0.288745 0)
(0.307889 -0.220547 0)
(0.446006 -0.137196 0)
(0.596843 -0.0279638 0)
(0.800024 0.0713884 0)
(1.06995 0.210049 0)
(1.39086 0.374122 0)
(1.63632 0.510576 0)
(1.71425 0.613502 0)
(1.75263 0.659925 0)
(1.76156 0.641085 0)
(1.75882 0.587557 0)
(1.74158 0.578204 0)
(1.71463 0.592597 0)
(1.68084 0.605211 0)
(1.65335 0.597845 0)
(1.62341 0.575718 0)
(1.59575 0.556346 0)
(1.57532 0.542529 0)
(1.57185 0.541709 0)
(1.57983 0.544949 0)
(1.58959 0.5471 0)
(1.59694 0.548119 0)
(1.6066 0.548712 0)
(1.61752 0.549814 0)
(1.62736 0.553408 0)
(1.63666 0.559687 0)
(1.64626 0.568526 0)
(1.6564 0.58138 0)
(1.66108 0.591374 0)
(1.66338 0.601705 0)
(1.65755 0.618723 0)
(1.65202 0.640151 0)
(1.2875 0.331304 0)
(0.935843 0.26355 0)
(0.931036 0.252565 0)
(0.927334 0.259293 0)
(-0.00345345 -0.0949213 0)
(-0.0071716 -0.0928871 0)
(-0.00860784 -0.0867803 0)
(-0.00551654 -0.0802941 0)
(0.00258271 -0.0746985 0)
(0.0128249 -0.0717201 0)
(0.0253572 -0.0733869 0)
(0.0330993 -0.0811268 0)
(0.0375662 -0.0928568 0)
(0.0267119 -0.110464 0)
(-0.00498571 -0.134954 0)
(-0.056004 -0.159422 0)
(-0.112529 -0.182842 0)
(-0.152696 -0.213925 0)
(-0.183998 -0.240355 0)
(-0.20068 -0.266051 0)
(-0.216886 -0.280881 0)
(-0.227244 -0.296588 0)
(-0.22601 -0.318636 0)
(-0.20832 -0.343255 0)
(-0.173588 -0.369303 0)
(-0.112332 -0.382647 0)
(-0.0186756 -0.374237 0)
(0.104069 -0.334604 0)
(0.242722 -0.264543 0)
(0.383153 -0.177808 0)
(0.515541 -0.0649039 0)
(0.680668 0.0339612 0)
(0.911356 0.13738 0)
(1.21911 0.301841 0)
(1.52109 0.474114 0)
(1.66757 0.614639 0)
(1.73303 0.677968 0)
(1.7599 0.657155 0)
(1.75689 0.604986 0)
(1.74695 0.59472 0)
(1.7167 0.609747 0)
(1.68498 0.610104 0)
(1.65673 0.598833 0)
(1.6212 0.573587 0)
(1.59018 0.557913 0)
(1.57255 0.54943 0)
(1.573 0.550484 0)
(1.58186 0.551656 0)
(1.58854 0.549907 0)
(1.59666 0.549498 0)
(1.60707 0.548733 0)
(1.61752 0.55062 0)
(1.62682 0.554771 0)
(1.63784 0.561507 0)
(1.64865 0.571023 0)
(1.65909 0.582317 0)
(1.66356 0.589657 0)
(1.66633 0.597498 0)
(1.66167 0.615957 0)
(1.65286 0.632009 0)
(1.21931 0.299084 0)
(0.932564 0.261822 0)
(0.926434 0.251957 0)
(0.920953 0.257523 0)
(-0.00287679 -0.0931119 0)
(-0.0052978 -0.0898468 0)
(-0.00506443 -0.0836175 0)
(-0.00139328 -0.0777853 0)
(0.00569502 -0.0730298 0)
(0.0143479 -0.0722611 0)
(0.023155 -0.0773972 0)
(0.028658 -0.0877972 0)
(0.0287373 -0.101459 0)
(0.013298 -0.120026 0)
(-0.0236058 -0.141232 0)
(-0.0748396 -0.159704 0)
(-0.130889 -0.177829 0)
(-0.178793 -0.206098 0)
(-0.211994 -0.236212 0)
(-0.233048 -0.262565 0)
(-0.252729 -0.279735 0)
(-0.26542 -0.29837 0)
(-0.267344 -0.323594 0)
(-0.25499 -0.3548 0)
(-0.229428 -0.390713 0)
(-0.177504 -0.410566 0)
(-0.0935044 -0.405503 0)
(0.024584 -0.370868 0)
(0.164684 -0.291206 0)
(0.321805 -0.207045 0)
(0.457363 -0.0968019 0)
(0.593884 0.013258 0)
(0.784672 0.0983116 0)
(1.05698 0.251513 0)
(1.37644 0.429084 0)
(1.58854 0.587356 0)
(1.68983 0.66659 0)
(1.74586 0.668307 0)
(1.75997 0.625262 0)
(1.7544 0.612637 0)
(1.72147 0.6159 0)
(1.69119 0.610392 0)
(1.65595 0.594067 0)
(1.61699 0.574702 0)
(1.58538 0.56132 0)
(1.57066 0.556812 0)
(1.57488 0.557243 0)
(1.58244 0.552775 0)
(1.58848 0.548011 0)
(1.59665 0.547494 0)
(1.60693 0.547423 0)
(1.61721 0.549909 0)
(1.62814 0.553655 0)
(1.6409 0.560169 0)
(1.65167 0.568863 0)
(1.66144 0.57563 0)
(1.66644 0.583663 0)
(1.67021 0.592592 0)
(1.66434 0.615441 0)
(1.64947 0.612415 0)
(1.16767 0.277848 0)
(0.934372 0.256842 0)
(0.919269 0.252797 0)
(0.914021 0.257185 0)
(-0.00233022 -0.0902677 0)
(-0.00273276 -0.0858312 0)
(-0.00252686 -0.0788847 0)
(0.000824692 -0.0736124 0)
(0.00713354 -0.0713054 0)
(0.0145124 -0.0738381 0)
(0.020287 -0.0832952 0)
(0.023731 -0.0957852 0)
(0.0194145 -0.110959 0)
(-0.000606784 -0.13093 0)
(-0.0406809 -0.149354 0)
(-0.09055 -0.160331 0)
(-0.146328 -0.171885 0)
(-0.200974 -0.19511 0)
(-0.236031 -0.227124 0)
(-0.26092 -0.257365 0)
(-0.28346 -0.276801 0)
(-0.297507 -0.300587 0)
(-0.300888 -0.331604 0)
(-0.292671 -0.369086 0)
(-0.273971 -0.406345 0)
(-0.231287 -0.434321 0)
(-0.160458 -0.439836 0)
(-0.0555214 -0.410475 0)
(0.0815024 -0.331779 0)
(0.247352 -0.225548 0)
(0.400527 -0.117514 0)
(0.526487 -0.00568542 0)
(0.680775 0.0739739 0)
(0.909666 0.190681 0)
(1.20815 0.361134 0)
(1.46678 0.525074 0)
(1.61702 0.63562 0)
(1.72296 0.672048 0)
(1.76844 0.646924 0)
(1.76599 0.62443 0)
(1.72766 0.617093 0)
(1.69376 0.608678 0)
(1.65077 0.589593 0)
(1.61117 0.575974 0)
(1.58301 0.565261 0)
(1.57122 0.561313 0)
(1.57595 0.556424 0)
(1.58072 0.549473 0)
(1.58773 0.547399 0)
(1.59562 0.545642 0)
(1.60622 0.544696 0)
(1.61693 0.546655 0)
(1.62855 0.549935 0)
(1.64238 0.554902 0)
(1.65271 0.560922 0)
(1.66277 0.568123 0)
(1.66808 0.579186 0)
(1.67284 0.590355 0)
(1.66844 0.615227 0)
(1.64761 0.582812 0)
(1.11755 0.268908 0)
(0.936051 0.256374 0)
(0.909829 0.255311 0)
(0.907076 0.257171 0)
(-0.00174162 -0.0871658 0)
(-6.93089e-05 -0.0832984 0)
(0.000376163 -0.0775595 0)
(0.00339316 -0.0733113 0)
(0.00801184 -0.0725551 0)
(0.012958 -0.0780563 0)
(0.0154173 -0.089769 0)
(0.0164509 -0.103995 0)
(0.0088336 -0.121362 0)
(-0.0155118 -0.140489 0)
(-0.0559537 -0.152893 0)
(-0.103151 -0.157541 0)
(-0.160083 -0.165994 0)
(-0.218803 -0.186479 0)
(-0.256802 -0.219068 0)
(-0.284698 -0.250328 0)
(-0.309811 -0.272704 0)
(-0.324278 -0.300783 0)
(-0.32943 -0.336938 0)
(-0.324418 -0.37929 0)
(-0.309282 -0.422042 0)
(-0.277115 -0.456376 0)
(-0.222033 -0.475834 0)
(-0.129611 -0.464404 0)
(-0.00456536 -0.391847 0)
(0.159804 -0.274387 0)
(0.328166 -0.146775 0)
(0.463616 -0.042848 0)
(0.600538 0.024521 0)
(0.7853 0.117617 0)
(1.04392 0.267754 0)
(1.31567 0.429837 0)
(1.52764 0.558401 0)
(1.69194 0.652367 0)
(1.77402 0.661066 0)
(1.77692 0.633097 0)
(1.72838 0.615982 0)
(1.69062 0.604571 0)
(1.6458 0.589447 0)
(1.60843 0.577342 0)
(1.58184 0.568143 0)
(1.57323 0.561032 0)
(1.57341 0.55294 0)
(1.57883 0.547318 0)
(1.58801 0.544832 0)
(1.59497 0.54114 0)
(1.60536 0.538978 0)
(1.61598 0.538419 0)
(1.62879 0.540677 0)
(1.64359 0.546696 0)
(1.65403 0.555111 0)
(1.66455 0.56474 0)
(1.67099 0.576607 0)
(1.67575 0.588792 0)
(1.67435 0.615615 0)
(1.64787 0.54532 0)
(1.0624 0.265913 0)
(0.926956 0.255289 0)
(0.899343 0.255505 0)
(0.900938 0.256076 0)
(-0.00114299 -0.0849422 0)
(0.00151637 -0.0822454 0)
(0.00230256 -0.0783872 0)
(0.00494123 -0.0760876 0)
(0.00828411 -0.0768622 0)
(0.0104966 -0.0843543 0)
(0.0101405 -0.0967764 0)
(0.00842875 -0.111912 0)
(-0.00285363 -0.128587 0)
(-0.0292787 -0.143354 0)
(-0.0686434 -0.150564 0)
(-0.114348 -0.15346 0)
(-0.171247 -0.161074 0)
(-0.231329 -0.179452 0)
(-0.27322 -0.211024 0)
(-0.304351 -0.242155 0)
(-0.331836 -0.267838 0)
(-0.346631 -0.302052 0)
(-0.353677 -0.345982 0)
(-0.349964 -0.395881 0)
(-0.338351 -0.445658 0)
(-0.313133 -0.492021 0)
(-0.269046 -0.528278 0)
(-0.193443 -0.531148 0)
(-0.0800338 -0.478077 0)
(0.0746328 -0.368247 0)
(0.250091 -0.22848 0)
(0.392583 -0.105116 0)
(0.532007 -0.0395298 0)
(0.690036 0.0404674 0)
(0.902922 0.17566 0)
(1.1594 0.330779 0)
(1.4221 0.478241 0)
(1.63552 0.605084 0)
(1.7544 0.658293 0)
(1.77425 0.639871 0)
(1.72658 0.614125 0)
(1.68624 0.60074 0)
(1.64437 0.590442 0)
(1.6075 0.579025 0)
(1.58331 0.569072 0)
(1.57314 0.557832 0)
(1.57206 0.548045 0)
(1.57776 0.541764 0)
(1.58704 0.537927 0)
(1.59515 0.532248 0)
(1.60537 0.529059 0)
(1.61654 0.526816 0)
(1.62961 0.527697 0)
(1.64453 0.535309 0)
(1.6554 0.544312 0)
(1.66605 0.554634 0)
(1.67411 0.567925 0)
(1.67886 0.584534 0)
(1.68029 0.616241 0)
(1.61061 0.486398 0)
(1.00156 0.259542 0)
(0.912735 0.25276 0)
(0.890814 0.253191 0)
(0.89507 0.254564 0)
(-0.000270391 -0.083481 0)
(0.00268456 -0.0821668 0)
(0.00351035 -0.0797673 0)
(0.00577366 -0.079329 0)
(0.0070261 -0.0819338 0)
(0.00689223 -0.0899181 0)
(0.00454794 -0.101838 0)
(0.000158171 -0.115842 0)
(-0.0135202 -0.129145 0)
(-0.0403839 -0.138235 0)
(-0.0795914 -0.143967 0)
(-0.124341 -0.148821 0)
(-0.179633 -0.158817 0)
(-0.239731 -0.176487 0)
(-0.285717 -0.204927 0)
(-0.320615 -0.234674 0)
(-0.349646 -0.263117 0)
(-0.365463 -0.30266 0)
(-0.375352 -0.35524 0)
(-0.374828 -0.415118 0)
(-0.364178 -0.47466 0)
(-0.341536 -0.525274 0)
(-0.309691 -0.564893 0)
(-0.251675 -0.578823 0)
(-0.160747 -0.537992 0)
(-0.0201261 -0.451297 0)
(0.156995 -0.322604 0)
(0.316397 -0.189777 0)
(0.464532 -0.0994546 0)
(0.611911 -0.01271 0)
(0.790232 0.110538 0)
(1.01864 0.251645 0)
(1.29563 0.414215 0)
(1.54696 0.562744 0)
(1.6993 0.642059 0)
(1.75563 0.638625 0)
(1.72725 0.610507 0)
(1.68332 0.600141 0)
(1.64305 0.592074 0)
(1.60843 0.57977 0)
(1.58608 0.567065 0)
(1.57344 0.554166 0)
(1.57081 0.543112 0)
(1.57764 0.536221 0)
(1.58785 0.530469 0)
(1.59358 0.522313 0)
(1.60292 0.516261 0)
(1.61558 0.51341 0)
(1.6306 0.516051 0)
(1.64523 0.525035 0)
(1.65773 0.534539 0)
(1.66897 0.54381 0)
(1.67823 0.555435 0)
(1.68256 0.575782 0)
(1.68383 0.606436 0)
(1.52928 0.425466 0)
(0.956686 0.263479 0)
(0.908087 0.249513 0)
(0.887628 0.250304 0)
(0.888413 0.252588 0)
(0.000213525 -0.082878 0)
(0.00307962 -0.0827545 0)
(0.00395141 -0.0818721 0)
(0.0056289 -0.0821639 0)
(0.00572245 -0.0861166 0)
(0.00417704 -0.0943898 0)
(-0.00028412 -0.104957 0)
(-0.00681799 -0.115738 0)
(-0.0218691 -0.123923 0)
(-0.0498633 -0.130986 0)
(-0.0909917 -0.138465 0)
(-0.134411 -0.146912 0)
(-0.185245 -0.156704 0)
(-0.243799 -0.172817 0)
(-0.29223 -0.196712 0)
(-0.331164 -0.224136 0)
(-0.363123 -0.256349 0)
(-0.382693 -0.305296 0)
(-0.395192 -0.369576 0)
(-0.395155 -0.437684 0)
(-0.385113 -0.495936 0)
(-0.366682 -0.539816 0)
(-0.343716 -0.580698 0)
(-0.301848 -0.602744 0)
(-0.22847 -0.580807 0)
(-0.110911 -0.503255 0)
(0.0567072 -0.385317 0)
(0.231002 -0.254333 0)
(0.39691 -0.160144 0)
(0.55022 -0.066466 0)
(0.699522 0.0631352 0)
(0.89506 0.2061 0)
(1.1564 0.369909 0)
(1.42223 0.520138 0)
(1.61346 0.613303 0)
(1.71544 0.634494 0)
(1.71864 0.61316 0)
(1.67983 0.604377 0)
(1.64207 0.595205 0)
(1.60991 0.580739 0)
(1.58739 0.565296 0)
(1.57415 0.550352 0)
(1.5718 0.539144 0)
(1.57886 0.529752 0)
(1.58462 0.519615 0)
(1.59106 0.509405 0)
(1.60217 0.503058 0)
(1.61584 0.500754 0)
(1.63191 0.505841 0)
(1.64518 0.514884 0)
(1.65767 0.522023 0)
(1.66938 0.530042 0)
(1.68182 0.541105 0)
(1.68667 0.561176 0)
(1.68916 0.588326 0)
(1.45996 0.374945 0)
(0.938632 0.265793 0)
(0.906556 0.248695 0)
(0.884733 0.247925 0)
(0.880789 0.250303 0)
(0.000464717 -0.0852389 0)
(0.00300216 -0.0850592 0)
(0.00376779 -0.0847326 0)
(0.00537953 -0.0854804 0)
(0.00414324 -0.0899546 0)
(0.00129606 -0.0980692 0)
(-0.00421027 -0.106341 0)
(-0.011846 -0.114154 0)
(-0.0298492 -0.120908 0)
(-0.0612614 -0.130617 0)
(-0.104014 -0.140269 0)
(-0.143393 -0.14493 0)
(-0.187863 -0.150623 0)
(-0.243391 -0.16481 0)
(-0.294319 -0.184805 0)
(-0.338949 -0.212491 0)
(-0.374589 -0.250107 0)
(-0.400203 -0.308828 0)
(-0.414987 -0.381836 0)
(-0.413759 -0.44879 0)
(-0.405447 -0.498221 0)
(-0.386328 -0.542916 0)
(-0.370188 -0.584004 0)
(-0.342697 -0.615399 0)
(-0.29465 -0.601493 0)
(-0.199906 -0.540078 0)
(-0.0421703 -0.434368 0)
(0.14146 -0.306903 0)
(0.320596 -0.199922 0)
(0.48818 -0.108963 0)
(0.627045 0.0176757 0)
(0.788791 0.164381 0)
(1.01183 0.320223 0)
(1.26941 0.465203 0)
(1.49605 0.56765 0)
(1.64317 0.612719 0)
(1.68584 0.613424 0)
(1.66721 0.610709 0)
(1.63699 0.600259 0)
(1.60836 0.581706 0)
(1.5857 0.561747 0)
(1.5727 0.543294 0)
(1.57131 0.530449 0)
(1.57586 0.518051 0)
(1.58251 0.505399 0)
(1.59155 0.494856 0)
(1.60233 0.490447 0)
(1.61686 0.49203 0)
(1.63246 0.498512 0)
(1.64391 0.502024 0)
(1.65722 0.506375 0)
(1.66997 0.513159 0)
(1.6832 0.521441 0)
(1.68878 0.540542 0)
(1.69261 0.562404 0)
(1.39824 0.348752 0)
(0.934145 0.266761 0)
(0.906277 0.248865 0)
(0.881029 0.246201 0)
(0.872748 0.247826 0)
(0.000421391 -0.0893823 0)
(0.0032645 -0.0892953 0)
(0.00399727 -0.0886968 0)
(0.0044819 -0.0898756 0)
(0.00249652 -0.0949575 0)
(-0.0012233 -0.102846 0)
(-0.00752316 -0.109964 0)
(-0.0172537 -0.117861 0)
(-0.0393903 -0.127651 0)
(-0.0735658 -0.141321 0)
(-0.114549 -0.145467 0)
(-0.148914 -0.140607 0)
(-0.186799 -0.140371 0)
(-0.237963 -0.152436 0)
(-0.288815 -0.170548 0)
(-0.339069 -0.199298 0)
(-0.383255 -0.243279 0)
(-0.416287 -0.311217 0)
(-0.430507 -0.385873 0)
(-0.428757 -0.443621 0)
(-0.41956 -0.492569 0)
(-0.402216 -0.529024 0)
(-0.392729 -0.567551 0)
(-0.382341 -0.602125 0)
(-0.351842 -0.61326 0)
(-0.283702 -0.568491 0)
(-0.144056 -0.472124 0)
(0.034243 -0.339405 0)
(0.239986 -0.244226 0)
(0.424305 -0.147207 0)
(0.565774 -0.0224393 0)
(0.70096 0.121393 0)
(0.877607 0.258451 0)
(1.10438 0.386078 0)
(1.34128 0.496873 0)
(1.52634 0.566523 0)
(1.61492 0.594292 0)
(1.63361 0.601651 0)
(1.62344 0.590247 0)
(1.60287 0.568471 0)
(1.58513 0.548471 0)
(1.57544 0.534008 0)
(1.5748 0.521969 0)
(1.57819 0.506697 0)
(1.58385 0.491841 0)
(1.59237 0.483761 0)
(1.60249 0.483261 0)
(1.61935 0.487277 0)
(1.63176 0.488899 0)
(1.64566 0.489391 0)
(1.66029 0.490177 0)
(1.67321 0.494343 0)
(1.68515 0.499676 0)
(1.69184 0.520355 0)
(1.69307 0.531327 0)
(1.34778 0.331516 0)
(0.939703 0.268828 0)
(0.904835 0.252436 0)
(0.874387 0.245603 0)
(0.864573 0.245542 0)
(0.000224548 -0.0945167 0)
(0.00317193 -0.0944458 0)
(0.00388182 -0.0942082 0)
(0.00364779 -0.0961174 0)
(0.001236 -0.101546 0)
(-0.00373252 -0.108601 0)
(-0.0111838 -0.116327 0)
(-0.0247369 -0.128015 0)
(-0.0513765 -0.144478 0)
(-0.0848528 -0.155593 0)
(-0.12009 -0.147262 0)
(-0.150372 -0.133109 0)
(-0.18424 -0.124953 0)
(-0.232924 -0.133858 0)
(-0.283575 -0.153595 0)
(-0.340475 -0.185396 0)
(-0.392053 -0.235773 0)
(-0.426668 -0.308021 0)
(-0.441785 -0.380044 0)
(-0.440653 -0.43958 0)
(-0.428452 -0.480933 0)
(-0.415678 -0.509897 0)
(-0.411129 -0.54302 0)
(-0.414618 -0.583086 0)
(-0.407935 -0.603367 0)
(-0.3618 -0.583278 0)
(-0.240573 -0.510719 0)
(-0.0742591 -0.380125 0)
(0.148707 -0.268669 0)
(0.352688 -0.163158 0)
(0.501856 -0.0393605 0)
(0.619129 0.0904692 0)
(0.759836 0.205086 0)
(0.943576 0.319354 0)
(1.16095 0.434479 0)
(1.36213 0.520643 0)
(1.49787 0.570708 0)
(1.56598 0.591214 0)
(1.58531 0.579746 0)
(1.58255 0.556039 0)
(1.57665 0.535939 0)
(1.57507 0.522915 0)
(1.57825 0.509782 0)
(1.57916 0.49366 0)
(1.58498 0.481953 0)
(1.59357 0.476989 0)
(1.60521 0.473723 0)
(1.61828 0.473885 0)
(1.62837 0.472505 0)
(1.64271 0.469593 0)
(1.65759 0.468274 0)
(1.67211 0.471789 0)
(1.68671 0.480184 0)
(1.69537 0.504495 0)
(1.69288 0.507483 0)
(1.30603 0.322877 0)
(0.946234 0.273588 0)
(0.899349 0.256042 0)
(0.864526 0.244682 0)
(0.856025 0.244403 0)
(-0.000173488 -0.100382 0)
(0.00297273 -0.100332 0)
(0.00373419 -0.100547 0)
(0.00271245 -0.102672 0)
(-0.00113332 -0.10757 0)
(-0.00636186 -0.115518 0)
(-0.0161802 -0.127364 0)
(-0.0353712 -0.145657 0)
(-0.0617752 -0.166301 0)
(-0.0910156 -0.162841 0)
(-0.120053 -0.143791 0)
(-0.1488 -0.121144 0)
(-0.180179 -0.105659 0)
(-0.224659 -0.111239 0)
(-0.272624 -0.134495 0)
(-0.331723 -0.171766 0)
(-0.391706 -0.22557 0)
(-0.434432 -0.299451 0)
(-0.449793 -0.371113 0)
(-0.447003 -0.424524 0)
(-0.432156 -0.459705 0)
(-0.427648 -0.48157 0)
(-0.426914 -0.507183 0)
(-0.443351 -0.545094 0)
(-0.455611 -0.581114 0)
(-0.430383 -0.585889 0)
(-0.332614 -0.539916 0)
(-0.183821 -0.414464 0)
(0.0526574 -0.298049 0)
(0.274316 -0.156029 0)
(0.438314 -0.0168576 0)
(0.540219 0.109817 0)
(0.65313 0.210165 0)
(0.798773 0.310082 0)
(0.984052 0.410889 0)
(1.17496 0.491711 0)
(1.33725 0.544062 0)
(1.45137 0.567302 0)
(1.51328 0.553579 0)
(1.54351 0.533883 0)
(1.55866 0.522537 0)
(1.56831 0.51597 0)
(1.57275 0.501222 0)
(1.57408 0.481174 0)
(1.58283 0.470518 0)
(1.59388 0.465699 0)
(1.6102 0.460012 0)
(1.62025 0.456923 0)
(1.63346 0.452139 0)
(1.64597 0.445827 0)
(1.65955 0.446595 0)
(1.67295 0.453698 0)
(1.68941 0.468587 0)
(1.69982 0.493494 0)
(1.69318 0.488589 0)
(1.26477 0.326841 0)
(0.948161 0.282258 0)
(0.890014 0.260967 0)
(0.854429 0.246148 0)
(0.847047 0.243567 0)
(-0.000457048 -0.105529 0)
(0.00276587 -0.105436 0)
(0.00310452 -0.105626 0)
(0.00145889 -0.107581 0)
(-0.00330491 -0.113002 0)
(-0.0103096 -0.124247 0)
(-0.0245598 -0.143076 0)
(-0.0456887 -0.168764 0)
(-0.0687743 -0.176072 0)
(-0.0921002 -0.160188 0)
(-0.117936 -0.133724 0)
(-0.144714 -0.106632 0)
(-0.171768 -0.08614 0)
(-0.210993 -0.08837 0)
(-0.256881 -0.114567 0)
(-0.319868 -0.154889 0)
(-0.388401 -0.208066 0)
(-0.427902 -0.280005 0)
(-0.444867 -0.351174 0)
(-0.445884 -0.403689 0)
(-0.431836 -0.436022 0)
(-0.435543 -0.452151 0)
(-0.44042 -0.474111 0)
(-0.466465 -0.511494 0)
(-0.496211 -0.552141 0)
(-0.49167 -0.572171 0)
(-0.420534 -0.553232 0)
(-0.280855 -0.460779 0)
(-0.053023 -0.331304 0)
(0.191054 -0.167728 0)
(0.372288 0.000378334 0)
(0.464661 0.144332 0)
(0.551701 0.241596 0)
(0.661361 0.323836 0)
(0.805707 0.397661 0)
(0.97142 0.455338 0)
(1.13743 0.497246 0)
(1.28429 0.512488 0)
(1.39251 0.503713 0)
(1.46845 0.499157 0)
(1.51895 0.503183 0)
(1.55043 0.499874 0)