/*--------------------------------*- C++ -*----------------------------------*\
  =========                 |
  \\      /  F ield         | OpenFOAM: The Open Source CFD Toolbox
   \\    /   O peration     | Website:  https://openfoam.org
    \\  /    A nd           | Version:  7
     \\/     M anipulation  |
\*---------------------------------------------------------------------------*/
FoamFile
{
    version     2.0;
    format      ascii;
    class       volScalarField;
    location    "0.2";
    object      p;
}
// * * * * * * * * * * * * * * * * * * * * * * * * * * * * * * * * * * * * * //

dimensions      [1 -1 -2 0 0 0 0];

internalField   nonuniform List<scalar> 
2600
(
0.262236
0.397473
0.756991
0.933744
0.902219
0.893582
0.938582
0.985567
0.998929
1.00211
0.269201
0.386651
0.742349
0.934975
0.909965
0.896025
0.938687
0.98508
0.998857
1.00211
0.256095
0.385783
0.738935
0.937484
0.912125
0.896959
0.938576
0.984634
0.998792
1.00211
0.251385
0.410207
0.72598
0.927335
0.913677
0.897326
0.938584
0.984225
0.998734
1.00211
0.241568
0.418417
0.728706
0.922133
0.913421
0.897111
0.93857
0.98392
0.998688
1.0021
0.232277
0.42314
0.739571
0.924762
0.913573
0.896931
0.938255
0.983691
0.998655
1.0021
0.22433
0.421735
0.748208
0.932668
0.912971
0.896227
0.937804
0.983496
0.998628
1.0021
0.21997
0.413336
0.747312
0.94604
0.913588
0.896999
0.937515
0.983379
0.998606
1.0021
0.217448
0.408495
0.734815
0.941484
0.906125
0.896574
0.937078
0.983281
0.998594
1.0021
0.214776
0.404996
0.733762
0.948433
0.907674
0.897667
0.937219
0.983221
0.998583
1.0021
0.214776
0.404996
0.733762
0.948433
0.907674
0.897667
0.937219
0.983221
0.998583
1.0021
0.217448
0.408495
0.734815
0.941484
0.906125
0.896574
0.937078
0.983281
0.998594
1.0021
0.21997
0.413336
0.747312
0.94604
0.913588
0.896999
0.937515
0.983379
0.998606
1.0021
0.22433
0.421735
0.748208
0.932668
0.912971
0.896227
0.937804
0.983496
0.998628
1.0021
0.232277
0.42314
0.739571
0.924762
0.913573
0.896931
0.938255
0.983691
0.998655
1.0021
0.241568
0.418417
0.728706
0.922133
0.913421
0.897111
0.93857
0.98392
0.998688
1.0021
0.251385
0.410207
0.72598
0.927335
0.913677
0.897326
0.938584
0.984225
0.998734
1.00211
0.256095
0.385783
0.738935
0.937484
0.912125
0.896959
0.938576
0.984634
0.998792
1.00211
0.269201
0.386651
0.742349
0.934975
0.909965
0.896025
0.938687
0.98508
0.998857
1.00211
0.262236
0.397473
0.756991
0.933744
0.902219
0.893582
0.938582
0.985567
0.998929
1.00211
0.387683
0.37014
0.711595
0.926112
0.892155
0.890134
0.938861
0.986269
0.999012
1.00212
0.530546
0.342864
0.631691
0.884539
0.880571
0.886922
0.939954
0.987158
0.999102
1.00212
0.658774
0.3561
0.506318
0.80518
0.865501
0.886286
0.942259
0.988113
0.999185
1.00212
0.762234
0.431232
0.484323
0.708923
0.845602
0.887093
0.945253
0.989087
0.999264
1.00213
0.844189
0.511807
0.5004
0.666124
0.825947
0.888245
0.948413
0.990062
0.99934
1.00213
0.912439
0.576177
0.548836
0.660132
0.815277
0.88929
0.951395
0.991025
0.999415
1.00213
0.96829
0.636298
0.593636
0.6728
0.809729
0.890562
0.954338
0.991976
0.999487
1.00213
1.01445
0.696112
0.637252
0.694129
0.808829
0.892857
0.957379
0.992912
0.999554
1.00214
1.05844
0.749856
0.679598
0.719794
0.815777
0.897412
0.960812
0.993835
0.999616
1.00214
1.09993
0.803786
0.718616
0.742212
0.823739
0.903317
0.964552
0.994733
0.999673
1.00214
1.13696
0.853804
0.755601
0.769705
0.837718
0.911302
0.968615
0.995593
0.999724
1.00214
1.17089
0.899201
0.788508
0.794352
0.852184
0.920374
0.972878
0.996406
0.99977
1.00214
1.20069
0.940905
0.82186
0.818867
0.867083
0.929507
0.977036
0.997146
0.999811
1.00214
1.22759
0.979962
0.852326
0.842618
0.882533
0.938887
0.981106
0.997817
0.999849
1.00214
1.25182
1.01638
0.882164
0.865706
0.897403
0.947709
0.984849
0.998401
0.999884
1.00214
1.27416
1.04884
0.911204
0.887461
0.91358
0.95696
0.988442
0.998911
0.999915
1.00213
1.29536
1.07931
0.939882
0.908078
0.93004
0.965678
0.991663
0.999333
0.999945
1.00212
1.31645
1.10862
0.968302
0.929363
0.946648
0.975216
0.994867
0.999686
0.999976
1.00211
1.33564
1.1374
0.996325
0.950146
0.963091
0.984876
0.997583
0.999923
0.999997
1.0021
1.3499
1.16186
1.02338
0.97047
0.978322
0.993911
1.00008
1.00013
1.00001
1.0021
1.82658
1.72874
1.6725
1.63234
1.62771
1.65373
1.68115
1.68675
1.62135
1.52796
1.79675
1.70418
1.66902
1.64202
1.65042
1.67363
1.6883
1.68147
1.57772
1.43018
1.79065
1.69485
1.66414
1.64609
1.65893
1.68109
1.69116
1.66757
1.57614
1.43163
1.78609
1.69827
1.66848
1.65888
1.67254
1.68844
1.69327
1.65735
1.56521
1.413
1.78218
1.7052
1.67089
1.67015
1.68591
1.69938
1.69626
1.65221
1.55658
1.40039
1.76789
1.70902
1.67799
1.68509
1.70176
1.71483
1.70054
1.64623
1.5502
1.38871
1.75145
1.71644
1.69254
1.70691
1.72358
1.73195
1.70403
1.64102
1.54461
1.38105
1.72732
1.72463
1.71148
1.72955
1.74407
1.74258
1.70377
1.63293
1.53624
1.37992
1.70608
1.73854
1.7365
1.75052
1.75818
1.74331
1.6958
1.62281
1.52649
1.38263
1.71966
1.77592
1.77296
1.76433
1.76002
1.73243
1.68296
1.61025
1.51772
1.3884
1.75485
1.82051
1.80289
1.77286
1.73181
1.69383
1.65166
1.59316
1.51045
1.3962
1.66416
1.77313
1.74643
1.71406
1.68942
1.66911
1.62783
1.57687
1.50296
1.40376
1.48059
1.63548
1.68621
1.67366
1.6594
1.64231
1.60608
1.56192
1.49709
1.41124
1.25609
1.4908
1.62322
1.64432
1.62771
1.61056
1.58357
1.5487
1.49371
1.41985
1.05682
1.17919
1.4392
1.54922
1.57134
1.5759
1.56437
1.53997
1.49291
1.42976
0.964259
0.944249
1.10716
1.3974
1.53
1.54972
1.55461
1.53439
1.49492
1.43945
0.941703
0.887265
0.898641
1.09628
1.39646
1.5184
1.54129
1.53109
1.49875
1.44966
0.930125
0.875636
0.861165
0.890931
1.12777
1.42468
1.53167
1.53306
1.50425
1.45932
0.921136
0.869198
0.856085
0.856792
0.910294
1.19505
1.46447
1.53206
1.51604
1.46988
0.916705
0.86662
0.854874
0.8558
0.862966
0.958781
1.27511
1.49591
1.52478
1.48212
0.999996
1.00004
1.00348
1.11445
2.13707
3.13615
3.22772
3.08237
2.3374
1.85649
0.999996
1.00004
1.00348
1.11445
2.13707
3.13614
3.22781
3.08089
2.3411
1.84754
0.999996
1.00004
1.00348
1.11445
2.13707
3.13612
3.22794
3.07914
2.3461
1.83134
0.999996
1.00004
1.00348
1.11445
2.13706
3.13611
3.22815
3.07643
2.34685
1.80713
0.999996
1.00004
1.00348
1.11445
2.13706
3.13609
3.22841
3.07389
2.3482
1.7787
0.999996
1.00004
1.00348
1.11445
2.13706
3.13607
3.22862
3.07225
2.34501
1.73837
0.999996
1.00004
1.00348
1.11445
2.13707
3.13607
3.22869
3.07207
2.33316
1.69419
0.999996
1.00004
1.00348
1.11444
2.13707
3.13607
3.22865
3.07419
2.30824
1.64745
0.999996
1.00004
1.00348
1.11444
2.13707
3.13607
3.2285
3.07827
2.28351
1.60581
0.999996
1.00004
1.00348
1.11444
2.13707
3.13608
3.2283
3.08146
2.27423
1.5634
0.999996
1.00004
1.00348
1.11445
2.13707
3.13609
3.22816
3.08254
2.26938
1.5154
0.999996
1.00004
1.00348
1.11445
2.13707
3.13609
3.22811
3.08291
2.27229
1.45123
0.999996
1.00004
1.00348
1.11445
2.13707
3.13609
3.22809
3.08281
2.27962
1.42906
0.999996
1.00004
1.00348
1.11445
2.13707
3.1361
3.22808
3.08255
2.28569
1.4214
0.999996
1.00004
1.00348
1.11445
2.13707
3.1361
3.22809
3.08223
2.28978
1.42677
0.999996
1.00004
1.00348
1.11445
2.13707
3.1361
3.22809
3.0819
2.29339
1.42842
0.999996
1.00004
1.00348
1.11445
2.13707
3.1361
3.22811
3.08151
2.29738
1.42672
0.999996
1.00004
1.00348
1.11445
2.13707
3.13609
3.22813
3.08101
2.3024
1.41978
0.999996
1.00004
1.00348
1.11445
2.13707
3.13609
3.22815
3.08043
2.30747
1.41011
0.999996
1.00004
1.00348
1.11445
2.13707
3.13609
3.22818
3.07996
2.31062
1.40477
0.999996
1.00004
1.00348
1.11445
2.13707
3.13609
3.22818
3.07996
2.31062
1.40477
0.999996
1.00004
1.00348
1.11445
2.13707
3.13609
3.22815
3.08043
2.30747
1.41011
0.999996
1.00004
1.00348
1.11445
2.13707
3.13609
3.22813
3.08101
2.3024
1.41978
0.999996
1.00004
1.00348
1.11445
2.13707
3.1361
3.22811
3.08151
2.29738
1.42672
0.999996
1.00004
1.00348
1.11445
2.13707
3.1361
3.22809
3.0819
2.29339
1.42842
0.999996
1.00004
1.00348
1.11445
2.13707
3.1361
3.22809
3.08223
2.28978
1.42677
0.999996
1.00004
1.00348
1.11445
2.13707
3.1361
3.22808
3.08255
2.28569
1.4214
0.999996
1.00004
1.00348
1.11445
2.13707
3.13609
3.22809
3.08281
2.27962
1.42906
0.999996
1.00004
1.00348
1.11445
2.13707
3.13609
3.22811
3.08291
2.27229
1.45123
0.999996
1.00004
1.00348
1.11445
2.13707
3.13609
3.22816
3.08254
2.26938
1.5154
0.999996
1.00004
1.00348
1.11444
2.13707
3.13608
3.2283
3.08146
2.27423
1.5634
0.999996
1.00004
1.00348
1.11444
2.13707
3.13607
3.2285
3.07827
2.28351
1.60581
0.999996
1.00004
1.00348
1.11444
2.13707
3.13607
3.22865
3.07419
2.30824
1.64745
0.999996
1.00004
1.00348
1.11445
2.13707
3.13607
3.22869
3.07207
2.33316
1.69419
0.999996
1.00004
1.00348
1.11445
2.13706
3.13607
3.22862
3.07225
2.34501
1.73837
0.999996
1.00004
1.00348
1.11445
2.13706
3.13609
3.22841
3.07389
2.3482
1.7787
0.999996
1.00004
1.00348
1.11445
2.13706
3.13611
3.22815
3.07643
2.34685
1.80713
0.999996
1.00004
1.00348
1.11445
2.13707
3.13612
3.22794
3.07914
2.3461
1.83134
0.999996
1.00004
1.00348
1.11445
2.13707
3.13614
3.22781
3.08089
2.3411
1.84754
0.999996
1.00004
1.00348
1.11445
2.13707
3.13615
3.22772
3.08237
2.3374
1.85649
0.916706
0.866621
0.854875
0.855802
0.862967
0.958782
1.27511
1.49591
1.52478
1.48212
0.921136
0.869199
0.856086
0.856793
0.910295
1.19505
1.46448
1.53206
1.51604
1.46987
0.930125
0.875636
0.861165
0.890931
1.12778
1.42468
1.53167
1.53306
1.50424
1.45932
0.941702
0.887264
0.898641
1.09628
1.39646
1.5184
1.54129
1.53109
1.49875
1.44966
0.964259
0.944248
1.10716
1.3974
1.53
1.54972
1.55461
1.53439
1.49492
1.43945
1.05682
1.17919
1.4392
1.54922
1.57134
1.5759
1.56437
1.53997
1.49291
1.42976
1.25609
1.4908
1.62322
1.64432
1.62771
1.61056
1.58357
1.5487
1.4937
1.41985
1.48059
1.63548
1.68621
1.67366
1.6594
1.64231
1.60608
1.56192
1.49709
1.41124
1.66416
1.77314
1.74643
1.71406
1.68942
1.66911
1.62783
1.57687
1.50296
1.40376
1.75485
1.82051
1.80289
1.77286
1.73181
1.69383
1.65166
1.59316
1.51045
1.3962
1.71966
1.77592
1.77296
1.76433
1.76002
1.73243
1.68296
1.61025
1.51772
1.3884
1.70608
1.73854
1.7365
1.75052
1.75818
1.74331
1.6958
1.62281
1.52649
1.38263
1.72732
1.72463
1.71148
1.72955
1.74407
1.74258
1.70377
1.63293
1.53624
1.37992
1.75145
1.71644
1.69254
1.70691
1.72358
1.73195
1.70403
1.64102
1.54461
1.38105
1.76789
1.70902
1.67799
1.68509
1.70176
1.71483
1.70054
1.64623
1.5502
1.38871
1.78218
1.7052
1.67089
1.67015
1.68591
1.69938
1.69626
1.65221
1.55658
1.40039
1.78609
1.69827
1.66848
1.65888
1.67254
1.68844
1.69327
1.65735
1.56521
1.413
1.79065
1.69485
1.66414
1.64609
1.65893
1.68109
1.69116
1.66757
1.57614
1.43163
1.79675
1.70418
1.66902
1.64202
1.65042
1.67363
1.6883
1.68147
1.57772
1.43018
1.82658
1.72874
1.6725
1.63234
1.62771
1.65373
1.68115
1.68675
1.62135
1.52796
1.3499
1.16186
1.02338
0.97047
0.978322
0.993911
1.00008
1.00013
1.00001
1.0021
1.33564
1.1374
0.996325
0.950146
0.963091
0.984876
0.997583
0.999923
0.999997
1.0021
1.31645
1.10862
0.968302
0.929363
0.946648
0.975216
0.994867
0.999686
0.999976
1.00211
1.29536
1.07931
0.939882
0.908078
0.93004
0.965678
0.991663
0.999333
0.999945
1.00212
1.27415
1.04884
0.911204
0.887461
0.91358
0.95696
0.988442
0.998911
0.999915
1.00213
1.25182
1.01638
0.882164
0.865706
0.897403
0.947709
0.984849
0.998401
0.999884
1.00214
1.22759
0.979962
0.852326
0.842618
0.882533
0.938887
0.981106
0.997817
0.999849
1.00214
1.20069
0.940905
0.82186
0.818867
0.867083
0.929507
0.977036
0.997146
0.999811
1.00214
1.17089
0.899201
0.788508
0.794352
0.852184
0.920374
0.972878
0.996406
0.99977
1.00214
1.13696
0.853804
0.755601
0.769705
0.837718
0.911302
0.968615
0.995593
0.999724
1.00214
1.09993
0.803786
0.718616
0.742212
0.823739
0.903317
0.964552
0.994733
0.999673
1.00214
1.05844
0.749856
0.679598
0.719794
0.815777
0.897412
0.960812
0.993835
0.999616
1.00214
1.01445
0.696112
0.637252
0.694129
0.808829
0.892857
0.957379
0.992912
0.999554
1.00214
0.96829
0.636298
0.593636
0.6728
0.809729
0.890562
0.954338
0.991976
0.999487
1.00213
0.912439
0.576177
0.548836
0.660132
0.815277
0.88929
0.951395
0.991025
0.999415
1.00213
0.844189
0.511807
0.5004
0.666124
0.825947
0.888245
0.948413
0.990062
0.99934
1.00213
0.762234
0.431232
0.484323
0.708923
0.845602
0.887093
0.945253
0.989087
0.999264
1.00213
0.658774
0.3561
0.506318
0.80518
0.865501
0.886286
0.942259
0.988113
0.999185
1.00212
0.530546
0.342864
0.631691
0.884539
0.880571
0.886922
0.939954
0.987158
0.999102
1.00212
0.387683
0.37014
0.711595
0.926112
0.892155
0.890134
0.938861
0.986269
0.999012
1.00212
0.997642
0.999931
0.999999
1
1
1
1
1
1
1.0021
0.997642
0.999931
0.999999
1
1
1
1
1
1
1.0021
0.997642
0.999931
0.999999
1
1
1
1
1
1
1.0021
0.997642
0.999931
0.999999
1
1
1
1
1
1
1.0021
0.997642
0.999931
0.999999
1
1
1
1
1
1
1.0021
0.997642
0.999931
0.999999
1
1
1
1
1
1
1.0021
0.997642
0.999931
0.999999
1
1
1
1
1
1
1.0021
0.997642
0.999931
0.999999
1
1
1
1
1
1
1.0021
0.997642
0.999931
0.999999
1
1
1
1
1
1
1.0021
0.997642
0.999931
0.999999
1
1
1
1
1
1
1.0021
0.997642
0.999931
0.999999
1
1
1
1
1
1
1.0021
0.997639
0.999932
1
1
1
1
1
1
1
1.0021
0.997567
1.00007
1.00033
1.00018
1.00002
1
1
1
1
1.0021
0.997368
1.00798
1.01359
1.00864
1.00142
1.00003
1
1
1
1.0021
1.00352
1.074
1.09254
1.06368
1.0177
1.00104
1.00001
1
1
1.0021
1.067
1.20233
1.19612
1.13738
1.05636
1.00764
1.0002
1
1
1.0021
1.21541
1.2787
1.22963
1.15867
1.08072
1.01952
1.00121
1.00002
1
1.0021
1.34214
1.28888
1.21524
1.14432
1.08247
1.02635
1.0031
1.00008
1
1.0021
1.392
1.27052
1.13741
1.06485
1.04899
1.02656
1.00436
1.00021
1
1.0021
1.37899
1.20401
1.06514
0.999533
1.00057
1.00876
1.00413
1.00031
1.00001
1.0021
1.37899
1.20401
1.06514
0.999533
1.00057
1.00876
1.00413
1.00031
1.00001
1.0021
1.392
1.27052
1.13741
1.06485
1.04899
1.02656
1.00436
1.00021
1
1.0021
1.34214
1.28888
1.21524
1.14432
1.08247
1.02635
1.0031
1.00008
1
1.0021
1.21541
1.2787
1.22963
1.15867
1.08072
1.01952
1.00121
1.00002
1
1.0021
1.067
1.20233
1.19612
1.13738
1.05636
1.00764
1.0002
1
1
1.0021
1.00352
1.074
1.09254
1.06368
1.0177
1.00104
1.00001
1
1
1.0021
0.997368
1.00798
1.01359
1.00864
1.00142
1.00003
1
1
1
1.0021
0.997567
1.00007
1.00033
1.00018
1.00002
1
1
1
1
1.0021
0.997639
0.999932
1
1
1
1
1
1
1
1.0021
0.997642
0.999931
0.999999
1
1
1
1
1
1
1.0021
0.997642
0.999931
0.999999
1
1
1
1
1
1
1.0021
0.997642
0.999931
0.999999
1
1
1
1
1
1
1.0021
0.997642
0.999931
0.999999
1
1
1
1
1
1
1.0021
0.997642
0.999931
0.999999
1
1
1
1
1
1
1.0021
0.997642
0.999931
0.999999
1
1
1
1
1
1
1.0021
0.997642
0.999931
0.999999
1
1
1
1
1
1
1.0021
0.997641
0.999931
0.999999
1
1
1
1
1
1
1.0021
0.997641
0.999931
0.999999
1
1
1
1
1
1
1.0021
0.997641
0.999931
0.999999
1
1
1
1
1
1
1.0021
0.997641
0.999931
0.999999
1
1
1
1
1
1
1.0021
0.915724
0.866118
0.854653
0.855753
0.862169
0.885534
0.996567
1.26724
1.45271
1.48396
0.915623
0.866052
0.854594
0.855707
0.862999
0.881411
0.911156
0.992252
1.19329
1.37996
0.91564
0.86611
0.854696
0.855799
0.863114
0.882218
0.909765
0.939381
0.995281
1.14469
0.915672
0.866172
0.85478
0.855873
0.863145
0.882406
0.910166
0.939373
0.964549
1.0025
0.915678
0.86619
0.854806
0.855895
0.863184
0.882418
0.910271
0.939503
0.964957
0.983902
0.915678
0.866192
0.85481
0.855899
0.863192
0.88242
0.910283
0.939504
0.965186
0.984233
0.915677
0.866192
0.854811
0.855899
0.863193
0.882424
0.910266
0.939581
0.964932
0.985425
0.915677
0.866192
0.854811
0.855899
0.863192
0.882427
0.910254
0.939618
0.964823
0.985609
0.915677
0.866192
0.854811
0.855899
0.863192
0.882428
0.910252
0.939622
0.964815
0.985606
0.915677
0.866192
0.854811
0.855899
0.863192
0.882428
0.910252
0.939622
0.964814
0.985606
0.915677
0.866192
0.85481
0.855899
0.863192
0.882428
0.910252
0.939622
0.964814
0.985606
0.915677
0.866192
0.85481
0.855899
0.863192
0.882428
0.910252
0.939622
0.964814
0.985606
0.915677
0.866192
0.854811
0.855899
0.863192
0.882428
0.910252
0.939622
0.964814
0.985605
0.915677
0.866193
0.854811
0.8559
0.863192
0.882428
0.910252
0.939622
0.964814
0.985605
0.915678
0.866193
0.854811
0.8559
0.863193
0.882429
0.910253
0.939622
0.964814
0.985605
0.915678
0.866194
0.854812
0.855901
0.863193
0.882429
0.910253
0.939623
0.964814
0.985605
0.915678
0.866194
0.854813
0.855902
0.863194
0.88243
0.910254
0.939623
0.964815
0.985605
0.915679
0.866195
0.854814
0.855902
0.863195
0.882431
0.910255
0.939624
0.964815
0.985605
0.915679
0.866195
0.854814
0.855903
0.863195
0.882431
0.910255
0.939624
0.964816
0.985605
0.915679
0.866196
0.854815
0.855903
0.863195
0.882432
0.910256
0.939625
0.964816
0.985605
0.999996
1.00004
1.00348
1.11445
2.13707
3.13609
3.22819
3.07979
2.31129
1.40393
0.999996
1.00004
1.00348
1.11445
2.13707
3.13609
3.22819
3.07977
2.31136
1.40382
0.999996
1.00004
1.00348
1.11445
2.13707
3.13609
3.22819
3.07977
2.31138
1.40377
0.999996
1.00004
1.00348
1.11445
2.13707
3.13609
3.22819
3.07977
2.31139
1.40372
0.999996
1.00004
1.00348
1.11445
2.13707
3.13609
3.22819
3.07977
2.3114
1.4037
0.999996
1.00004
1.00348
1.11445
2.13707
3.13609
3.22819
3.07976
2.3114
1.40369
0.999996
1.00004
1.00348
1.11445
2.13707
3.13609
3.22819
3.07976
2.3114
1.40369
0.999996
1.00004
1.00348
1.11445
2.13707
3.13609
3.22819
3.07976
2.3114
1.40369
0.999996
1.00004
1.00348
1.11445
2.13707
3.13609
3.22819
3.07976
2.3114
1.40369
0.999996
1.00004
1.00348
1.11445
2.13707
3.13609
3.22819
3.07976
2.3114
1.40369
0.999996
1.00004
1.00348
1.11445
2.13707
3.13609
3.22819
3.07976
2.3114
1.40369
0.999996
1.00004
1.00348
1.11445
2.13707
3.13609
3.22819
3.07976
2.3114
1.40369
0.999996
1.00004
1.00348
1.11445
2.13707
3.13609
3.22819
3.07976
2.3114
1.40369
0.999996
1.00004
1.00348
1.11445
2.13707
3.13609
3.22819
3.07976
2.3114
1.40369
0.999996
1.00004
1.00348
1.11445
2.13707
3.13609
3.22819
3.07976
2.3114
1.40369
0.999996
1.00004
1.00348
1.11445
2.13707
3.13609
3.22819
3.07976
2.3114
1.40369
0.999996
1.00004
1.00348
1.11445
2.13707
3.13609
3.22819
3.07976
2.3114
1.40369
0.999996
1.00004
1.00348
1.11445
2.13707
3.13609
3.22819
3.07976
2.3114
1.40369
0.999996
1.00004
1.00348
1.11445
2.13707
3.13609
3.22819
3.07976
2.3114
1.40369
0.999996
1.00004
1.00348
1.11445
2.13707
3.13609
3.22819
3.07976
2.3114
1.40369
0.999996
1.00004
1.00348
1.11445
2.13707
3.13609
3.22819
3.07976
2.3114
1.40369
0.999996
1.00004
1.00348
1.11445
2.13707
3.13609
3.22819
3.07976
2.3114
1.40369
0.999996
1.00004
1.00348
1.11445
2.13707
3.13609
3.22819
3.07976
2.3114
1.40369
0.999996
1.00004
1.00348
1.11445
2.13707
3.13609
3.22819
3.07976
2.3114
1.40369
0.999996
1.00004
1.00348
1.11445
2.13707
3.13609
3.22819
3.07976
2.3114
1.40369
0.999996
1.00004
1.00348
1.11445
2.13707
3.13609
3.22819
3.07976
2.3114
1.40369
0.999996
1.00004
1.00348
1.11445
2.13707
3.13609
3.22819
3.07976
2.3114
1.40369
0.999996
1.00004
1.00348
1.11445
2.13707
3.13609
3.22819
3.07976
2.3114
1.40369
0.999996
1.00004
1.00348
1.11445
2.13707
3.13609
3.22819
3.07976
2.3114
1.40369
0.999996
1.00004
1.00348
1.11445
2.13707
3.13609
3.22819
3.07976
2.3114
1.40369
0.999996
1.00004
1.00348
1.11445
2.13707
3.13609
3.22819
3.07976
2.3114
1.40369
0.999996
1.00004
1.00348
1.11445
2.13707
3.13609
3.22819
3.07976
2.3114
1.40369
0.999996
1.00004
1.00348
1.11445
2.13707
3.13609
3.22819
3.07976
2.3114
1.40369
0.999996
1.00004
1.00348
1.11445
2.13707
3.13609
3.22819
3.07976
2.3114
1.40369
0.999996
1.00004
1.00348
1.11445
2.13707
3.13609
3.22819
3.07976
2.3114
1.40369
0.999996
1.00004
1.00348
1.11445
2.13707
3.13609
3.22819
3.07977
2.3114
1.4037
0.999996
1.00004
1.00348
1.11445
2.13707
3.13609
3.22819
3.07977
2.31139
1.40372
0.999996
1.00004
1.00348
1.11445
2.13707
3.13609
3.22819
3.07977
2.31138
1.40377
0.999996
1.00004
1.00348
1.11445
2.13707
3.13609
3.22819
3.07977
2.31137
1.40382
0.999996
1.00004
1.00348
1.11445
2.13707
3.13609
3.22819
3.07979
2.31129
1.40393
0.915678
0.866194
0.854812
0.855901
0.863193
0.882429
0.910254
0.939623
0.964815
0.985606
0.915678
0.866193
0.854812
0.8559
0.863193
0.882429
0.910253
0.939623
0.964815
0.985606
0.915678
0.866193
0.854812
0.8559
0.863193
0.882429
0.910253
0.939623
0.964815
0.985606
0.915677
0.866193
0.854811
0.8559
0.863192
0.882428
0.910253
0.939622
0.964815
0.985606
0.915677
0.866192
0.854811
0.8559
0.863192
0.882428
0.910253
0.939622
0.964814
0.985606
0.915677
0.866192
0.854811
0.8559
0.863192
0.882428
0.910252
0.939622
0.964814
0.985606
0.915677
0.866192
0.854811
0.8559
0.863192
0.882428
0.910252
0.939622
0.964814
0.985606
0.915677
0.866193
0.854811
0.8559
0.863192
0.882428
0.910253
0.939622
0.964815
0.985606
0.915678
0.866193
0.854811
0.8559
0.863192
0.882428
0.910253
0.939623
0.964815
0.985606
0.915678
0.866193
0.854811
0.8559
0.863192
0.882428
0.910253
0.939623
0.964815
0.985606
0.915678
0.866193
0.854811
0.8559
0.863192
0.882428
0.910253
0.939623
0.964815
0.985606
0.915678
0.866193
0.854811
0.8559
0.863192
0.882428
0.910253
0.939622
0.964815
0.985606
0.915677
0.866192
0.854811
0.8559
0.863192
0.882427
0.910254
0.939618
0.964822
0.985608
0.915677
0.866192
0.854811
0.855899
0.863193
0.882424
0.910266
0.939581
0.964931
0.985424
0.915677
0.866192
0.85481
0.855899
0.863192
0.88242
0.910283
0.939504
0.965185
0.984232
0.915678
0.86619
0.854806
0.855895
0.863185
0.882419
0.910272
0.939504
0.964957
0.983902
0.915673
0.866173
0.854781
0.855875
0.863146
0.882408
0.910168
0.939374
0.964549
1.00249
0.915641
0.866112
0.854698
0.8558
0.863115
0.882219
0.909766
0.939382
0.995282
1.14469
0.915624
0.866054
0.854595
0.855709
0.863
0.881413
0.911157
0.992253
1.19329
1.37996
0.915725
0.86612
0.854654
0.855754
0.86217
0.885535
0.996569
1.26724
1.45271
1.48396
)
;

boundaryField
{
    inlet
    {
        type            fixedValue;
        value           uniform 1;
    }
    outlet
    {
        type            zeroGradient;
    }
    triangle
    {
        type            zeroGradient;
    }
    top
    {
        type            symmetryPlane;
    }
    bottom
    {
        type            symmetryPlane;
    }
    defaultFaces
    {
        type            empty;
    }
}


// ************************************************************************* //
