/*--------------------------------*- C++ -*----------------------------------*\
  =========                 |
  \\      /  F ield         | OpenFOAM: The Open Source CFD Toolbox
   \\    /   O peration     | Website:  https://openfoam.org
    \\  /    A nd           | Version:  7
     \\/     M anipulation  |
\*---------------------------------------------------------------------------*/
FoamFile
{
    version     2.0;
    format      ascii;
    class       volScalarField;
    location    "0.2";
    object      rho;
}
// * * * * * * * * * * * * * * * * * * * * * * * * * * * * * * * * * * * * * //

dimensions      [1 -3 0 0 0 0 0];

internalField   nonuniform List<scalar> 
2600
(
0.439512
0.625666
1.0358
1.28345
1.28036
1.28657
1.33943
1.38631
1.39873
1.40303
0.460468
0.580693
0.994103
1.27044
1.28279
1.28882
1.34003
1.38611
1.39867
1.40303
0.452371
0.548508
0.962522
1.25011
1.27713
1.28956
1.34023
1.38585
1.39861
1.40303
0.452054
0.561442
0.929009
1.21582
1.27122
1.28949
1.34023
1.38547
1.39855
1.40303
0.448479
0.578212
0.920105
1.19573
1.26747
1.2886
1.33989
1.38507
1.39849
1.40303
0.449973
0.608207
0.930228
1.19592
1.26848
1.28771
1.33877
1.38464
1.39845
1.40303
0.455662
0.647134
0.95516
1.2149
1.27332
1.28655
1.33717
1.38414
1.3984
1.40303
0.462393
0.678455
0.999582
1.26027
1.28275
1.28719
1.33574
1.3837
1.39837
1.40303
0.465162
0.699863
1.03959
1.29076
1.28325
1.28665
1.33464
1.3834
1.39835
1.40303
0.462936
0.704771
1.06195
1.31268
1.28817
1.28784
1.33455
1.38328
1.39833
1.40303
0.462936
0.704771
1.06195
1.31268
1.28817
1.28784
1.33455
1.38328
1.39833
1.40303
0.465162
0.699863
1.03959
1.29076
1.28325
1.28665
1.33464
1.3834
1.39835
1.40303
0.462393
0.678455
0.999582
1.26027
1.28275
1.28719
1.33574
1.3837
1.39837
1.40303
0.455662
0.647134
0.95516
1.2149
1.27332
1.28655
1.33717
1.38414
1.3984
1.40303
0.449973
0.608207
0.930228
1.19592
1.26848
1.28771
1.33877
1.38464
1.39845
1.40303
0.448479
0.578212
0.920105
1.19573
1.26747
1.2886
1.33989
1.38507
1.39849
1.40303
0.452054
0.561442
0.929009
1.21582
1.27122
1.28949
1.34023
1.38547
1.39855
1.40303
0.452371
0.548508
0.962522
1.25011
1.27713
1.28956
1.34023
1.38585
1.39861
1.40303
0.460468
0.580693
0.994103
1.27044
1.28279
1.28882
1.34003
1.38611
1.39867
1.40303
0.439512
0.625666
1.0358
1.28345
1.28036
1.28657
1.33943
1.38631
1.39873
1.40303
0.595343
0.6241
1.01486
1.28442
1.27395
1.28382
1.33917
1.38669
1.39881
1.40302
0.804114
0.603076
0.952283
1.2474
1.26605
1.28167
1.33973
1.38732
1.3989
1.40302
0.986912
0.634279
0.828225
1.17138
1.25399
1.2819
1.34164
1.38814
1.39899
1.40302
1.12642
0.740081
0.810958
1.07638
1.23507
1.2834
1.34453
1.38907
1.39908
1.40301
1.2297
0.842024
0.838061
1.03421
1.21578
1.28514
1.3478
1.39004
1.39917
1.40301
1.30844
0.91963
0.898498
1.02987
1.20558
1.28661
1.35092
1.39102
1.39925
1.403
1.36734
0.990349
0.951758
1.04598
1.20062
1.28812
1.35394
1.39197
1.39934
1.403
1.4126
1.05941
1.00236
1.07086
1.20031
1.29057
1.35701
1.39291
1.39942
1.40299
1.45403
1.12051
1.05081
1.09967
1.20806
1.29533
1.36048
1.39384
1.3995
1.40298
1.49248
1.18026
1.09488
1.12457
1.21677
1.30152
1.36429
1.39474
1.39957
1.40297
1.52664
1.23455
1.1361
1.15474
1.23176
1.30989
1.36843
1.3956
1.39964
1.40296
1.55795
1.28294
1.17208
1.18194
1.24726
1.31935
1.37277
1.39641
1.3997
1.40295
1.5855
1.32683
1.20742
1.20954
1.26302
1.32874
1.37698
1.39715
1.39976
1.40294
1.61046
1.36745
1.23936
1.23607
1.27932
1.33826
1.38107
1.39783
1.39981
1.40293
1.63306
1.40495
1.27084
1.26108
1.29494
1.34716
1.38481
1.39841
1.39986
1.40292
1.65403
1.43808
1.30178
1.28403
1.31173
1.35651
1.38841
1.39892
1.3999
1.4029
1.67407
1.46892
1.33229
1.30534
1.32861
1.36533
1.39164
1.39934
1.39994
1.40289
1.69401
1.49824
1.36208
1.32709
1.34549
1.37497
1.39486
1.39969
1.39998
1.40287
1.71205
1.5266
1.39078
1.34805
1.36206
1.3847
1.39758
1.39993
1.4
1.40286
1.72523
1.55028
1.41793
1.36835
1.37734
1.39377
1.40008
1.40014
1.40001
1.40286
2.05252
1.96844
1.914
1.87937
1.88007
1.90967
1.9404
1.95119
1.9069
1.82012
2.03401
1.95512
1.91964
1.89623
1.90735
1.93524
1.9544
1.95415
1.87782
1.7538
2.04323
1.96389
1.93716
1.92313
1.93807
1.96427
1.97747
1.96209
1.89312
1.7763
2.05615
1.98651
1.96691
1.96291
1.97896
1.99726
2.00354
1.97604
1.90163
1.77429
2.06531
2.00813
1.98896
1.99337
2.01139
2.02525
2.02334
1.98784
1.90759
1.77193
2.06268
2.02189
2.00624
2.01745
2.03607
2.04803
2.03616
1.9908
1.90856
1.76441
2.05597
2.03473
2.02456
2.04238
2.06042
2.06725
2.04308
1.98931
1.90518
1.75703
2.03983
2.04555
2.04298
2.065
2.08029
2.07829
2.04427
1.98253
1.89674
1.75454
2.02375
2.05768
2.06421
2.08304
2.09211
2.07923
2.03769
1.97276
1.88638
1.75529
2.03512
2.08946
2.09393
2.09302
2.09256
2.07024
2.02608
1.9605
1.87714
1.75933
2.06374
2.12766
2.11848
2.10036
2.0689
2.03617
1.99771
1.94435
1.86975
1.76596
1.99068
2.09428
2.07723
2.0545
2.03286
2.01359
1.97556
1.92912
1.86264
1.77279
1.86426
2.00355
2.04166
2.02518
2.00767
1.98936
1.95519
1.91534
1.85736
1.77974
1.67124
1.88616
1.99657
2.00345
1.98142
1.96075
1.93471
1.90347
1.8544
1.78772
1.47494
1.59416
1.83414
1.92319
1.93208
1.92934
1.91813
1.89588
1.85377
1.79686
1.38255
1.36065
1.52036
1.78664
1.89573
1.90676
1.9091
1.89106
1.85579
1.80584
1.35903
1.30188
1.31187
1.50374
1.77668
1.87977
1.89741
1.88826
1.85944
1.81529
1.34634
1.28986
1.27192
1.30018
1.52775
1.79692
1.88942
1.89001
1.86452
1.82422
1.33651
1.28275
1.26659
1.26476
1.31481
1.58693
1.83031
1.88909
1.87492
1.83376
1.33174
1.2799
1.26529
1.26348
1.26656
1.35937
1.65891
1.85652
1.88225
1.84451
1.4
1.40004
1.40349
1.51063
2.31731
2.92958
2.96824
2.88216
2.43076
2.06497
1.4
1.40004
1.40349
1.51063
2.31731
2.92958
2.96829
2.8814
2.43116
2.06285
1.4
1.40004
1.40349
1.51063
2.31731
2.92957
2.96837
2.88081
2.42871
2.06235
1.4
1.40004
1.40349
1.51063
2.3173
2.92957
2.96848
2.87968
2.42067
2.0589
1.4
1.40004
1.40349
1.51063
2.3173
2.92956
2.96864
2.87854
2.41323
2.05023
1.4
1.40004
1.40349
1.51063
2.3173
2.92955
2.96878
2.87776
2.40464
2.02717
1.4
1.40004
1.40349
1.51063
2.31731
2.92955
2.96882
2.87782
2.39114
1.99684
1.4
1.40004
1.40349
1.51063
2.31731
2.92955
2.9688
2.87934
2.37001
1.96176
1.4
1.40004
1.40349
1.51063
2.31731
2.92955
2.9687
2.88206
2.3517
1.92858
1.4
1.40004
1.40349
1.51063
2.31731
2.92956
2.96857
2.88412
2.34589
1.89226
1.4
1.40004
1.40349
1.51063
2.31731
2.92956
2.96848
2.88478
2.34326
1.8493
1.4
1.40004
1.40349
1.51063
2.31731
2.92957
2.96844
2.88499
2.34645
1.79064
1.4
1.40004
1.40349
1.51063
2.31731
2.92957
2.96843
2.88488
2.35274
1.76939
1.4
1.40004
1.40349
1.51063
2.31731
2.92957
2.96843
2.88466
2.35777
1.76533
1.4
1.40004
1.40349
1.51063
2.31731
2.92957
2.96843
2.88439
2.36139
1.77229
1.4
1.40004
1.40349
1.51063
2.31731
2.92957
2.96844
2.88413
2.36472
1.77467
1.4
1.40004
1.40349
1.51063
2.31731
2.92957
2.96845
2.88385
2.36826
1.77349
1.4
1.40004
1.40349
1.51063
2.31731
2.92957
2.96846
2.8835
2.37241
1.76728
1.4
1.40004
1.40349
1.51063
2.31731
2.92957
2.96848
2.88312
2.37639
1.75852
1.4
1.40004
1.40349
1.51063
2.31731
2.92957
2.96849
2.8828
2.37879
1.75367
1.4
1.40004
1.40349
1.51063
2.31731
2.92957
2.96849
2.8828
2.37879
1.75367
1.4
1.40004
1.40349
1.51063
2.31731
2.92957
2.96848
2.88312
2.37639
1.75852
1.4
1.40004
1.40349
1.51063
2.31731
2.92957
2.96846
2.8835
2.37241
1.76728
1.4
1.40004
1.40349
1.51063
2.31731
2.92957
2.96845
2.88385
2.36826
1.77349
1.4
1.40004
1.40349
1.51063
2.31731
2.92957
2.96844
2.88413
2.36472
1.77467
1.4
1.40004
1.40349
1.51063
2.31731
2.92957
2.96843
2.88439
2.36139
1.77229
1.4
1.40004
1.40349
1.51063
2.31731
2.92957
2.96843
2.88466
2.35777
1.76533
1.4
1.40004
1.40349
1.51063
2.31731
2.92957
2.96843
2.88488
2.35274
1.76939
1.4
1.40004
1.40349
1.51063
2.31731
2.92957
2.96844
2.88499
2.34645
1.79064
1.4
1.40004
1.40349
1.51063
2.31731
2.92956
2.96848
2.88478
2.34326
1.8493
1.4
1.40004
1.40349
1.51063
2.31731
2.92956
2.96857
2.88412
2.34589
1.89226
1.4
1.40004
1.40349
1.51063
2.31731
2.92955
2.9687
2.88206
2.3517
1.92858
1.4
1.40004
1.40349
1.51063
2.31731
2.92955
2.9688
2.87934
2.37001
1.96176
1.4
1.40004
1.40349
1.51063
2.31731
2.92955
2.96882
2.87782
2.39114
1.99684
1.4
1.40004
1.40349
1.51063
2.3173
2.92955
2.96878
2.87776
2.40464
2.02717
1.4
1.40004
1.40349
1.51063
2.3173
2.92956
2.96864
2.87854
2.41323
2.05023
1.4
1.40004
1.40349
1.51063
2.3173
2.92957
2.96848
2.87968
2.42067
2.0589
1.4
1.40004
1.40349
1.51063
2.31731
2.92957
2.96837
2.88081
2.42871
2.06235
1.4
1.40004
1.40349
1.51063
2.31731
2.92958
2.96829
2.8814
2.43116
2.06285
1.4
1.40004
1.40349
1.51063
2.31731
2.92958
2.96824
2.88216
2.43076
2.06497
1.33174
1.2799
1.26529
1.26348
1.26656
1.35937
1.65891
1.85653
1.88225
1.84451
1.33652
1.28275
1.26659
1.26476
1.31481
1.58693
1.83031
1.88909
1.87492
1.83376
1.34634
1.28986
1.27192
1.30018
1.52775
1.79692
1.88942
1.89001
1.86452
1.82422
1.35903
1.30188
1.31187
1.50374
1.77668
1.87977
1.89741
1.88826
1.85944
1.81529
1.38255
1.36065
1.52036
1.78664
1.89573
1.90676
1.9091
1.89106
1.85579
1.80584
1.47494
1.59416
1.83414
1.92319
1.93208
1.92934
1.91813
1.89587
1.85377
1.79686
1.67124
1.88616
1.99657
2.00345
1.98142
1.96075
1.93471
1.90347
1.8544
1.78772
1.86426
2.00355
2.04166
2.02518
2.00767
1.98936
1.95519
1.91534
1.85736
1.77974
1.99068
2.09428
2.07723
2.0545
2.03286
2.01359
1.97556
1.92911
1.86264
1.77279
2.06374
2.12766
2.11848
2.10036
2.0689
2.03617
1.99771
1.94435
1.86975
1.76596
2.03512
2.08946
2.09393
2.09302
2.09256
2.07024
2.02608
1.9605
1.87714
1.75933
2.02375
2.05768
2.06421
2.08304
2.09211
2.07923
2.03769
1.97276
1.88638
1.75529
2.03983
2.04555
2.04298
2.065
2.08029
2.07829
2.04427
1.98253
1.89674
1.75454
2.05597
2.03473
2.02456
2.04238
2.06042
2.06725
2.04308
1.98931
1.90518
1.75703
2.06268
2.02189
2.00624
2.01745
2.03607
2.04803
2.03616
1.9908
1.90856
1.76441
2.06531
2.00813
1.98896
1.99337
2.01139
2.02525
2.02334
1.98784
1.90759
1.77193
2.05615
1.98651
1.96691
1.96291
1.97896
1.99726
2.00354
1.97604
1.90163
1.77429
2.04323
1.96389
1.93716
1.92313
1.93807
1.96427
1.97747
1.96209
1.89312
1.7763
2.03401
1.95512
1.91964
1.89623
1.90735
1.93524
1.9544
1.95415
1.87782
1.7538
2.05252
1.96844
1.914
1.87937
1.88007
1.90967
1.9404
1.95119
1.9069
1.82012
1.72523
1.55028
1.41793
1.36835
1.37734
1.39377
1.40008
1.40014
1.40001
1.40286
1.71205
1.5266
1.39078
1.34805
1.36206
1.3847
1.39758
1.39993
1.4
1.40286
1.69401
1.49824
1.36208
1.32709
1.34549
1.37497
1.39486
1.39969
1.39998
1.40287
1.67407
1.46892
1.33229
1.30534
1.32861
1.36533
1.39164
1.39934
1.39994
1.40289
1.65403
1.43808
1.30178
1.28403
1.31173
1.35651
1.38841
1.39892
1.3999
1.4029
1.63306
1.40495
1.27084
1.26108
1.29494
1.34716
1.38481
1.39841
1.39986
1.40292
1.61046
1.36745
1.23936
1.23607
1.27932
1.33826
1.38107
1.39783
1.39981
1.40293
1.5855
1.32683
1.20742
1.20954
1.26302
1.32874
1.37698
1.39715
1.39976
1.40294
1.55795
1.28294
1.17208
1.18194
1.24726
1.31935
1.37277
1.39641
1.3997
1.40295
1.52664
1.23455
1.1361
1.15474
1.23176
1.30989
1.36843
1.3956
1.39964
1.40296
1.49248
1.18026
1.09488
1.12457
1.21677
1.30152
1.36429
1.39474
1.39957
1.40297
1.45403
1.12051
1.05081
1.09967
1.20806
1.29533
1.36048
1.39384
1.3995
1.40298
1.4126
1.05941
1.00236
1.07086
1.20031
1.29057
1.35701
1.39291
1.39942
1.40299
1.36734
0.990349
0.951758
1.04598
1.20062
1.28812
1.35394
1.39197
1.39934
1.403
1.30844
0.91963
0.898498
1.02987
1.20558
1.28661
1.35092
1.39102
1.39925
1.403
1.2297
0.842024
0.838061
1.03421
1.21578
1.28514
1.3478
1.39004
1.39917
1.40301
1.12642
0.740081
0.810958
1.07638
1.23507
1.2834
1.34453
1.38907
1.39908
1.40301
0.986912
0.634279
0.828225
1.17138
1.25399
1.2819
1.34164
1.38814
1.39899
1.40302
0.804114
0.603076
0.952283
1.2474
1.26605
1.28167
1.33973
1.38732
1.3989
1.40302
0.595343
0.6241
1.01486
1.28442
1.27395
1.28382
1.33917
1.38669
1.39881
1.40302
1.39764
1.39994
1.4
1.40001
1.40001
1.40001
1.40001
1.40001
1.40001
1.40285
1.39764
1.39994
1.4
1.40001
1.40001
1.40001
1.40001
1.40001
1.40001
1.40285
1.39764
1.39994
1.4
1.40001
1.40001
1.40001
1.40001
1.40001
1.40001
1.40285
1.39764
1.39994
1.4
1.40001
1.40001
1.40001
1.40001
1.40001
1.40001
1.40285
1.39764
1.39994
1.4
1.40001
1.40001
1.40001
1.40001
1.40001
1.40001
1.40285
1.39764
1.39994
1.4
1.40001
1.40001
1.40001
1.40001
1.40001
1.40001
1.40285
1.39764
1.39994
1.4
1.40001
1.40001
1.40001
1.40001
1.40001
1.40001
1.40285
1.39764
1.39994
1.4
1.40001
1.40001
1.40001
1.40001
1.40001
1.40001
1.40285
1.39764
1.39994
1.4
1.40001
1.40001
1.40001
1.40001
1.40001
1.40001
1.40285
1.39764
1.39994
1.4
1.40001
1.40001
1.40001
1.40001
1.40001
1.40001
1.40285
1.39764
1.39994
1.4
1.40001
1.40001
1.40001
1.40001
1.40001
1.40001
1.40285
1.39764
1.39994
1.40001
1.40001
1.40001
1.40001
1.40001
1.40001
1.40001
1.40285
1.39757
1.40008
1.40033
1.40019
1.40002
1.40001
1.40001
1.40001
1.40001
1.40285
1.39737
1.40791
1.41345
1.40858
1.40142
1.40004
1.40001
1.40001
1.40001
1.40285
1.40349
1.47242
1.49061
1.46271
1.41759
1.40105
1.40001
1.40001
1.40001
1.40285
1.46563
1.59485
1.58944
1.53402
1.45571
1.40762
1.4002
1.40001
1.40001
1.40285
1.6057
1.66514
1.6202
1.554
1.4794
1.41941
1.40122
1.40002
1.40001
1.40285
1.72021
1.67314
1.6057
1.53961
1.48092
1.42613
1.40309
1.40009
1.40001
1.40285
1.76419
1.65427
1.53039
1.46187
1.44784
1.42632
1.40435
1.40021
1.40001
1.40285
1.75187
1.59068
1.45948
1.39721
1.39974
1.40861
1.40413
1.40032
1.40001
1.40285
1.75187
1.59068
1.45948
1.39721
1.39974
1.40861
1.40413
1.40032
1.40001
1.40285
1.76419
1.65427
1.53039
1.46187
1.44784
1.42632
1.40435
1.40021
1.40001
1.40285
1.72021
1.67314
1.6057
1.53961
1.48092
1.42613
1.40309
1.40009
1.40001
1.40285
1.6057
1.66514
1.6202
1.554
1.4794
1.41941
1.40122
1.40002
1.40001
1.40285
1.46563
1.59485
1.58944
1.53402
1.45571
1.40762
1.4002
1.40001
1.40001
1.40285
1.40349
1.47242
1.49061
1.46271
1.41759
1.40105
1.40001
1.40001
1.40001
1.40285
1.39737
1.40791
1.41345
1.40858
1.40142
1.40004
1.40001
1.40001
1.40001
1.40285
1.39757
1.40008
1.40033
1.40019
1.40002
1.40001
1.40001
1.40001
1.40001
1.40285
1.39764
1.39994
1.40001
1.40001
1.40001
1.40001
1.40001
1.40001
1.40001
1.40285
1.39764
1.39994
1.4
1.40001
1.40001
1.40001
1.40001
1.40001
1.40001
1.40285
1.39764
1.39994
1.4
1.40001
1.40001
1.40001
1.40001
1.40001
1.40001
1.40285
1.39764
1.39994
1.4
1.40001
1.40001
1.40001
1.40001
1.40001
1.40001
1.40285
1.39764
1.39994
1.4
1.40001
1.40001
1.40001
1.40001
1.40001
1.40001
1.40285
1.39764
1.39994
1.4
1.40001
1.40001
1.40001
1.40001
1.40001
1.40001
1.40285
1.39764
1.39994
1.4
1.40001
1.40001
1.40001
1.40001
1.40001
1.40001
1.40285
1.39764
1.39994
1.4
1.40001
1.40001
1.40001
1.40001
1.40001
1.40001
1.40285
1.39764
1.39994
1.4
1.40001
1.40001
1.40001
1.40001
1.40001
1.40001
1.40285
1.39764
1.39994
1.4
1.40001
1.40001
1.40001
1.40001
1.40001
1.40001
1.40285
1.39764
1.39994
1.4
1.40001
1.40001
1.40001
1.40001
1.40001
1.40001
1.40285
1.39764
1.39994
1.4
1.40001
1.40001
1.40001
1.40001
1.40001
1.40001
1.40285
1.3307
1.27932
1.26501
1.26339
1.26525
1.28601
1.39491
1.65084
1.81901
1.84607
1.33058
1.27923
1.26492
1.26332
1.26602
1.28146
1.31056
1.39092
1.58337
1.75362
1.33059
1.27929
1.26503
1.26341
1.26616
1.28228
1.309
1.33883
1.39461
1.53809
1.33062
1.27935
1.26512
1.26349
1.26619
1.28247
1.30941
1.33878
1.36432
1.40218
1.33063
1.27937
1.26514
1.26351
1.26623
1.28249
1.30952
1.33891
1.36471
1.38386
1.33063
1.27937
1.26515
1.26351
1.26624
1.28249
1.30953
1.33891
1.36494
1.38418
1.33062
1.27937
1.26515
1.26351
1.26624
1.28249
1.30952
1.33899
1.36469
1.38537
1.33062
1.27937
1.26515
1.26351
1.26624
1.2825
1.3095
1.33903
1.36458
1.38556
1.33062
1.27937
1.26515
1.26351
1.26624
1.2825
1.3095
1.33903
1.36457
1.38556
1.33062
1.27937
1.26515
1.26351
1.26624
1.2825
1.3095
1.33903
1.36457
1.38556
1.33062
1.27937
1.26515
1.26351
1.26624
1.2825
1.3095
1.33903
1.36457
1.38556
1.33062
1.27937
1.26515
1.26351
1.26624
1.2825
1.3095
1.33903
1.36457
1.38556
1.33062
1.27937
1.26515
1.26351
1.26624
1.2825
1.3095
1.33903
1.36457
1.38556
1.33063
1.27937
1.26515
1.26352
1.26624
1.2825
1.3095
1.33903
1.36457
1.38556
1.33063
1.27937
1.26515
1.26352
1.26624
1.2825
1.3095
1.33903
1.36457
1.38556
1.33063
1.27937
1.26515
1.26352
1.26624
1.2825
1.3095
1.33903
1.36457
1.38556
1.33063
1.27937
1.26515
1.26352
1.26624
1.2825
1.3095
1.33903
1.36457
1.38556
1.33063
1.27937
1.26515
1.26352
1.26624
1.2825
1.30951
1.33903
1.36457
1.38556
1.33063
1.27937
1.26515
1.26352
1.26624
1.2825
1.30951
1.33903
1.36457
1.38556
1.33063
1.27937
1.26515
1.26352
1.26625
1.2825
1.30951
1.33903
1.36457
1.38556
1.4
1.40004
1.40349
1.51063
2.31731
2.92957
2.9685
2.88269
2.3793
1.75291
1.4
1.40004
1.40349
1.51063
2.31731
2.92957
2.9685
2.88267
2.37936
1.75282
1.4
1.40004
1.40349
1.51063
2.31731
2.92957
2.9685
2.88267
2.37937
1.75277
1.4
1.40004
1.40349
1.51063
2.31731
2.92957
2.9685
2.88267
2.37938
1.75273
1.4
1.40004
1.40349
1.51063
2.31731
2.92957
2.9685
2.88267
2.37939
1.7527
1.4
1.40004
1.40349
1.51063
2.31731
2.92957
2.9685
2.88267
2.37939
1.7527
1.4
1.40004
1.40349
1.51063
2.31731
2.92957
2.9685
2.88267
2.37939
1.7527
1.4
1.40004
1.40349
1.51063
2.31731
2.92957
2.9685
2.88267
2.37939
1.7527
1.4
1.40004
1.40349
1.51063
2.31731
2.92957
2.9685
2.88267
2.37939
1.7527
1.4
1.40004
1.40349
1.51063
2.31731
2.92957
2.9685
2.88267
2.37939
1.7527
1.4
1.40004
1.40349
1.51063
2.31731
2.92957
2.9685
2.88267
2.37939
1.7527
1.4
1.40004
1.40349
1.51063
2.31731
2.92957
2.9685
2.88267
2.37939
1.7527
1.4
1.40004
1.40349
1.51063
2.31731
2.92957
2.9685
2.88267
2.37939
1.7527
1.4
1.40004
1.40349
1.51063
2.31731
2.92957
2.9685
2.88267
2.37939
1.7527
1.4
1.40004
1.40349
1.51063
2.31731
2.92957
2.9685
2.88267
2.37939
1.7527
1.4
1.40004
1.40349
1.51063
2.31731
2.92957
2.9685
2.88267
2.37939
1.7527
1.4
1.40004
1.40349
1.51063
2.31731
2.92957
2.9685
2.88267
2.37939
1.7527
1.4
1.40004
1.40349
1.51063
2.31731
2.92957
2.9685
2.88267
2.37939
1.75269
1.4
1.40004
1.40349
1.51063
2.31731
2.92957
2.9685
2.88267
2.37939
1.75269
1.4
1.40004
1.40349
1.51063
2.31731
2.92957
2.9685
2.88267
2.37939
1.75269
1.4
1.40004
1.40349
1.51063
2.31731
2.92957
2.9685
2.88267
2.37939
1.75269
1.4
1.40004
1.40349
1.51063
2.31731
2.92957
2.9685
2.88267
2.37939
1.7527
1.4
1.40004
1.40349
1.51063
2.31731
2.92957
2.9685
2.88267
2.37939
1.7527
1.4
1.40004
1.40349
1.51063
2.31731
2.92957
2.9685
2.88267
2.37939
1.7527
1.4
1.40004
1.40349
1.51063
2.31731
2.92957
2.9685
2.88267
2.37939
1.7527
1.4
1.40004
1.40349
1.51063
2.31731
2.92957
2.9685
2.88267
2.37939
1.7527
1.4
1.40004
1.40349
1.51063
2.31731
2.92957
2.9685
2.88267
2.37939
1.7527
1.4
1.40004
1.40349
1.51063
2.31731
2.92957
2.9685
2.88267
2.37939
1.7527
1.4
1.40004
1.40349
1.51063
2.31731
2.92957
2.9685
2.88267
2.37939
1.7527
1.4
1.40004
1.40349
1.51063
2.31731
2.92957
2.9685
2.88267
2.37939
1.7527
1.4
1.40004
1.40349
1.51063
2.31731
2.92957
2.9685
2.88267
2.37939
1.7527
1.4
1.40004
1.40349
1.51063
2.31731
2.92957
2.9685
2.88267
2.37939
1.7527
1.4
1.40004
1.40349
1.51063
2.31731
2.92957
2.9685
2.88267
2.37939
1.7527
1.4
1.40004
1.40349
1.51063
2.31731
2.92957
2.9685
2.88267
2.37939
1.7527
1.4
1.40004
1.40349
1.51063
2.31731
2.92957
2.9685
2.88267
2.37939
1.7527
1.4
1.40004
1.40349
1.51063
2.31731
2.92957
2.9685
2.88267
2.37939
1.7527
1.4
1.40004
1.40349
1.51063
2.31731
2.92957
2.9685
2.88267
2.37938
1.75273
1.4
1.40004
1.40349
1.51063
2.31731
2.92957
2.9685
2.88267
2.37937
1.75277
1.4
1.40004
1.40349
1.51063
2.31731
2.92957
2.9685
2.88267
2.37936
1.75282
1.4
1.40004
1.40349
1.51063
2.31731
2.92957
2.9685
2.88269
2.3793
1.75291
1.33063
1.27937
1.26515
1.26352
1.26624
1.2825
1.3095
1.33903
1.36457
1.38556
1.33063
1.27937
1.26515
1.26352
1.26624
1.2825
1.3095
1.33903
1.36457
1.38556
1.33063
1.27937
1.26515
1.26352
1.26624
1.2825
1.3095
1.33903
1.36457
1.38556
1.33062
1.27937
1.26515
1.26352
1.26624
1.2825
1.3095
1.33903
1.36457
1.38556
1.33062
1.27937
1.26515
1.26351
1.26624
1.2825
1.3095
1.33903
1.36457
1.38556
1.33062
1.27937
1.26515
1.26351
1.26624
1.2825
1.3095
1.33903
1.36457
1.38556
1.33062
1.27937
1.26515
1.26351
1.26624
1.2825
1.3095
1.33903
1.36457
1.38556
1.33062
1.27937
1.26515
1.26351
1.26624
1.2825
1.3095
1.33903
1.36457
1.38556
1.33063
1.27937
1.26515
1.26352
1.26624
1.2825
1.3095
1.33903
1.36457
1.38556
1.33063
1.27937
1.26515
1.26352
1.26624
1.2825
1.3095
1.33903
1.36457
1.38556
1.33063
1.27937
1.26515
1.26352
1.26624
1.2825
1.3095
1.33903
1.36457
1.38556
1.33063
1.27937
1.26515
1.26351
1.26624
1.2825
1.3095
1.33903
1.36457
1.38556
1.33062
1.27937
1.26515
1.26351
1.26624
1.2825
1.3095
1.33903
1.36458
1.38556
1.33062
1.27937
1.26515
1.26351
1.26624
1.28249
1.30952
1.33899
1.36469
1.38537
1.33063
1.27937
1.26515
1.26351
1.26624
1.28249
1.30953
1.33891
1.36494
1.38418
1.33063
1.27937
1.26515
1.26351
1.26623
1.28249
1.30952
1.33891
1.36471
1.38386
1.33062
1.27935
1.26512
1.26349
1.26619
1.28248
1.30941
1.33878
1.36432
1.40218
1.33059
1.27929
1.26503
1.26341
1.26616
1.28228
1.30901
1.33884
1.39461
1.53809
1.33058
1.27924
1.26493
1.26332
1.26602
1.28146
1.31056
1.39092
1.58337
1.75362
1.3307
1.27932
1.26501
1.26339
1.26525
1.28602
1.39492
1.65084
1.81901
1.84607
)
;

boundaryField
{
    inlet
    {
        type            calculated;
        value           uniform 1.40001;
    }
    outlet
    {
        type            calculated;
        value           nonuniform List<scalar> 
100
(
1.40286
1.40286
1.40286
1.40286
1.40286
1.40286
1.40286
1.40286
1.40286
1.40286
1.40286
1.40286
1.40286
1.40286
1.40286
1.40286
1.40286
1.40286
1.40286
1.40286
1.40303
1.40303
1.40302
1.40302
1.40301
1.40301
1.403
1.40299
1.40299
1.40298
1.40297
1.40296
1.40295
1.40294
1.40292
1.40291
1.4029
1.40288
1.40287
1.40286
1.40303
1.40303
1.40303
1.40303
1.40303
1.40303
1.40304
1.40304
1.40304
1.40304
1.40304
1.40304
1.40304
1.40304
1.40303
1.40303
1.40303
1.40303
1.40303
1.40303
1.40286
1.40287
1.40288
1.4029
1.40291
1.40292
1.40294
1.40295
1.40296
1.40297
1.40298
1.40299
1.40299
1.403
1.40301
1.40301
1.40302
1.40302
1.40303
1.40303
1.40286
1.40286
1.40286
1.40286
1.40286
1.40286
1.40286
1.40286
1.40286
1.40286
1.40286
1.40286
1.40286
1.40286
1.40286
1.40286
1.40286
1.40286
1.40286
1.40286
)
;
    }
    triangle
    {
        type            calculated;
        value           nonuniform List<scalar> 
40
(
2.05252
1.96844
1.914
1.87937
1.88007
1.90967
1.9404
1.95119
1.9069
1.82012
0.439512
0.460468
0.452371
0.452054
0.448479
0.449973
0.455662
0.462393
0.465162
0.462936
0.462936
0.465162
0.462393
0.455662
0.449973
0.448479
0.452054
0.452371
0.460468
0.439512
2.05252
1.96844
1.914
1.87937
1.88007
1.90967
1.9404
1.95119
1.9069
1.82012
)
;
    }
    top
    {
        type            symmetryPlane;
    }
    bottom
    {
        type            symmetryPlane;
    }
    defaultFaces
    {
        type            empty;
    }
}


// ************************************************************************* //
