/*--------------------------------*- C++ -*----------------------------------*\
  =========                 |
  \\      /  F ield         | OpenFOAM: The Open Source CFD Toolbox
   \\    /   O peration     | Website:  https://openfoam.org
    \\  /    A nd           | Version:  7
     \\/     M anipulation  |
\*---------------------------------------------------------------------------*/
FoamFile
{
    version     2.0;
    format      ascii;
    class       volVectorField;
    location    "0.2";
    object      U;
}
// * * * * * * * * * * * * * * * * * * * * * * * * * * * * * * * * * * * * * //

dimensions      [0 1 -1 0 0 0 0];

internalField   nonuniform List<vector> 
2600
(
(0.971738 0.291478 0)
(1.53874 0.243898 0)
(1.26284 0.186626 0)
(0.961995 0.173662 0)
(0.935704 0.129271 0)
(0.981975 0.0633024 0)
(1.04844 0.0203995 0)
(1.08937 0.0037212 0)
(1.09929 0.000226561 0)
(1.09816 3.60954e-06 0)
(0.439027 -0.0362665 0)
(1.33748 0.17792 0)
(1.1847 0.225684 0)
(0.922885 0.181022 0)
(0.924912 0.120539 0)
(0.984282 0.0553377 0)
(1.04848 0.0177215 0)
(1.08868 0.00343685 0)
(1.09922 0.000218933 0)
(1.09815 3.76227e-06 0)
(0.129811 -0.0974412 0)
(0.998692 0.124445 0)
(1.04278 0.240936 0)
(0.890151 0.184652 0)
(0.917295 0.111404 0)
(0.983313 0.0476238 0)
(1.04706 0.0155895 0)
(1.08798 0.00308097 0)
(1.09916 0.000198446 0)
(1.09815 3.67416e-06 0)
(-0.0156697 -0.171588 0)
(0.615473 0.0387118 0)
(0.862956 0.218016 0)
(0.86574 0.182834 0)
(0.922365 0.10187 0)
(0.985067 0.0410322 0)
(1.04543 0.0138063 0)
(1.08735 0.00267603 0)
(1.0991 0.000170505 0)
(1.09815 3.3248e-06 0)
(-0.142839 -0.172426 0)
(0.256646 0.012182 0)
(0.686372 0.239457 0)
(0.840973 0.186337 0)
(0.923229 0.0927067 0)
(0.984474 0.035406 0)
(1.04434 0.0118178 0)
(1.087 0.00217805 0)
(1.09907 0.000135043 0)
(1.09815 2.87539e-06 0)
(-0.222875 -0.177482 0)
(-0.0186774 -0.0350942 0)
(0.539004 0.187362 0)
(0.811862 0.163862 0)
(0.914599 0.0818 0)
(0.981539 0.0307055 0)
(1.04423 0.0096934 0)
(1.08704 0.00160405 0)
(1.09906 0.000100279 0)
(1.09814 2.44788e-06 0)
(-0.257303 -0.170779 0)
(-0.178835 -0.0653283 0)
(0.397439 0.150456 0)
(0.756188 0.140875 0)
(0.896197 0.0698457 0)
(0.978532 0.0245397 0)
(1.04486 0.00731993 0)
(1.08717 0.00114316 0)
(1.09905 7.27865e-05 0)
(1.09814 2.06243e-06 0)
(-0.268678 -0.136617 0)
(-0.250766 -0.0721252 0)
(0.294368 0.0847587 0)
(0.69665 0.0952469 0)
(0.886404 0.0515269 0)
(0.980212 0.0178093 0)
(1.04642 0.00501067 0)
(1.08727 0.000771235 0)
(1.09904 5.07499e-05 0)
(1.09814 1.5245e-06 0)
(-0.284737 -0.0888509 0)
(-0.279124 -0.0483273 0)
(0.223237 0.0457216 0)
(0.636934 0.0602173 0)
(0.869733 0.0329059 0)
(0.977662 0.0107489 0)
(1.04623 0.00279565 0)
(1.08729 0.000444593 0)
(1.09904 2.82982e-05 0)
(1.09814 9.34935e-07 0)
(-0.283993 -0.0310233 0)
(-0.283017 -0.0165581 0)
(0.202902 0.0130414 0)
(0.626432 0.0197191 0)
(0.87288 0.0107185 0)
(0.980856 0.00386848 0)
(1.047 0.000934262 0)
(1.08724 0.000142592 0)
(1.09903 1.04647e-05 0)
(1.09814 3.09771e-07 0)
(-0.283993 0.0310233 0)
(-0.283017 0.0165581 0)
(0.202902 -0.0130414 0)
(0.626432 -0.0197191 0)
(0.87288 -0.0107185 0)
(0.980856 -0.00386848 0)
(1.047 -0.000934262 0)
(1.08724 -0.000142592 0)
(1.09903 -1.04647e-05 0)
(1.09814 -3.09771e-07 0)
(-0.284737 0.0888509 0)
(-0.279124 0.0483273 0)
(0.223237 -0.0457216 0)
(0.636934 -0.0602173 0)
(0.869733 -0.0329059 0)
(0.977662 -0.0107489 0)
(1.04623 -0.00279565 0)
(1.08729 -0.000444593 0)
(1.09904 -2.82982e-05 0)
(1.09814 -9.34935e-07 0)
(-0.268678 0.136617 0)
(-0.250766 0.0721252 0)
(0.294368 -0.0847587 0)
(0.69665 -0.0952469 0)
(0.886404 -0.0515269 0)
(0.980212 -0.0178093 0)
(1.04642 -0.00501067 0)
(1.08727 -0.000771235 0)
(1.09904 -5.07499e-05 0)
(1.09814 -1.5245e-06 0)
(-0.257303 0.170779 0)
(-0.178835 0.0653283 0)
(0.397439 -0.150456 0)
(0.756188 -0.140875 0)
(0.896197 -0.0698457 0)
(0.978532 -0.0245397 0)
(1.04486 -0.00731993 0)
(1.08717 -0.00114316 0)
(1.09905 -7.27865e-05 0)
(1.09814 -2.06243e-06 0)
(-0.222875 0.177482 0)
(-0.0186774 0.0350942 0)
(0.539004 -0.187362 0)
(0.811862 -0.163862 0)
(0.914599 -0.0818 0)
(0.981539 -0.0307055 0)
(1.04423 -0.0096934 0)
(1.08704 -0.00160405 0)
(1.09906 -0.000100279 0)
(1.09814 -2.44788e-06 0)
(-0.142839 0.172426 0)
(0.256646 -0.012182 0)
(0.686372 -0.239457 0)
(0.840973 -0.186337 0)
(0.923229 -0.0927067 0)
(0.984474 -0.035406 0)
(1.04434 -0.0118178 0)
(1.087 -0.00217805 0)
(1.09907 -0.000135043 0)
(1.09815 -2.87539e-06 0)
(-0.0156697 0.171588 0)
(0.615473 -0.0387118 0)
(0.862956 -0.218016 0)
(0.86574 -0.182834 0)
(0.922365 -0.10187 0)
(0.985067 -0.0410322 0)
(1.04543 -0.0138063 0)
(1.08735 -0.00267603 0)
(1.0991 -0.000170505 0)
(1.09815 -3.3248e-06 0)
(0.129811 0.0974412 0)
(0.998692 -0.124445 0)
(1.04278 -0.240936 0)
(0.890151 -0.184652 0)
(0.917295 -0.111404 0)
(0.983313 -0.0476238 0)
(1.04706 -0.0155895 0)
(1.08798 -0.00308097 0)
(1.09916 -0.000198446 0)
(1.09815 -3.67416e-06 0)
(0.439027 0.0362665 0)
(1.33748 -0.17792 0)
(1.1847 -0.225684 0)
(0.922885 -0.181022 0)
(0.924912 -0.120539 0)
(0.984282 -0.0553377 0)
(1.04848 -0.0177215 0)
(1.08868 -0.00343685 0)
(1.09922 -0.000218933 0)
(1.09815 -3.76227e-06 0)
(0.971738 -0.291478 0)
(1.53874 -0.243898 0)
(1.26284 -0.186626 0)
(0.961995 -0.173662 0)
(0.935704 -0.129271 0)
(0.981975 -0.0633024 0)
(1.04844 -0.0203995 0)
(1.08937 -0.0037212 0)
(1.09929 -0.000226561 0)
(1.09816 -3.60954e-06 0)
(1.46156 -0.0874011 0)
(1.58777 -0.326684 0)
(1.34076 -0.208169 0)
(0.994666 -0.173374 0)
(0.950902 -0.136466 0)
(0.985956 -0.0732952 0)
(1.05006 -0.0233968 0)
(1.0901 -0.00392177 0)
(1.09936 -0.000223291 0)
(1.09816 -3.11424e-06 0)
(1.46884 0.074639 0)
(1.61836 -0.37177 0)
(1.41601 -0.32736 0)
(1.03457 -0.190591 0)
(0.965333 -0.14699 0)
(0.994023 -0.0808637 0)
(1.05278 -0.0261821 0)
(1.09086 -0.0040566 0)
(1.09943 -0.000216109 0)
(1.09816 -2.37092e-06 0)
(1.3977 0.148513 0)
(1.62456 -0.320072 0)
(1.39407 -0.478273 0)
(1.06731 -0.235585 0)
(0.976062 -0.161337 0)
(1.00258 -0.0851303 0)
(1.05626 -0.0275843 0)
(1.09162 -0.0041028 0)
(1.09949 -0.000208924 0)
(1.09817 -1.55462e-06 0)
(1.32674 0.196654 0)
(1.63608 -0.268698 0)
(1.3499 -0.497133 0)
(1.1052 -0.305627 0)
(0.989919 -0.179215 0)
(1.01037 -0.0886202 0)
(1.05985 -0.0281507 0)
(1.0924 -0.00409656 0)
(1.09954 -0.000202614 0)
(1.09818 -7.75363e-07 0)
(1.27568 0.217188 0)
(1.6077 -0.19615 0)
(1.32147 -0.445227 0)
(1.13681 -0.340947 0)
(1.0091 -0.196568 0)
(1.01834 -0.0915522 0)
(1.06334 -0.0281551 0)
(1.09319 -0.00401134 0)
(1.09959 -0.000194111 0)
(1.09818 9.63206e-08 0)
(1.23583 0.224543 0)
(1.5524 -0.128425 0)
(1.32141 -0.397301 0)
(1.16578 -0.327404 0)
(1.03146 -0.201914 0)
(1.02705 -0.0940606 0)
(1.06677 -0.0282592 0)
(1.09398 -0.00389363 0)
(1.09964 -0.000183552 0)
(1.09819 1.10088e-06 0)
(1.20697 0.220335 0)
(1.48598 -0.0773511 0)
(1.32517 -0.338725 0)
(1.18092 -0.313033 0)
(1.05089 -0.202899 0)
(1.03626 -0.0946561 0)
(1.07029 -0.0279154 0)
(1.09475 -0.00371084 0)
(1.09969 -0.000170654 0)
(1.09819 2.22687e-06 0)
(1.18118 0.220409 0)
(1.43402 -0.0470477 0)
(1.3255 -0.281067 0)
(1.17489 -0.281268 0)
(1.06629 -0.192441 0)
(1.04548 -0.0941887 0)
(1.07386 -0.0274883 0)
(1.0955 -0.00349875 0)
(1.09973 -0.000156946 0)
(1.0982 3.44512e-06 0)
(1.15712 0.221554 0)
(1.38507 -0.0144178 0)
(1.32364 -0.237051 0)
(1.17975 -0.259761 0)
(1.08265 -0.187595 0)
(1.05464 -0.0916241 0)
(1.07745 -0.0263439 0)
(1.09621 -0.00321989 0)
(1.09978 -0.000142248 0)
(1.0982 4.76883e-06 0)
(1.13658 0.222348 0)
(1.33554 0.0178484 0)
(1.31297 -0.192989 0)
(1.17784 -0.228169 0)
(1.09424 -0.172816 0)
(1.06366 -0.0879961 0)
(1.08106 -0.0250606 0)
(1.09689 -0.00293039 0)
(1.09981 -0.000128051 0)
(1.09821 6.12747e-06 0)
(1.11619 0.225283 0)
(1.3017 0.0389093 0)
(1.30444 -0.159584 0)
(1.1772 -0.201067 0)
(1.10313 -0.15569 0)
(1.07134 -0.0804978 0)
(1.08442 -0.0228537 0)
(1.09751 -0.00257874 0)
(1.09985 -0.000113414 0)
(1.09821 7.54071e-06 0)
(1.09874 0.226808 0)
(1.26596 0.0617323 0)
(1.29011 -0.126021 0)
(1.17754 -0.17727 0)
(1.1138 -0.142764 0)
(1.07984 -0.0751633 0)
(1.0878 -0.0209299 0)
(1.09809 -0.00224995 0)
(1.09987 -9.98221e-05 0)
(1.09821 8.92337e-06 0)
(1.08204 0.22859 0)
(1.2411 0.0762196 0)
(1.27703 -0.0977822 0)
(1.17219 -0.14981 0)
(1.1188 -0.123336 0)
(1.08624 -0.0658725 0)
(1.09071 -0.018213 0)
(1.09858 -0.0018808 0)
(1.0999 -8.60354e-05 0)
(1.09822 1.0329e-05 0)
(1.06768 0.229706 0)
(1.21385 0.0921678 0)
(1.26382 -0.0719537 0)
(1.17345 -0.131132 0)
(1.1271 -0.111013 0)
(1.09364 -0.0597501 0)
(1.09358 -0.0160102 0)
(1.09902 -0.00155274 0)
(1.09993 -7.30148e-05 0)
(1.09822 1.14951e-05 0)
(1.05339 0.231402 0)
(1.19523 0.102221 0)
(1.24514 -0.046102 0)
(1.17146 -0.107438 0)
(1.12848 -0.0918704 0)
(1.09827 -0.0503747 0)
(1.09584 -0.0132677 0)
(1.09937 -0.00121016 0)
(1.09995 -5.98552e-05 0)
(1.09821 1.22968e-05 0)
(1.04183 0.232547 0)
(1.17374 0.115177 0)
(1.23063 -0.0251272 0)
(1.17604 -0.0910056 0)
(1.13288 -0.0787816 0)
(1.10393 -0.0439332 0)
(1.09808 -0.0111185 0)
(1.09967 -0.000923491 0)
(1.09997 -4.81667e-05 0)
(1.09821 1.30008e-05 0)
(1.03058 0.233411 0)
(1.15837 0.125022 0)
(1.21391 -0.00421412 0)
(1.17437 -0.0688038 0)
(1.13274 -0.061747 0)
(1.10713 -0.0348263 0)
(1.09973 -0.00854473 0)
(1.09988 -0.000641296 0)
(1.09998 -3.55936e-05 0)
(1.09821 1.23957e-05 0)
(1.02158 0.232857 0)
(1.14091 0.135772 0)
(1.20005 0.0140581 0)
(1.17563 -0.0539856 0)
(1.13574 -0.0502641 0)
(1.11087 -0.0274317 0)
(1.10122 -0.00620068 0)
(1.10004 -0.000406754 0)
(1.1 -2.0117e-05 0)
(1.0982 7.62465e-06 0)
(1.01426 0.232379 0)
(1.12882 0.142855 0)
(1.18624 0.03139 0)
(1.16909 -0.0346071 0)
(1.13408 -0.0353123 0)
(1.11227 -0.0184913 0)
(1.10221 -0.00389858 0)
(1.10015 -0.000238143 0)
(1.1 -6.45899e-06 0)
(1.0982 2.07923e-06 0)
(1.00606 0.235769 0)
(1.11223 0.152302 0)
(1.16901 0.0489517 0)
(1.16676 -0.0199623 0)
(1.13675 -0.0259821 0)
(1.11471 -0.0123228 0)
(1.10293 -0.00201523 0)
(1.10021 -5.83491e-05 0)
(1.10001 4.80363e-07 0)
(1.0982 4.24156e-07 0)
(0.273744 0.117889 0)
(0.275308 0.1228 0)
(0.273026 0.131347 0)
(0.292337 0.145036 0)
(0.339977 0.174345 0)
(0.415363 0.216376 0)
(0.50661 0.26936 0)
(0.599863 0.326878 0)
(0.715169 0.37632 0)
(0.876583 0.425162 0)
(0.309297 0.125963 0)
(0.311286 0.124857 0)
(0.313209 0.121164 0)
(0.340259 0.125194 0)
(0.392176 0.150479 0)
(0.463743 0.196437 0)
(0.541809 0.252899 0)
(0.623232 0.309663 0)
(0.722402 0.3647 0)
(0.871183 0.410266 0)
(0.375903 0.156892 0)
(0.376973 0.151502 0)
(0.379487 0.140582 0)
(0.408705 0.136836 0)
(0.456055 0.154947 0)
(0.515371 0.194825 0)
(0.57594 0.247511 0)
(0.650784 0.295316 0)
(0.74301 0.348892 0)
(0.892466 0.381469 0)
(0.460785 0.196263 0)
(0.463046 0.185763 0)
(0.461757 0.165885 0)
(0.486289 0.152955 0)
(0.522417 0.164453 0)
(0.566857 0.199943 0)
(0.614394 0.248641 0)
(0.683468 0.292858 0)
(0.771963 0.343051 0)
(0.909546 0.361295 0)
(0.537336 0.233666 0)
(0.536956 0.218284 0)
(0.531148 0.187469 0)
(0.549484 0.165089 0)
(0.577132 0.172178 0)
(0.611274 0.205746 0)
(0.654767 0.2502 0)
(0.717009 0.289911 0)
(0.799287 0.332857 0)
(0.926324 0.347538 0)
(0.596796 0.25847 0)
(0.584819 0.240138 0)
(0.577232 0.206497 0)
(0.590712 0.181672 0)
(0.616033 0.18534 0)
(0.646576 0.214782 0)
(0.690981 0.25313 0)
(0.747018 0.289478 0)
(0.822398 0.326725 0)
(0.93912 0.335431 0)
(0.633918 0.285583 0)
(0.611502 0.263777 0)
(0.607328 0.225445 0)
(0.622596 0.19452 0)
(0.650625 0.19406 0)
(0.679996 0.21998 0)
(0.721803 0.253725 0)
(0.770258 0.286965 0)
(0.839117 0.320594 0)
(0.948866 0.326759 0)
(0.664025 0.298689 0)
(0.637682 0.275727 0)
(0.641535 0.233366 0)
(0.661941 0.200739 0)
(0.687722 0.205208 0)
(0.714503 0.228846 0)
(0.747258 0.258868 0)
(0.788936 0.287482 0)
(0.851622 0.315253 0)
(0.952852 0.319155 0)
(0.702946 0.311539 0)
(0.680765 0.286137 0)
(0.691509 0.239939 0)
(0.709909 0.217753 0)
(0.72728 0.223917 0)
(0.745738 0.240246 0)
(0.767019 0.265488 0)
(0.802994 0.288752 0)
(0.86062 0.31027 0)
(0.952965 0.312181 0)
(0.771837 0.335913 0)
(0.748896 0.303289 0)
(0.757645 0.260168 0)
(0.755046 0.243114 0)
(0.754325 0.246785 0)
(0.761882 0.259562 0)
(0.778414 0.27595 0)
(0.811819 0.291133 0)
(0.865039 0.305507 0)
(0.949585 0.305075 0)
(0.868911 0.343419 0)
(0.810996 0.320151 0)
(0.795118 0.290797 0)
(0.777605 0.280321 0)
(0.761343 0.281425 0)
(0.76142 0.281876 0)
(0.780286 0.28681 0)
(0.81451 0.293636 0)
(0.866905 0.300897 0)
(0.945274 0.297625 0)
(0.942454 0.337786 0)
(0.830875 0.359335 0)
(0.788207 0.342295 0)
(0.762086 0.318741 0)
(0.747088 0.300571 0)
(0.753077 0.294364 0)
(0.777005 0.292978 0)
(0.814093 0.294787 0)
(0.866803 0.295912 0)
(0.94155 0.290643 0)
(0.955129 0.336815 0)
(0.803617 0.382925 0)
(0.744489 0.354788 0)
(0.729142 0.321177 0)
(0.728652 0.299523 0)
(0.741617 0.295481 0)
(0.770641 0.293594 0)
(0.812328 0.292262 0)
(0.865674 0.290388 0)
(0.937145 0.284632 0)
(0.941124 0.251109 0)
(0.807788 0.307303 0)
(0.726963 0.31231 0)
(0.714405 0.295522 0)
(0.719019 0.287926 0)
(0.732374 0.289874 0)
(0.763619 0.291298 0)
(0.809284 0.28859 0)
(0.863974 0.285173 0)
(0.932942 0.279645 0)
(0.98733 0.110003 0)
(0.903052 0.171193 0)
(0.758047 0.251202 0)
(0.690087 0.288403 0)
(0.697294 0.291052 0)
(0.721925 0.286557 0)
(0.759748 0.283879 0)
(0.807286 0.283599 0)
(0.862815 0.280557 0)
(0.929206 0.2761 0)
(1.03345 0.0268974 0)
(0.990716 0.0515044 0)
(0.890538 0.128599 0)
(0.745134 0.22921 0)
(0.697797 0.273159 0)
(0.720724 0.274141 0)
(0.759001 0.27913 0)
(0.808531 0.279707 0)
(0.86203 0.27689 0)
(0.924882 0.273269 0)
(1.04433 0.0117362 0)
(1.00501 0.0103762 0)
(0.983045 0.028291 0)
(0.875587 0.119568 0)
(0.741418 0.22876 0)
(0.720112 0.269047 0)
(0.756229 0.27891 0)
(0.806896 0.279211 0)
(0.861575 0.274339 0)
(0.921183 0.270309 0)
(1.04104 0.00702254 0)
(1.00311 0.00446596 0)
(0.990947 0.00414268 0)
(0.977414 0.0212409 0)
(0.865686 0.130027 0)
(0.754344 0.237267 0)
(0.762609 0.273211 0)
(0.807197 0.279541 0)
(0.861492 0.271973 0)
(0.917464 0.267266 0)
(1.03652 0.00263194 0)
(0.999864 0.00135 0)
(0.989624 0.000553793 0)
(0.990726 0.000374693 0)
(0.97699 0.0257773 0)
(0.863844 0.153649 0)
(0.783517 0.253746 0)
(0.81337 0.276796 0)
(0.862242 0.273079 0)
(0.914646 0.265715 0)
(1.03467 0.000129396 0)
(0.998785 -0.000162916 0)
(0.989398 -0.000287129 0)
(0.99031 -0.000277441 0)
(0.996325 -0.0018141 0)
(0.980619 0.039749 0)
(0.868382 0.179743 0)
(0.827927 0.263617 0)
(0.864837 0.271176 0)
(0.914177 0.267926 0)
(3 5.92895e-16 0)
(2.99997 -5.82362e-14 0)
(2.99751 -2.83217e-11 0)
(2.91819 9.19243e-09 0)
(2.44183 -2.56575e-07 0)
(2.09345 1.13706e-06 0)
(2.04946 5.91488e-06 0)
(1.9887 -0.000103492 0)
(1.77466 0.000109742 0)
(0.933387 0.0169779 0)
(3 1.00874e-15 0)
(2.99997 -3.47999e-14 0)
(2.99751 -1.83913e-10 0)
(2.91819 4.44354e-08 0)
(2.44183 -1.0143e-06 0)
(2.09346 4.98165e-06 0)
(2.04943 -6.65355e-07 0)
(1.98901 -6.18499e-05 0)
(1.77205 -0.000809751 0)
(0.953203 0.0545255 0)
(3 -1.79802e-16 0)
(2.99997 -4.06768e-12 0)
(2.99751 5.9279e-10 0)
(2.91819 2.20392e-09 0)
(2.44183 -5.76746e-07 0)
(2.09348 5.98699e-06 0)
(2.04938 8.19183e-06 0)
(1.98983 -0.000171346 0)
(1.76661 -0.00349162 0)
(0.994435 0.0819153 0)
(3 -1.2587e-15 0)
(2.99997 -1.14221e-11 0)
(2.99751 2.21181e-09 0)
(2.91819 -8.8444e-08 0)
(2.44182 -3.16432e-07 0)
(2.0935 5.42113e-06 0)
(2.04931 2.63893e-05 0)
(1.99074 -0.000359413 0)
(1.75928 -0.00410034 0)
(1.04412 0.103514 0)
(3 -1.00327e-16 0)
(2.99997 -1.97812e-11 0)
(2.99751 4.16738e-09 0)
(2.91819 -2.25167e-07 0)
(2.44182 9.29284e-07 0)
(2.09353 3.00227e-06 0)
(2.04925 5.08794e-05 0)
(1.99145 -0.000442988 0)
(1.7527 -0.00667602 0)
(1.09566 0.115569 0)
(3 4.17558e-16 0)
(2.99997 -2.38595e-11 0)
(2.99751 5.22054e-09 0)
(2.91819 -3.14863e-07 0)
(2.44182 2.07734e-06 0)
(2.09354 -1.23553e-06 0)
(2.04921 6.42905e-05 0)
(1.99163 -0.000340473 0)
(1.74911 -0.00999492 0)
(1.14261 0.119808 0)
(3 4.14528e-16 0)
(2.99997 -2.22705e-11 0)
(2.99751 4.99032e-09 0)
(2.91819 -3.22487e-07 0)
(2.44182 2.31429e-06 0)
(2.09354 -3.42354e-06 0)
(2.04921 3.85361e-05 0)
(1.9915 0.000310381 0)
(1.74944 -0.0166939 0)
(1.17766 0.12217 0)
(3 -6.85983e-17 0)
(2.99997 -1.7195e-11 0)
(2.99751 3.87731e-09 0)
(2.91819 -2.66845e-07 0)
(2.44182 2.08952e-06 0)
(2.09354 -4.0295e-06 0)
(2.04922 5.07365e-07 0)
(1.99127 0.00100051 0)
(1.75152 -0.024351 0)
(1.20246 0.119591 0)
(3 -5.2517e-16 0)
(2.99997 -1.01006e-11 0)
(2.99751 2.25583e-09 0)
(2.91819 -1.74429e-07 0)
(2.44183 1.76106e-06 0)
(2.09352 -4.01492e-06 0)
(2.04925 -4.24581e-05 0)
(1.99088 0.00194919 0)
(1.7542 -0.0301001 0)
(1.22196 0.111413 0)
(3 6.18934e-16 0)
(2.99997 -3.59704e-12 0)
(2.99751 8.18495e-10 0)
(2.91819 -8.1336e-08 0)
(2.44183 1.07929e-06 0)
(2.0935 -2.98511e-06 0)
(2.04928 -8.68051e-05 0)
(1.99063 0.00250339 0)
(1.75579 -0.0293065 0)
(1.22794 0.0974963 0)
(3 1.06353e-15 0)
(2.99997 7.16474e-13 0)
(2.99751 -2.03069e-10 0)
(2.91819 -9.83313e-09 0)
(2.44183 4.0803e-07 0)
(2.09349 -1.33352e-06 0)
(2.0493 -0.000108274 0)
(1.99055 0.00239061 0)
(1.75774 -0.025478 0)
(1.23236 0.0688535 0)
(3 -1.81055e-16 0)
(2.99997 2.98021e-12 0)
(2.99751 -7.71437e-10 0)
(2.91819 3.98792e-08 0)
(2.44183 -7.47247e-08 0)
(2.09349 -2.29772e-07 0)
(2.04931 -0.000102181 0)
(1.99047 0.00207612 0)
(1.75891 -0.0206373 0)
(1.25028 0.0308622 0)
(3 -9.87324e-16 0)
(2.99997 3.63081e-12 0)
(2.99751 -9.0331e-10 0)
(2.91819 5.69338e-08 0)
(2.44183 -3.73505e-07 0)
(2.09349 1.74292e-07 0)
(2.04932 -8.9037e-05 0)
(1.99036 0.00174447 0)
(1.7572 -0.0155999 0)
(1.29118 0.00582646 0)
(3 -5.84078e-16 0)
(2.99997 3.54743e-12 0)
(2.99751 -8.4805e-10 0)
(2.91819 5.5331e-08 0)
(2.44183 -4.20008e-07 0)
(2.09349 3.50621e-07 0)
(2.04932 -7.44334e-05 0)
(1.99032 0.00143104 0)
(1.75615 -0.0124105 0)
(1.3235 0.00706852 0)
(3 3.85742e-16 0)
(2.99997 3.09379e-12 0)
(2.99751 -7.47543e-10 0)
(2.91819 5.0065e-08 0)
(2.44183 -3.97783e-07 0)
(2.09349 4.66031e-07 0)
(2.04932 -5.96678e-05 0)
(1.99036 0.00113464 0)
(1.75515 -0.0099295 0)
(1.33568 0.0147619 0)
(3 3.84632e-16 0)
(2.99997 2.45565e-12 0)
(2.99751 -6.0705e-10 0)
(2.91819 4.13406e-08 0)
(2.44183 -3.27747e-07 0)
(2.09349 4.68981e-07 0)
(2.04932 -4.75309e-05 0)
(1.99036 0.000906437 0)
(1.75464 -0.00809037 0)
(1.33928 0.0164089 0)
(3 -4.44256e-17 0)
(2.99997 1.76365e-12 0)
(2.99751 -4.52724e-10 0)
(2.91819 3.2125e-08 0)
(2.44183 -2.61941e-07 0)
(2.09349 5.32043e-07 0)
(2.04932 -3.51926e-05 0)
(1.99043 0.000657087 0)
(1.75384 -0.00587372 0)
(1.34151 0.0141288 0)
(3 2.62012e-16 0)
(2.99997 1.09244e-12 0)
(2.99751 -2.96508e-10 0)
(2.91819 2.23499e-08 0)
(2.44183 -1.92585e-07 0)
(2.09349 4.75137e-07 0)
(2.04931 -2.37927e-05 0)
(1.99047 0.000429459 0)
(1.75321 -0.00363801 0)
(1.34354 0.0094696 0)
(3 -1.4557e-16 0)
(2.99997 5.4451e-13 0)
(2.99751 -1.60236e-10 0)
(2.91819 1.33313e-08 0)
(2.44183 -1.39572e-07 0)
(2.09349 3.59626e-07 0)
(2.04931 -1.31109e-05 0)
(1.99051 0.000214323 0)
(1.75277 -0.00153492 0)
(1.34494 0.00374762 0)
(3 -7.37443e-16 0)
(2.99997 2.02606e-13 0)
(2.99751 -6.58085e-11 0)
(2.91819 6.17056e-09 0)
(2.44183 -6.89757e-08 0)
(2.09349 1.73196e-07 0)
(2.04931 -4.86323e-06 0)
(1.99053 6.1778e-05 0)
(1.75261 -0.000311707 0)
(1.34538 0.00069919 0)
(3 1.68507e-17 0)
(2.99997 -2.0615e-13 0)
(2.99751 6.5785e-11 0)
(2.91819 -6.16953e-09 0)
(2.44183 6.89692e-08 0)
(2.09349 -1.732e-07 0)
(2.04931 4.86238e-06 0)
(1.99053 -6.17615e-05 0)
(1.75261 0.000311538 0)
(1.34538 -0.000698471 0)
(3 -3.44214e-16 0)
(2.99997 -5.45439e-13 0)
(2.99751 1.60215e-10 0)
(2.91819 -1.33303e-08 0)
(2.44183 1.39565e-07 0)
(2.09349 -3.59634e-07 0)
(2.04931 1.31102e-05 0)
(1.99051 -0.000214312 0)
(1.75277 0.00153481 0)
(1.34494 -0.00374709 0)
(3 -9.45041e-16 0)
(2.99997 -1.09274e-12 0)
(2.99751 2.9649e-10 0)
(2.91819 -2.23487e-08 0)
(2.44183 1.92575e-07 0)
(2.09349 -4.75137e-07 0)
(2.04931 2.37919e-05 0)
(1.99047 -0.000429446 0)
(1.75321 0.00363788 0)
(1.34354 -0.00946896 0)
(3 -4.91889e-16 0)
(2.99997 -1.76352e-12 0)
(2.99751 4.52707e-10 0)
(2.91819 -3.21239e-08 0)
(2.44183 2.61934e-07 0)
(2.09349 -5.32041e-07 0)
(2.04932 3.51917e-05 0)
(1.99043 -0.000657071 0)
(1.75384 0.00587355 0)
(1.34151 -0.0141281 0)
(3 -1.22428e-16 0)
(2.99997 -2.45567e-12 0)
(2.99751 6.07033e-10 0)
(2.91819 -4.13396e-08 0)
(2.44183 3.2774e-07 0)
(2.09349 -4.68971e-07 0)
(2.04932 4.753e-05 0)
(1.99036 -0.000906421 0)
(1.75464 0.0080902 0)
(1.33928 -0.016408 0)
(3 3.00737e-16 0)
(2.99997 -3.0933e-12 0)
(2.99751 7.4753e-10 0)
(2.91819 -5.00641e-08 0)
(2.44183 3.97775e-07 0)
(2.09349 -4.66022e-07 0)
(2.04932 5.9667e-05 0)
(1.99036 -0.00113462 0)
(1.75515 0.00992934 0)
(1.33568 -0.0147611 0)
(3 7.17465e-16 0)
(2.99997 -3.54575e-12 0)
(2.99751 8.48042e-10 0)
(2.91819 -5.53302e-08 0)
(2.44183 4.2e-07 0)
(2.09349 -3.5061e-07 0)
(2.04932 7.44328e-05 0)
(1.99032 -0.00143102 0)
(1.75615 0.0124104 0)
(1.3235 -0.00706786 0)
(3 1.52612e-16 0)
(2.99997 -3.63164e-12 0)
(2.99751 9.03303e-10 0)
(2.91819 -5.69333e-08 0)
(2.44183 3.73501e-07 0)
(2.09349 -1.74282e-07 0)
(2.04932 8.90366e-05 0)
(1.99036 -0.00174446 0)
(1.7572 0.0155998 0)
(1.29118 -0.00582604 0)
(3 -2.41425e-16 0)
(2.99997 -2.9818e-12 0)
(2.99751 7.71434e-10 0)
(2.91819 -3.98789e-08 0)
(2.44183 7.47221e-08 0)
(2.09349 2.29778e-07 0)
(2.04931 0.000102181 0)
(1.99047 -0.00207611 0)
(1.75891 0.0206372 0)
(1.25028 -0.0308619 0)
(3 -6.22148e-16 0)
(2.99997 -7.15784e-13 0)
(2.99751 2.03068e-10 0)
(2.91819 9.83326e-09 0)
(2.44183 -4.08032e-07 0)
(2.09349 1.33352e-06 0)
(2.0493 0.000108274 0)
(1.99055 -0.00239061 0)
(1.75774 0.0254779 0)
(1.23236 -0.0688533 0)
(3 -1.3326e-16 0)
(2.99997 3.59748e-12 0)
(2.99751 -8.18493e-10 0)
(2.91819 8.1336e-08 0)
(2.44183 -1.07929e-06 0)
(2.0935 2.98511e-06 0)
(2.04928 8.68051e-05 0)
(1.99063 -0.00250339 0)
(1.75579 0.0293064 0)
(1.22794 -0.0974963 0)
(3 4.95265e-16 0)
(2.99997 1.01e-11 0)
(2.99751 -2.25583e-09 0)
(2.91819 1.74429e-07 0)
(2.44183 -1.76106e-06 0)
(2.09352 4.01492e-06 0)
(2.04925 4.24581e-05 0)
(1.99088 -0.00194919 0)
(1.7542 0.0301001 0)
(1.22196 -0.111413 0)
(3 4.08365e-16 0)
(2.99997 1.71952e-11 0)
(2.99751 -3.8773e-09 0)
(2.91819 2.66845e-07 0)
(2.44182 -2.08952e-06 0)
(2.09354 4.0295e-06 0)
(2.04922 -5.07295e-07 0)
(1.99127 -0.00100051 0)
(1.75152 0.024351 0)
(1.20246 -0.119591 0)
(3 1.10677e-15 0)
(2.99997 2.22739e-11 0)
(2.99751 -4.9903e-09 0)
(2.91819 3.22486e-07 0)
(2.44182 -2.31429e-06 0)
(2.09354 3.42354e-06 0)
(2.04921 -3.8536e-05 0)
(1.9915 -0.000310382 0)
(1.74944 0.0166939 0)
(1.17766 -0.12217 0)
(3 3.96278e-16 0)
(2.99997 2.38601e-11 0)
(2.99751 -5.22052e-09 0)
(2.91819 3.14863e-07 0)
(2.44182 -2.07734e-06 0)
(2.09354 1.23553e-06 0)
(2.04921 -6.42904e-05 0)
(1.99163 0.000340473 0)
(1.74911 0.00999493 0)
(1.14261 -0.119808 0)
(3 1.08164e-16 0)
(2.99997 1.97791e-11 0)
(2.99751 -4.16737e-09 0)
(2.91819 2.25167e-07 0)
(2.44182 -9.29283e-07 0)
(2.09353 -3.00227e-06 0)
(2.04925 -5.08793e-05 0)
(1.99145 0.000442988 0)
(1.7527 0.00667602 0)
(1.09566 -0.115569 0)
(3 -1.62066e-16 0)
(2.99997 1.14192e-11 0)
(2.99751 -2.21179e-09 0)
(2.91819 8.84441e-08 0)
(2.44182 3.16433e-07 0)
(2.0935 -5.42113e-06 0)
(2.04931 -2.63892e-05 0)
(1.99074 0.000359413 0)
(1.75928 0.00410034 0)
(1.04412 -0.103514 0)
(3 -8.81496e-16 0)
(2.99997 4.06782e-12 0)
(2.99751 -5.9283e-10 0)
(2.91819 -2.20374e-09 0)
(2.44183 5.76746e-07 0)
(2.09348 -5.98699e-06 0)
(2.04938 -8.19183e-06 0)
(1.98983 0.000171346 0)
(1.76661 0.00349162 0)
(0.994435 -0.0819153 0)
(3 -1.16677e-15 0)
(2.99997 3.45943e-14 0)
(2.99751 1.83891e-10 0)
(2.91819 -4.44352e-08 0)
(2.44183 1.0143e-06 0)
(2.09346 -4.98165e-06 0)
(2.04943 6.65355e-07 0)
(1.98901 6.18499e-05 0)
(1.77205 0.000809751 0)
(0.953203 -0.0545255 0)
(3 -5.60263e-16 0)
(2.99997 5.93842e-14 0)
(2.99751 2.83038e-11 0)
(2.91819 -9.19308e-09 0)
(2.44183 2.56575e-07 0)
(2.09345 -1.13706e-06 0)
(2.04946 -5.91488e-06 0)
(1.9887 0.000103492 0)
(1.77466 -0.000109742 0)
(0.933387 -0.0169779 0)
(1.03467 -0.000130599 0)
(0.998784 0.000161709 0)
(0.989397 0.000285894 0)
(0.99031 0.000276285 0)
(0.996326 0.00181324 0)
(0.98062 -0.0397496 0)
(0.868382 -0.179743 0)
(0.827927 -0.263617 0)
(0.864837 -0.271176 0)
(0.914177 -0.267926 0)
(1.03652 -0.0026336 0)
(0.999863 -0.00135188 0)
(0.989624 -0.000555424 0)
(0.990727 -0.000376168 0)
(0.976991 -0.0257784 0)
(0.863844 -0.15365 0)
(0.783518 -0.253746 0)
(0.81337 -0.276796 0)
(0.862242 -0.273079 0)
(0.914646 -0.265715 0)
(1.04104 -0.00702389 0)
(1.00311 -0.00446743 0)
(0.990947 -0.00414418 0)
(0.977414 -0.0212423 0)
(0.865686 -0.130028 0)
(0.754344 -0.237268 0)
(0.762609 -0.273211 0)
(0.807197 -0.279541 0)
(0.861492 -0.271973 0)
(0.917464 -0.267266 0)
(1.04433 -0.0117372 0)
(1.00501 -0.0103771 0)
(0.983045 -0.0282922 0)
(0.875587 -0.11957 0)
(0.741418 -0.228761 0)
(0.720112 -0.269047 0)
(0.756229 -0.27891 0)
(0.806896 -0.279211 0)
(0.861575 -0.274339 0)
(0.921182 -0.270309 0)
(1.03345 -0.0268987 0)
(0.990717 -0.051506 0)
(0.890538 -0.128601 0)
(0.745134 -0.229212 0)
(0.697797 -0.27316 0)
(0.720723 -0.274141 0)
(0.759001 -0.27913 0)
(0.808531 -0.279707 0)
(0.86203 -0.27689 0)
(0.924881 -0.27327 0)
(0.987331 -0.110004 0)
(0.903053 -0.171195 0)
(0.758048 -0.251204 0)
(0.690087 -0.288404 0)
(0.697294 -0.291053 0)
(0.721925 -0.286558 0)
(0.759748 -0.28388 0)
(0.807285 -0.283599 0)
(0.862815 -0.280557 0)
(0.929206 -0.2761 0)
(0.941125 -0.25111 0)
(0.807789 -0.307304 0)
(0.726964 -0.312311 0)
(0.714405 -0.295523 0)
(0.719019 -0.287927 0)
(0.732374 -0.289874 0)
(0.763619 -0.291298 0)
(0.809283 -0.28859 0)
(0.863974 -0.285173 0)
(0.932942 -0.279645 0)
(0.955131 -0.336815 0)
(0.803618 -0.382925 0)
(0.744489 -0.354789 0)
(0.729142 -0.321178 0)
(0.728652 -0.299523 0)
(0.741617 -0.295481 0)
(0.770641 -0.293595 0)
(0.812328 -0.292263 0)
(0.865674 -0.290388 0)
(0.937145 -0.284632 0)
(0.942454 -0.337785 0)
(0.830876 -0.359335 0)
(0.788207 -0.342296 0)
(0.762086 -0.318742 0)
(0.747088 -0.300571 0)
(0.753077 -0.294364 0)
(0.777005 -0.292978 0)
(0.814092 -0.294787 0)
(0.866803 -0.295913 0)
(0.941549 -0.290643 0)
(0.868911 -0.343419 0)
(0.810997 -0.320151 0)
(0.795118 -0.290798 0)
(0.777605 -0.280321 0)
(0.761343 -0.281425 0)
(0.761419 -0.281877 0)
(0.780286 -0.28681 0)
(0.81451 -0.293636 0)
(0.866904 -0.300897 0)
(0.945274 -0.297626 0)
(0.771837 -0.335913 0)
(0.748896 -0.303289 0)
(0.757645 -0.260168 0)
(0.755046 -0.243115 0)
(0.754324 -0.246785 0)
(0.761882 -0.259562 0)
(0.778414 -0.27595 0)
(0.811819 -0.291133 0)
(0.865039 -0.305508 0)
(0.949585 -0.305075 0)
(0.702946 -0.311539 0)
(0.680765 -0.286137 0)
(0.691509 -0.239939 0)
(0.709909 -0.217753 0)
(0.727279 -0.223917 0)
(0.745738 -0.240246 0)
(0.767019 -0.265488 0)
(0.802994 -0.288752 0)
(0.86062 -0.31027 0)
(0.952965 -0.312181 0)
(0.664025 -0.298689 0)
(0.637682 -0.275727 0)
(0.641535 -0.233366 0)
(0.661941 -0.200739 0)
(0.687722 -0.205208 0)
(0.714503 -0.228846 0)
(0.747258 -0.258868 0)
(0.788936 -0.287482 0)
(0.851622 -0.315253 0)
(0.952852 -0.319155 0)
(0.633918 -0.285583 0)
(0.611502 -0.263777 0)
(0.607328 -0.225445 0)
(0.622596 -0.19452 0)
(0.650625 -0.19406 0)
(0.679996 -0.21998 0)
(0.721803 -0.253725 0)
(0.770258 -0.286964 0)
(0.839117 -0.320594 0)
(0.948866 -0.326759 0)
(0.596796 -0.25847 0)
(0.584819 -0.240138 0)
(0.577232 -0.206497 0)
(0.590711 -0.181672 0)
(0.616033 -0.18534 0)
(0.646576 -0.214782 0)
(0.690981 -0.25313 0)
(0.747018 -0.289478 0)
(0.822398 -0.326725 0)
(0.93912 -0.335431 0)
(0.537336 -0.233666 0)
(0.536956 -0.218284 0)
(0.531148 -0.187469 0)
(0.549484 -0.165089 0)
(0.577132 -0.172178 0)
(0.611274 -0.205746 0)
(0.654767 -0.2502 0)
(0.717009 -0.289911 0)
(0.799287 -0.332857 0)
(0.926324 -0.347538 0)
(0.460785 -0.196263 0)
(0.463046 -0.185763 0)
(0.461757 -0.165885 0)
(0.486289 -0.152955 0)
(0.522417 -0.164453 0)
(0.566857 -0.199943 0)
(0.614394 -0.248641 0)
(0.683468 -0.292858 0)
(0.771964 -0.343051 0)
(0.909546 -0.361295 0)
(0.375903 -0.156892 0)
(0.376973 -0.151502 0)
(0.379487 -0.140582 0)
(0.408705 -0.136836 0)
(0.456055 -0.154947 0)
(0.515371 -0.194825 0)
(0.57594 -0.247511 0)
(0.650784 -0.295316 0)
(0.74301 -0.348892 0)
(0.892466 -0.381469 0)
(0.309297 -0.125963 0)
(0.311286 -0.124857 0)
(0.313209 -0.121164 0)
(0.340259 -0.125194 0)
(0.392176 -0.150479 0)
(0.463743 -0.196437 0)
(0.541809 -0.252899 0)
(0.623232 -0.309663 0)
(0.722402 -0.3647 0)
(0.871183 -0.410266 0)
(0.273744 -0.117889 0)
(0.275308 -0.1228 0)
(0.273026 -0.131347 0)
(0.292337 -0.145036 0)
(0.339977 -0.174345 0)
(0.415363 -0.216376 0)
(0.50661 -0.26936 0)
(0.599863 -0.326878 0)
(0.715169 -0.37632 0)
(0.876583 -0.425162 0)
(1.00606 -0.235769 0)
(1.11223 -0.152302 0)
(1.16901 -0.0489517 0)
(1.16676 0.0199623 0)
(1.13675 0.0259821 0)
(1.11471 0.0123228 0)
(1.10293 0.00201523 0)
(1.10021 5.83491e-05 0)
(1.10001 -4.80363e-07 0)
(1.0982 -4.24156e-07 0)
(1.01426 -0.232379 0)
(1.12882 -0.142855 0)
(1.18624 -0.03139 0)
(1.16909 0.0346071 0)
(1.13408 0.0353123 0)
(1.11227 0.0184913 0)
(1.10221 0.00389858 0)
(1.10015 0.000238143 0)
(1.1 6.45899e-06 0)
(1.0982 -2.07923e-06 0)
(1.02158 -0.232857 0)
(1.14091 -0.135772 0)
(1.20005 -0.0140581 0)
(1.17563 0.0539856 0)
(1.13574 0.0502641 0)
(1.11087 0.0274317 0)
(1.10122 0.00620068 0)
(1.10004 0.000406754 0)
(1.1 2.0117e-05 0)
(1.0982 -7.62465e-06 0)
(1.03058 -0.233411 0)
(1.15837 -0.125022 0)
(1.21391 0.00421412 0)
(1.17437 0.0688038 0)
(1.13274 0.061747 0)
(1.10713 0.0348263 0)
(1.09973 0.00854473 0)
(1.09988 0.000641296 0)
(1.09998 3.55936e-05 0)
(1.09821 -1.23957e-05 0)
(1.04183 -0.232547 0)
(1.17374 -0.115177 0)
(1.23063 0.0251272 0)
(1.17604 0.0910056 0)
(1.13288 0.0787816 0)
(1.10393 0.0439332 0)
(1.09808 0.0111185 0)
(1.09967 0.000923491 0)
(1.09997 4.81667e-05 0)
(1.09821 -1.30008e-05 0)
(1.05339 -0.231403 0)
(1.19523 -0.102221 0)
(1.24514 0.046102 0)
(1.17146 0.107438 0)
(1.12848 0.0918704 0)
(1.09827 0.0503747 0)
(1.09584 0.0132677 0)
(1.09937 0.00121016 0)
(1.09995 5.98552e-05 0)
(1.09821 -1.22968e-05 0)
(1.06768 -0.229706 0)
(1.21385 -0.0921678 0)
(1.26382 0.0719537 0)
(1.17345 0.131132 0)
(1.1271 0.111013 0)
(1.09364 0.0597501 0)
(1.09358 0.0160102 0)
(1.09902 0.00155274 0)
(1.09993 7.30148e-05 0)
(1.09822 -1.14951e-05 0)
(1.08204 -0.22859 0)
(1.2411 -0.0762196 0)
(1.27703 0.0977822 0)
(1.17219 0.14981 0)
(1.1188 0.123336 0)
(1.08624 0.0658725 0)
(1.09071 0.018213 0)
(1.09858 0.0018808 0)
(1.0999 8.60354e-05 0)