/*--------------------------------*- C++ -*----------------------------------*\
  =========                 |
  \\      /  F ield         | OpenFOAM: The Open Source CFD Toolbox
   \\    /   O peration     | Website:  https://openfoam.org
    \\  /    A nd           | Version:  8
     \\/     M anipulation  |
\*---------------------------------------------------------------------------*/
FoamFile
{
    version     2.0;
    format      ascii;
    class       volVectorField;
    location    "0.2";
    object      U;
}
// * * * * * * * * * * * * * * * * * * * * * * * * * * * * * * * * * * * * * //

dimensions      [0 1 -1 0 0 0 0];

internalField   nonuniform List<vector> 
2600
(
(0.971738 0.291478 0)
(1.53874 0.243898 0)
(1.26284 0.186626 0)
(0.961995 0.173662 0)
(0.935704 0.129271 0)
(0.981975 0.0633024 0)
(1.04844 0.0203995 0)
(1.08937 0.0037212 0)
(1.09929 0.000226561 0)
(1.09816 3.60954e-06 0)
(0.439027 -0.0362665 0)
(1.33748 0.17792 0)
(1.1847 0.225684 0)
(0.922885 0.181022 0)
(0.924912 0.120539 0)
(0.984282 0.0553377 0)
(1.04848 0.0177215 0)
(1.08868 0.00343685 0)
(1.09922 0.000218933 0)
(1.09815 3.76227e-06 0)
(0.129811 -0.0974412 0)
(0.998692 0.124445 0)
(1.04278 0.240936 0)
(0.890151 0.184652 0)
(0.917295 0.111404 0)
(0.983313 0.0476238 0)
(1.04706 0.0155895 0)
(1.08798 0.00308097 0)
(1.09916 0.000198446 0)
(1.09815 3.67416e-06 0)
(-0.0156697 -0.171588 0)
(0.615473 0.0387118 0)
(0.862956 0.218016 0)
(0.86574 0.182834 0)
(0.922365 0.10187 0)
(0.985067 0.0410322 0)
(1.04543 0.0138063 0)
(1.08735 0.00267603 0)
(1.0991 0.000170505 0)
(1.09815 3.32481e-06 0)
(-0.142839 -0.172426 0)
(0.256646 0.012182 0)
(0.686372 0.239457 0)
(0.840973 0.186337 0)
(0.923229 0.0927067 0)
(0.984474 0.035406 0)
(1.04434 0.0118178 0)
(1.087 0.00217805 0)
(1.09907 0.000135043 0)
(1.09815 2.87539e-06 0)
(-0.222875 -0.177482 0)
(-0.0186774 -0.0350942 0)
(0.539004 0.187362 0)
(0.811862 0.163862 0)
(0.914599 0.0818 0)
(0.981539 0.0307055 0)
(1.04423 0.0096934 0)
(1.08704 0.00160405 0)
(1.09906 0.000100279 0)
(1.09814 2.44789e-06 0)
(-0.257303 -0.170779 0)
(-0.178835 -0.0653283 0)
(0.397439 0.150456 0)
(0.756188 0.140875 0)
(0.896197 0.0698457 0)
(0.978532 0.0245397 0)
(1.04486 0.00731993 0)
(1.08717 0.00114316 0)
(1.09905 7.27865e-05 0)
(1.09814 2.06243e-06 0)
(-0.268678 -0.136617 0)
(-0.250766 -0.0721252 0)
(0.294368 0.0847587 0)
(0.69665 0.0952469 0)
(0.886404 0.0515269 0)
(0.980212 0.0178093 0)
(1.04642 0.00501067 0)
(1.08727 0.000771235 0)
(1.09904 5.07499e-05 0)
(1.09814 1.5245e-06 0)
(-0.284737 -0.0888509 0)
(-0.279124 -0.0483273 0)
(0.223237 0.0457216 0)
(0.636934 0.0602173 0)
(0.869733 0.0329059 0)
(0.977662 0.0107489 0)
(1.04623 0.00279565 0)
(1.08729 0.000444593 0)
(1.09904 2.82982e-05 0)
(1.09814 9.34935e-07 0)
(-0.283993 -0.0310233 0)
(-0.283017 -0.0165581 0)
(0.202902 0.0130414 0)
(0.626432 0.0197191 0)
(0.87288 0.0107185 0)
(0.980856 0.00386848 0)
(1.047 0.000934262 0)
(1.08724 0.000142592 0)
(1.09903 1.04648e-05 0)
(1.09814 3.09771e-07 0)
(-0.283993 0.0310233 0)
(-0.283017 0.0165581 0)
(0.202902 -0.0130414 0)
(0.626432 -0.0197191 0)
(0.87288 -0.0107185 0)
(0.980856 -0.00386848 0)
(1.047 -0.000934262 0)
(1.08724 -0.000142592 0)
(1.09903 -1.04647e-05 0)
(1.09814 -3.0977e-07 0)
(-0.284737 0.0888509 0)
(-0.279124 0.0483273 0)
(0.223237 -0.0457216 0)
(0.636934 -0.0602173 0)
(0.869733 -0.0329059 0)
(0.977662 -0.0107489 0)
(1.04623 -0.00279565 0)
(1.08729 -0.000444593 0)
(1.09904 -2.82982e-05 0)
(1.09814 -9.34935e-07 0)
(-0.268678 0.136617 0)
(-0.250766 0.0721252 0)
(0.294368 -0.0847587 0)
(0.69665 -0.0952469 0)
(0.886404 -0.0515269 0)
(0.980212 -0.0178093 0)
(1.04642 -0.00501067 0)
(1.08727 -0.000771235 0)
(1.09904 -5.07499e-05 0)
(1.09814 -1.5245e-06 0)
(-0.257303 0.170779 0)
(-0.178835 0.0653283 0)
(0.397439 -0.150456 0)
(0.756188 -0.140875 0)
(0.896197 -0.0698457 0)
(0.978532 -0.0245397 0)
(1.04486 -0.00731993 0)
(1.08717 -0.00114316 0)
(1.09905 -7.27865e-05 0)
(1.09814 -2.06243e-06 0)
(-0.222875 0.177482 0)
(-0.0186774 0.0350942 0)
(0.539004 -0.187362 0)
(0.811862 -0.163862 0)
(0.914599 -0.0818 0)
(0.981539 -0.0307055 0)
(1.04423 -0.0096934 0)
(1.08704 -0.00160405 0)
(1.09906 -0.000100279 0)
(1.09814 -2.44788e-06 0)
(-0.142839 0.172426 0)
(0.256646 -0.012182 0)
(0.686372 -0.239457 0)
(0.840973 -0.186337 0)
(0.923229 -0.0927067 0)
(0.984474 -0.035406 0)
(1.04434 -0.0118178 0)
(1.087 -0.00217805 0)
(1.09907 -0.000135043 0)
(1.09815 -2.87539e-06 0)
(-0.0156697 0.171588 0)
(0.615473 -0.0387118 0)
(0.862956 -0.218016 0)
(0.86574 -0.182834 0)
(0.922365 -0.10187 0)
(0.985067 -0.0410322 0)
(1.04543 -0.0138063 0)
(1.08735 -0.00267603 0)
(1.0991 -0.000170505 0)
(1.09815 -3.3248e-06 0)
(0.129811 0.0974412 0)
(0.998692 -0.124445 0)
(1.04278 -0.240936 0)
(0.890151 -0.184652 0)
(0.917295 -0.111404 0)
(0.983313 -0.0476238 0)
(1.04706 -0.0155895 0)
(1.08798 -0.00308097 0)
(1.09916 -0.000198446 0)
(1.09815 -3.67416e-06 0)
(0.439027 0.0362665 0)
(1.33748 -0.17792 0)
(1.1847 -0.225684 0)
(0.922885 -0.181022 0)
(0.924912 -0.120539 0)
(0.984282 -0.0553377 0)
(1.04848 -0.0177215 0)
(1.08868 -0.00343685 0)
(1.09922 -0.000218933 0)
(1.09815 -3.76227e-06 0)
(0.971738 -0.291478 0)
(1.53874 -0.243898 0)
(1.26284 -0.186626 0)
(0.961995 -0.173662 0)
(0.935704 -0.129271 0)
(0.981975 -0.0633024 0)
(1.04844 -0.0203995 0)
(1.08937 -0.0037212 0)
(1.09929 -0.000226561 0)
(1.09816 -3.60954e-06 0)
(1.46156 -0.0874011 0)
(1.58777 -0.326684 0)
(1.34076 -0.208169 0)
(0.994666 -0.173374 0)
(0.950902 -0.136466 0)
(0.985956 -0.0732952 0)
(1.05006 -0.0233968 0)
(1.0901 -0.00392177 0)
(1.09936 -0.000223291 0)
(1.09816 -3.11424e-06 0)
(1.46884 0.074639 0)
(1.61836 -0.37177 0)
(1.41601 -0.32736 0)
(1.03457 -0.190591 0)
(0.965333 -0.14699 0)
(0.994023 -0.0808637 0)
(1.05278 -0.0261821 0)
(1.09086 -0.0040566 0)
(1.09943 -0.000216109 0)
(1.09816 -2.37092e-06 0)
(1.3977 0.148513 0)
(1.62456 -0.320072 0)
(1.39407 -0.478273 0)
(1.06731 -0.235585 0)
(0.976062 -0.161337 0)
(1.00258 -0.0851303 0)
(1.05626 -0.0275843 0)
(1.09162 -0.0041028 0)
(1.09949 -0.000208924 0)
(1.09817 -1.55462e-06 0)
(1.32674 0.196654 0)
(1.63608 -0.268698 0)
(1.3499 -0.497133 0)
(1.1052 -0.305627 0)
(0.989919 -0.179215 0)
(1.01037 -0.0886202 0)
(1.05985 -0.0281507 0)
(1.0924 -0.00409656 0)
(1.09954 -0.000202613 0)
(1.09818 -7.75363e-07 0)
(1.27568 0.217188 0)
(1.6077 -0.19615 0)
(1.32147 -0.445227 0)
(1.13681 -0.340947 0)
(1.0091 -0.196568 0)
(1.01834 -0.0915522 0)
(1.06334 -0.0281551 0)
(1.09319 -0.00401134 0)
(1.09959 -0.000194111 0)
(1.09818 9.63208e-08 0)
(1.23582 0.224544 0)
(1.5524 -0.128425 0)
(1.32141 -0.397301 0)
(1.16578 -0.327404 0)
(1.03146 -0.201914 0)
(1.02705 -0.0940606 0)
(1.06677 -0.0282592 0)
(1.09398 -0.00389363 0)
(1.09964 -0.000183552 0)
(1.09819 1.10088e-06 0)
(1.20697 0.220336 0)
(1.48598 -0.0773511 0)
(1.32517 -0.338725 0)
(1.18092 -0.313033 0)
(1.05089 -0.202899 0)
(1.03626 -0.0946561 0)
(1.07029 -0.0279154 0)
(1.09475 -0.00371084 0)
(1.09969 -0.000170654 0)
(1.09819 2.22687e-06 0)
(1.18118 0.220409 0)
(1.43402 -0.0470477 0)
(1.3255 -0.281067 0)
(1.17489 -0.281268 0)
(1.06629 -0.192441 0)
(1.04548 -0.0941887 0)
(1.07386 -0.0274883 0)
(1.0955 -0.00349875 0)
(1.09973 -0.000156946 0)
(1.0982 3.44512e-06 0)
(1.15712 0.221555 0)
(1.38507 -0.0144178 0)
(1.32364 -0.237051 0)
(1.17975 -0.259761 0)
(1.08265 -0.187595 0)
(1.05464 -0.0916241 0)
(1.07745 -0.0263439 0)
(1.09621 -0.00321989 0)
(1.09978 -0.000142248 0)
(1.0982 4.76883e-06 0)
(1.13658 0.222348 0)
(1.33554 0.0178483 0)
(1.31297 -0.192989 0)
(1.17784 -0.228169 0)
(1.09424 -0.172816 0)
(1.06366 -0.0879961 0)
(1.08106 -0.0250606 0)
(1.09689 -0.00293039 0)
(1.09981 -0.000128051 0)
(1.09821 6.12747e-06 0)
(1.11619 0.225284 0)
(1.3017 0.0389093 0)
(1.30444 -0.159584 0)
(1.1772 -0.201067 0)
(1.10313 -0.15569 0)
(1.07134 -0.0804978 0)
(1.08442 -0.0228537 0)
(1.09751 -0.00257874 0)
(1.09985 -0.000113414 0)
(1.09821 7.54071e-06 0)
(1.09874 0.226809 0)
(1.26596 0.0617323 0)
(1.29011 -0.126021 0)
(1.17754 -0.17727 0)
(1.1138 -0.142764 0)
(1.07984 -0.0751633 0)
(1.0878 -0.0209299 0)
(1.09809 -0.00224995 0)
(1.09987 -9.98221e-05 0)
(1.09821 8.92337e-06 0)
(1.08204 0.228591 0)
(1.2411 0.0762196 0)
(1.27703 -0.0977822 0)
(1.17219 -0.14981 0)
(1.1188 -0.123336 0)
(1.08624 -0.0658725 0)
(1.09071 -0.018213 0)
(1.09858 -0.0018808 0)
(1.0999 -8.60354e-05 0)
(1.09822 1.0329e-05 0)
(1.06768 0.229707 0)
(1.21385 0.0921678 0)
(1.26382 -0.0719537 0)
(1.17345 -0.131132 0)
(1.1271 -0.111013 0)
(1.09364 -0.0597501 0)
(1.09358 -0.0160102 0)
(1.09902 -0.00155274 0)
(1.09993 -7.30148e-05 0)
(1.09822 1.14951e-05 0)
(1.05338 0.231404 0)
(1.19523 0.102221 0)
(1.24514 -0.046102 0)
(1.17146 -0.107438 0)
(1.12848 -0.0918704 0)
(1.09827 -0.0503747 0)
(1.09584 -0.0132677 0)
(1.09937 -0.00121016 0)
(1.09995 -5.98552e-05 0)
(1.09821 1.22968e-05 0)
(1.04183 0.232548 0)
(1.17374 0.115177 0)
(1.23063 -0.0251272 0)
(1.17604 -0.0910056 0)
(1.13288 -0.0787816 0)
(1.10393 -0.0439332 0)
(1.09808 -0.0111185 0)
(1.09967 -0.000923491 0)
(1.09997 -4.81667e-05 0)
(1.09821 1.30008e-05 0)
(1.03058 0.233412 0)
(1.15836 0.125022 0)
(1.21391 -0.00421412 0)
(1.17437 -0.0688038 0)
(1.13274 -0.061747 0)
(1.10713 -0.0348263 0)
(1.09973 -0.00854473 0)
(1.09988 -0.000641296 0)
(1.09998 -3.55936e-05 0)
(1.09821 1.23957e-05 0)
(1.02158 0.232858 0)
(1.14091 0.135772 0)
(1.20005 0.0140581 0)
(1.17563 -0.0539856 0)
(1.13574 -0.0502641 0)
(1.11087 -0.0274317 0)
(1.10122 -0.00620068 0)
(1.10004 -0.000406754 0)
(1.1 -2.0117e-05 0)
(1.0982 7.62465e-06 0)
(1.01426 0.23238 0)
(1.12882 0.142854 0)
(1.18624 0.0313899 0)
(1.16909 -0.0346071 0)
(1.13408 -0.0353123 0)
(1.11227 -0.0184913 0)
(1.10221 -0.00389858 0)
(1.10015 -0.000238143 0)
(1.1 -6.45899e-06 0)
(1.0982 2.07923e-06 0)
(1.00605 0.23577 0)
(1.11223 0.152302 0)
(1.16901 0.0489517 0)
(1.16676 -0.0199623 0)
(1.13675 -0.0259821 0)
(1.11471 -0.0123228 0)
(1.10293 -0.00201523 0)
(1.10021 -5.83491e-05 0)
(1.10001 4.80363e-07 0)
(1.0982 4.24156e-07 0)
(0.273744 0.117889 0)
(0.275308 0.1228 0)
(0.273026 0.131347 0)
(0.292337 0.145036 0)
(0.339977 0.174345 0)
(0.415363 0.216376 0)
(0.50661 0.26936 0)
(0.599863 0.326878 0)
(0.715169 0.37632 0)
(0.876583 0.425162 0)
(0.309297 0.125963 0)
(0.311286 0.124857 0)
(0.313209 0.121164 0)
(0.340259 0.125194 0)
(0.392176 0.150479 0)
(0.463743 0.196437 0)
(0.541809 0.252899 0)
(0.623232 0.309663 0)
(0.722402 0.364699 0)
(0.871183 0.410266 0)
(0.375903 0.156892 0)
(0.376973 0.151502 0)
(0.379487 0.140582 0)
(0.408705 0.136836 0)
(0.456055 0.154947 0)
(0.515371 0.194825 0)
(0.57594 0.24751 0)
(0.650784 0.295316 0)
(0.74301 0.348892 0)
(0.892466 0.381469 0)
(0.460784 0.196263 0)
(0.463045 0.185763 0)
(0.461757 0.165885 0)
(0.486289 0.152955 0)
(0.522417 0.164453 0)
(0.566857 0.199943 0)
(0.614394 0.248641 0)
(0.683467 0.292858 0)
(0.771964 0.343051 0)
(0.909546 0.361296 0)
(0.537336 0.233666 0)
(0.536956 0.218283 0)
(0.531148 0.187469 0)
(0.549484 0.165089 0)
(0.577132 0.172179 0)
(0.611274 0.205747 0)
(0.654767 0.250201 0)
(0.717009 0.289912 0)
(0.799287 0.332857 0)
(0.926323 0.347538 0)
(0.596796 0.25847 0)
(0.584819 0.240138 0)
(0.577233 0.206497 0)
(0.590712 0.181672 0)
(0.616033 0.185341 0)
(0.646576 0.214784 0)
(0.690981 0.253132 0)
(0.747017 0.28948 0)
(0.822397 0.326727 0)
(0.93912 0.335432 0)
(0.633918 0.285582 0)
(0.611503 0.263776 0)
(0.607329 0.225444 0)
(0.622597 0.19452 0)
(0.650626 0.194061 0)
(0.679996 0.219982 0)
(0.721802 0.253728 0)
(0.770257 0.286967 0)
(0.839116 0.320596 0)
(0.948865 0.326761 0)
(0.664026 0.298687 0)
(0.637684 0.275726 0)
(0.641538 0.233365 0)
(0.661944 0.200739 0)
(0.687724 0.205209 0)
(0.714504 0.228848 0)
(0.747257 0.258871 0)
(0.788935 0.287485 0)
(0.85162 0.315256 0)
(0.95285 0.319158 0)
(0.702948 0.311537 0)
(0.680769 0.286135 0)
(0.691513 0.239938 0)
(0.709913 0.217754 0)
(0.727282 0.22392 0)
(0.745739 0.240248 0)
(0.767018 0.265491 0)
(0.802992 0.288755 0)
(0.860618 0.310273 0)
(0.952962 0.312184 0)
(0.771843 0.33591 0)
(0.748903 0.303287 0)
(0.757651 0.260168 0)
(0.755049 0.243117 0)
(0.754326 0.246788 0)
(0.761883 0.259564 0)
(0.778414 0.275952 0)
(0.811818 0.291136 0)
(0.865036 0.30551 0)
(0.949583 0.305078 0)
(0.868921 0.343413 0)
(0.811006 0.320148 0)
(0.795126 0.290798 0)
(0.777609 0.280326 0)
(0.761343 0.281429 0)
(0.761419 0.281879 0)
(0.780285 0.286813 0)
(0.814509 0.293639 0)
(0.866902 0.3009 0)
(0.945271 0.297629 0)
(0.942464 0.33778 0)
(0.830886 0.359332 0)
(0.788214 0.342298 0)
(0.762089 0.318746 0)
(0.747089 0.300575 0)
(0.753077 0.294367 0)
(0.777005 0.292981 0)
(0.814092 0.294789 0)
(0.8668 0.295915 0)
(0.941546 0.290646 0)
(0.955143 0.336807 0)
(0.80363 0.382925 0)
(0.744496 0.354793 0)
(0.729146 0.321183 0)
(0.728654 0.299527 0)
(0.741618 0.295484 0)
(0.770641 0.293597 0)
(0.812327 0.292265 0)
(0.865671 0.29039 0)
(0.937142 0.284635 0)
(0.94114 0.251109 0)
(0.807799 0.30731 0)
(0.726969 0.312319 0)
(0.714409 0.29553 0)
(0.719022 0.287932 0)
(0.732376 0.289878 0)
(0.763621 0.2913 0)
(0.809283 0.288592 0)
(0.863971 0.285175 0)
(0.932938 0.279648 0)
(0.987335 0.110018 0)
(0.903056 0.171209 0)
(0.758052 0.251215 0)
(0.690092 0.288412 0)
(0.697298 0.291058 0)
(0.721928 0.286562 0)
(0.759751 0.283881 0)
(0.807286 0.283601 0)
(0.862813 0.280559 0)
(0.929202 0.276103 0)
(1.03345 0.0269101 0)
(0.990719 0.0515192 0)
(0.890537 0.128617 0)
(0.745137 0.229224 0)
(0.697803 0.273166 0)
(0.720728 0.274146 0)
(0.759004 0.279132 0)
(0.808531 0.279708 0)
(0.862028 0.276891 0)
(0.924877 0.273272 0)
(1.04433 0.0117447 0)
(1.00501 0.0103856 0)
(0.983048 0.028301 0)
(0.875586 0.119582 0)
(0.741421 0.22877 0)
(0.720118 0.26905 0)
(0.756234 0.278912 0)
(0.806898 0.279211 0)
(0.861574 0.274339 0)
(0.921179 0.270311 0)
(1.04103 0.00703516 0)
(1.0031 0.00447945 0)
(0.990947 0.00415491 0)
(0.977417 0.0212525 0)
(0.86569 0.130036 0)
(0.754352 0.23727 0)
(0.762615 0.273212 0)
(0.8072 0.279542 0)
(0.861491 0.271973 0)
(0.91746 0.267267 0)
(1.03652 0.00264018 0)
(0.999859 0.00135951 0)
(0.989625 0.000563094 0)
(0.99073 0.000382797 0)
(0.976995 0.0257843 0)
(0.863849 0.153654 0)
(0.783525 0.253748 0)
(0.813373 0.276797 0)
(0.862241 0.273079 0)
(0.914642 0.265717 0)
(1.03466 0.000131984 0)
(0.998781 -0.000159215 0)
(0.989399 -0.000282846 0)
(0.990313 -0.000272389 0)
(0.996331 -0.00180984 0)
(0.980625 0.039754 0)
(0.868388 0.179747 0)
(0.827932 0.263618 0)
(0.864836 0.271176 0)
(0.914173 0.267927 0)
(3 1.21669e-14 0)
(2.99997 6.41869e-15 0)
(2.99751 -2.77209e-11 0)
(2.91819 9.17131e-09 0)
(2.44183 -2.56632e-07 0)
(2.09345 1.1371e-06 0)
(2.04946 5.91476e-06 0)
(1.9887 -0.000103492 0)
(1.77466 0.000109747 0)
(0.933387 0.0169779 0)
(3 2.50378e-14 0)
(2.99997 -5.59078e-14 0)
(2.99751 -1.84263e-10 0)
(2.91819 4.44782e-08 0)
(2.44183 -1.01427e-06 0)
(2.09346 4.98169e-06 0)
(2.04943 -6.65501e-07 0)
(1.98901 -6.18489e-05 0)
(1.77205 -0.000809757 0)
(0.953203 0.0545255 0)
(3 -2.11058e-14 0)
(2.99997 -4.19632e-12 0)
(2.99751 5.92451e-10 0)
(2.91819 2.19656e-09 0)
(2.44183 -5.76788e-07 0)
(2.09348 5.98701e-06 0)
(2.04938 8.19172e-06 0)
(1.98983 -0.000171345 0)
(1.76661 -0.00349162 0)
(0.994435 0.0819153 0)
(3 9.33003e-15 0)
(2.99997 -1.14685e-11 0)
(2.99751 2.21183e-09 0)
(2.91819 -8.84409e-08 0)
(2.44182 -3.16464e-07 0)
(2.0935 5.42114e-06 0)
(2.04931 2.63893e-05 0)
(1.99074 -0.000359415 0)
(1.75928 -0.00410033 0)
(1.04412 0.103514 0)
(3 7.09555e-15 0)
(2.99997 -1.98294e-11 0)
(2.99751 4.16746e-09 0)
(2.91819 -2.25166e-07 0)
(2.44182 9.29259e-07 0)
(2.09353 3.00232e-06 0)
(2.04925 5.08798e-05 0)
(1.99145 -0.000442996 0)
(1.7527 -0.006676 0)
(1.09566 0.115569 0)
(3 -1.48356e-14 0)
(2.99997 -2.38772e-11 0)
(2.99751 5.22072e-09 0)
(2.91819 -3.14865e-07 0)
(2.44182 2.07734e-06 0)
(2.09354 -1.23554e-06 0)
(2.04921 6.42915e-05 0)
(1.99163 -0.000340486 0)
(1.74911 -0.00999482 0)
(1.14261 0.119808 0)
(3 -3.81294e-14 0)
(2.99997 -2.22876e-11 0)
(2.99751 4.99049e-09 0)
(2.91819 -3.22492e-07 0)
(2.44182 2.31433e-06 0)
(2.09354 -3.42363e-06 0)
(2.04921 3.85379e-05 0)
(1.9915 0.000310345 0)
(1.74944 -0.0166937 0)
(1.17766 0.122169 0)
(3 -5.84016e-15 0)
(2.99997 -1.71922e-11 0)
(2.99751 3.8775e-09 0)
(2.91819 -2.66858e-07 0)
(2.44182 2.08959e-06 0)
(2.09354 -4.0296e-06 0)
(2.04922 5.10976e-07 0)
(1.99127 0.00100044 0)
(1.75152 -0.0243505 0)
(1.20246 0.11959 0)
(3 7.36984e-15 0)
(2.99997 -1.01093e-11 0)
(2.99751 2.25606e-09 0)
(2.91819 -1.74441e-07 0)
(2.44183 1.76116e-06 0)
(2.09352 -4.01504e-06 0)
(2.04925 -4.24533e-05 0)
(1.99088 0.00194912 0)
(1.7542 -0.0300994 0)
(1.22196 0.111411 0)
(3 -2.08256e-15 0)
(2.99997 -3.61227e-12 0)
(2.99751 8.18756e-10 0)
(2.91819 -8.13478e-08 0)
(2.44183 1.07939e-06 0)
(2.0935 -2.98525e-06 0)
(2.04928 -8.67994e-05 0)
(1.99063 0.00250329 0)
(1.75579 -0.0293055 0)
(1.22794 0.0974938 0)
(3 3.30363e-14 0)
(2.99997 8.09493e-13 0)
(2.99751 -2.02762e-10 0)
(2.91819 -9.84315e-09 0)
(2.44183 4.08121e-07 0)
(2.09349 -1.33363e-06 0)
(2.0493 -0.000108267 0)
(1.99055 0.00239048 0)
(1.75774 -0.0254768 0)
(1.23236 0.0688494 0)
(3 5.17168e-14 0)
(2.99997 3.10997e-12 0)
(2.99751 -7.7121e-10 0)
(2.91819 3.98715e-08 0)
(2.44183 -7.46495e-08 0)
(2.09349 -2.2983e-07 0)
(2.04931 -0.000102173 0)
(1.99047 0.00207597 0)
(1.75891 -0.0206359 0)
(1.25028 0.030858 0)
(3 2.43684e-15 0)
(2.99997 3.66022e-12 0)
(2.99751 -9.03198e-10 0)
(2.91819 5.69239e-08 0)
(2.44183 -3.73428e-07 0)
(2.09349 1.74236e-07 0)
(2.04932 -8.90279e-05 0)
(1.99036 0.0017443 0)
(1.7572 -0.0155984 0)
(1.29118 0.00582297 0)
(3 -5.23367e-14 0)
(2.99997 3.4275e-12 0)
(2.99751 -8.48038e-10 0)
(2.91819 5.53199e-08 0)
(2.44183 -4.19918e-07 0)
(2.09349 3.50556e-07 0)
(2.04932 -7.4423e-05 0)
(1.99032 0.00143085 0)
(1.75615 -0.0124087 0)
(1.3235 0.00706037 0)
(3 6.31049e-15 0)
(2.99997 3.0899e-12 0)
(2.99751 -7.4739e-10 0)
(2.91819 5.00527e-08 0)
(2.44183 -3.97683e-07 0)
(2.09349 4.65942e-07 0)
(2.04932 -5.96575e-05 0)
(1.99036 0.00113445 0)
(1.75515 -0.0099276 0)
(1.33569 0.0147526 0)
(3 -8.69365e-15 0)
(2.99997 2.49532e-12 0)
(2.99751 -6.06802e-10 0)
(2.91819 4.13286e-08 0)
(2.44183 -3.27662e-07 0)
(2.09349 4.68946e-07 0)
(2.04932 -4.75208e-05 0)
(1.99036 0.000906252 0)
(1.75464 -0.00808844 0)
(1.33928 0.0164001 0)
(3 -1.21173e-14 0)
(2.99997 1.67474e-12 0)
(2.99751 -4.52524e-10 0)
(2.91819 3.21139e-08 0)
(2.44183 -2.61856e-07 0)
(2.09349 5.32014e-07 0)
(2.04932 -3.51834e-05 0)
(1.99043 0.000656923 0)
(1.75384 -0.00587211 0)
(1.34151 0.0141216 0)
(3 2.51413e-15 0)
(2.99997 1.04357e-12 0)
(2.99751 -2.96381e-10 0)
(2.91819 2.23397e-08 0)
(2.44183 -1.92499e-07 0)
(2.09349 4.75109e-07 0)
(2.04931 -2.37849e-05 0)
(1.99047 0.000429321 0)
(1.7532 -0.00363672 0)
(1.34354 0.00946371 0)
(3 -2.12377e-14 0)
(2.99997 6.1872e-13 0)
(2.99751 -1.60034e-10 0)
(2.91819 1.33232e-08 0)
(2.44183 -1.39518e-07 0)
(2.09349 3.59609e-07 0)
(2.04931 -1.31042e-05 0)
(1.99051 0.000214197 0)
(1.75277 -0.00153353 0)
(1.34494 0.00374168 0)
(3 -1.86216e-14 0)
(2.99997 2.38602e-13 0)
(2.99751 -6.56974e-11 0)
(2.91819 6.1647e-09 0)
(2.44183 -6.89269e-08 0)
(2.09349 1.73129e-07 0)
(2.04931 -4.85711e-06 0)
(1.99053 6.16532e-05 0)
(1.75261 -0.000310465 0)
(1.34539 0.000694702 0)
(3 -6.69569e-14 0)
(2.99997 -2.45918e-13 0)
(2.99751 6.56373e-11 0)
(2.91819 -6.16381e-09 0)
(2.44183 6.89298e-08 0)
(2.09349 -1.73183e-07 0)
(2.04931 4.85708e-06 0)
(1.99053 -6.1659e-05 0)
(1.75261 0.000310502 0)
(1.34538 -0.000694075 0)
(3 -2.07382e-14 0)
(2.99997 -5.61733e-13 0)
(2.99751 1.60187e-10 0)
(2.91819 -1.33232e-08 0)
(2.44183 1.39507e-07 0)
(2.09349 -3.59586e-07 0)
(2.04931 1.31042e-05 0)
(1.99051 -0.000214201 0)
(1.75277 0.00153367 0)
(1.34494 -0.00374209 0)
(3 8.3812e-14 0)
(2.99997 -9.96942e-13 0)
(2.99751 2.96456e-10 0)
(2.91819 -2.23405e-08 0)
(2.44183 1.92513e-07 0)
(2.09349 -4.75102e-07 0)
(2.04931 2.37852e-05 0)
(1.99047 -0.000429324 0)
(1.7532 0.00363668 0)
(1.34354 -0.00946359 0)
(3 7.58671e-14 0)
(2.99997 -1.71282e-12 0)
(2.99751 4.52561e-10 0)
(2.91819 -3.21153e-08 0)
(2.44183 2.61874e-07 0)
(2.09349 -5.32007e-07 0)
(2.04932 3.51845e-05 0)
(1.99043 -0.000656941 0)
(1.75384 0.00587225 0)
(1.34151 -0.0141222 0)
(3 1.32178e-14 0)
(2.99997 -2.4383e-12 0)
(2.99751 6.06919e-10 0)
(2.91819 -4.13307e-08 0)
(2.44183 3.27673e-07 0)
(2.09349 -4.68922e-07 0)
(2.04932 4.75226e-05 0)
(1.99036 -0.000906284 0)
(1.75464 0.00808877 0)
(1.33928 -0.0164014 0)
(3 -4.00425e-14 0)
(2.99997 -3.12889e-12 0)
(2.99751 7.47456e-10 0)
(2.91819 -5.00555e-08 0)
(2.44183 3.97707e-07 0)
(2.09349 -4.65958e-07 0)
(2.04932 5.96599e-05 0)
(1.99036 -0.00113449 0)
(1.75515 0.00992797 0)
(1.33568 -0.0147547 0)
(3 -7.32913e-14 0)
(2.99997 -3.64816e-12 0)
(2.99751 8.47851e-10 0)
(2.91819 -5.53226e-08 0)
(2.44183 4.19937e-07 0)
(2.09349 -3.50546e-07 0)
(2.04932 7.44261e-05 0)
(1.99032 -0.0014309 0)
(1.75615 0.0124092 0)
(1.3235 -0.00706257 0)
(3 -3.11157e-14 0)
(2.99997 -3.74378e-12 0)
(2.99751 9.03044e-10 0)
(2.91819 -5.69252e-08 0)
(2.44183 3.7343e-07 0)
(2.09349 -1.74205e-07 0)
(2.04932 8.90308e-05 0)
(1.99036 -0.00174435 0)
(1.7572 0.0155988 0)
(1.29117 -0.00582335 0)
(3 4.31032e-15 0)
(2.99997 -3.02955e-12 0)
(2.99751 7.71259e-10 0)
(2.91819 -3.98703e-08 0)
(2.44183 7.46512e-08 0)
(2.09349 2.29866e-07 0)
(2.04931 0.000102176 0)
(1.99047 -0.00207603 0)
(1.75891 0.0206364 0)
(1.25028 -0.030859 0)
(3 -2.10903e-14 0)
(2.99997 -7.76802e-13 0)
(2.99751 2.02866e-10 0)
(2.91819 9.84051e-09 0)
(2.44183 -4.08089e-07 0)
(2.09349 1.33359e-06 0)
(2.0493 0.00010827 0)
(1.99055 -0.00239054 0)
(1.75774 0.0254773 0)
(1.23236 -0.068851 0)
(3 -2.78851e-14 0)
(2.99997 3.57816e-12 0)
(2.99751 -8.18653e-10 0)
(2.91819 8.1341e-08 0)
(2.44183 -1.07933e-06 0)
(2.0935 2.98515e-06 0)
(2.04928 8.68021e-05 0)
(1.99063 -0.00250333 0)
(1.75579 0.029306 0)
(1.22794 -0.097495 0)
(3 4.57262e-15 0)
(2.99997 1.01168e-11 0)
(2.99751 -2.25592e-09 0)
(2.91819 1.74431e-07 0)
(2.44183 -1.76107e-06 0)
(2.09352 4.01493e-06 0)
(2.04925 4.24559e-05 0)
(1.99088 -0.00194916 0)
(1.7542 0.0300998 0)
(1.22196 -0.111412 0)
(3 7.41113e-15 0)
(2.99997 1.71843e-11 0)
(2.99751 -3.87727e-09 0)
(2.91819 2.66844e-07 0)
(2.44182 -2.08951e-06 0)
(2.09354 4.02952e-06 0)
(2.04922 -5.08929e-07 0)
(1.99127 -0.00100048 0)
(1.75152 0.0243508 0)
(1.20246 -0.11959 0)
(3 -4.88765e-14 0)
(2.99997 2.22912e-11 0)
(2.99751 -4.99009e-09 0)
(2.91819 3.22484e-07 0)
(2.44182 -2.31429e-06 0)
(2.09354 3.42354e-06 0)
(2.04921 -3.85368e-05 0)
(1.9915 -0.000310364 0)
(1.74944 0.0166938 0)
(1.17766 -0.12217 0)
(3 -3.70895e-14 0)
(2.99997 2.39303e-11 0)
(2.99751 -5.22008e-09 0)
(2.91819 3.14861e-07 0)
(2.44182 -2.07734e-06 0)
(2.09354 1.23556e-06 0)
(2.04921 -6.4291e-05 0)
(1.99163 0.000340479 0)
(1.74911 0.00999488 0)
(1.14261 -0.119808 0)
(3 5.40395e-14 0)
(2.99997 1.97887e-11 0)
(2.99751 -4.16715e-09 0)
(2.91819 2.25166e-07 0)
(2.44182 -9.29284e-07 0)
(2.09353 -3.00225e-06 0)
(2.04925 -5.08796e-05 0)
(1.99145 0.000442991 0)
(1.7527 0.00667601 0)
(1.09566 -0.115569 0)
(3 4.53445e-14 0)
(2.99997 1.13642e-11 0)
(2.99751 -2.2115e-09 0)
(2.91819 8.84467e-08 0)
(2.44182 3.16443e-07 0)
(2.0935 -5.42113e-06 0)
(2.04931 -2.63892e-05 0)
(1.99074 0.000359413 0)
(1.75928 0.00410033 0)
(1.04412 -0.103514 0)
(3 -3.03381e-14 0)
(2.99997 4.04897e-12 0)
(2.99751 -5.93208e-10 0)
(2.91819 -2.18897e-09 0)
(2.44183 5.76796e-07 0)
(2.09348 -5.98702e-06 0)
(2.04938 -8.19175e-06 0)
(1.98983 0.000171346 0)
(1.76661 0.00349162 0)
(0.994435 -0.0819153 0)
(3 3.54875e-14 0)
(2.99997 1.68615e-13 0)
(2.99751 1.83757e-10 0)
(2.91819 -4.44658e-08 0)
(2.44183 1.01426e-06 0)
(2.09346 -4.98167e-06 0)
(2.04943 6.65358e-07 0)
(1.98901 6.185e-05 0)
(1.77205 0.000809747 0)
(0.953203 -0.0545255 0)
(3 4.89926e-14 0)
(2.99997 1.97117e-13 0)
(2.99751 2.72113e-11 0)
(2.91819 -9.17658e-09 0)
(2.44183 2.56571e-07 0)
(2.09345 -1.13708e-06 0)
(2.04946 -5.91489e-06 0)
(1.9887 0.000103491 0)
(1.77466 -0.000109738 0)
(0.933387 -0.0169779 0)
(1.03466 -0.000136713 0)
(0.998784 0.000155135 0)
(0.9894 0.000278648 0)
(0.990313 0.000269145 0)
(0.99633 0.00180752 0)
(0.980623 -0.0397552 0)
(0.868386 -0.179747 0)
(0.82793 -0.263618 0)
(0.864836 -0.271177 0)
(0.914174 -0.267927 0)
(1.03652 -0.00264134 0)
(0.999864 -0.00136106 0)
(0.989626 -0.00056472 0)
(0.99073 -0.000384644 0)
(0.976994 -0.0257859 0)
(0.863847 -0.153655 0)
(0.783522 -0.253748 0)
(0.813371 -0.276797 0)
(0.862241 -0.273079 0)
(0.914643 -0.265717 0)
(1.04104 -0.00703256 0)
(1.00311 -0.00447695 0)
(0.99095 -0.00415332 0)
(0.977417 -0.0212515 0)
(0.865689 -0.130036 0)
(0.754348 -0.237271 0)
(0.762612 -0.273212 0)
(0.807198 -0.279542 0)
(0.861491 -0.271974 0)
(0.917461 -0.267267 0)
(1.04433 -0.0117449 0)
(1.00501 -0.0103854 0)
(0.98305 -0.0283009 0)
(0.875588 -0.11958 0)
(0.74142 -0.228768 0)
(0.720115 -0.26905 0)
(0.756231 -0.278912 0)
(0.806896 -0.279212 0)
(0.861573 -0.27434 0)
(0.921179 -0.270311 0)
(1.03345 -0.026909 0)
(0.990721 -0.051518 0)
(0.89054 -0.128615 0)
(0.745137 -0.229222 0)
(0.697801 -0.273165 0)
(0.720725 -0.274145 0)
(0.759002 -0.279132 0)
(0.80853 -0.279709 0)
(0.862028 -0.276892 0)
(0.924878 -0.273272 0)
(0.987337 -0.110014 0)
(0.903058 -0.171206 0)
(0.758052 -0.251213 0)
(0.69009 -0.28841 0)
(0.697296 -0.291057 0)
(0.721926 -0.286561 0)
(0.759749 -0.283881 0)
(0.807284 -0.283601 0)
(0.862813 -0.280559 0)
(0.929203 -0.276103 0)
(0.941137 -0.251111 0)
(0.807797 -0.30731 0)
(0.726968 -0.312318 0)
(0.714407 -0.295529 0)
(0.71902 -0.287931 0)
(0.732375 -0.289878 0)
(0.763619 -0.2913 0)
(0.809282 -0.288592 0)
(0.863972 -0.285175 0)
(0.932939 -0.279648 0)
(0.955138 -0.33681 0)
(0.803626 -0.382926 0)
(0.744494 -0.354792 0)
(0.729144 -0.321182 0)
(0.728653 -0.299526 0)
(0.741617 -0.295484 0)
(0.770641 -0.293597 0)
(0.812327 -0.292265 0)
(0.865672 -0.29039 0)
(0.937143 -0.284635 0)
(0.94246 -0.337782 0)
(0.830882 -0.359333 0)
(0.788211 -0.342297 0)
(0.762088 -0.318744 0)
(0.747089 -0.300574 0)
(0.753077 -0.294366 0)
(0.777005 -0.29298 0)
(0.814092 -0.294789 0)
(0.866801 -0.295915 0)
(0.941547 -0.290645 0)
(0.868917 -0.343416 0)
(0.811002 -0.320149 0)
(0.795122 -0.290798 0)
(0.777607 -0.280324 0)
(0.761343 -0.281428 0)
(0.761419 -0.281879 0)
(0.780285 -0.286812 0)
(0.814509 -0.293638 0)
(0.866903 -0.300899 0)
(0.945273 -0.297627 0)
(0.77184 -0.335911 0)
(0.748899 -0.303288 0)
(0.757648 -0.260168 0)
(0.755047 -0.243116 0)
(0.754325 -0.246787 0)
(0.761882 -0.259564 0)
(0.778413 -0.275952 0)
(0.811818 -0.291135 0)
(0.865037 -0.305509 0)
(0.949584 -0.305077 0)
(0.702947 -0.311538 0)
(0.680767 -0.286136 0)
(0.691511 -0.239939 0)
(0.709911 -0.217754 0)
(0.727281 -0.223918 0)
(0.745738 -0.240247 0)
(0.767019 -0.26549 0)
(0.802993 -0.288754 0)
(0.860619 -0.310272 0)
(0.952964 -0.312182 0)
(0.664025 -0.298688 0)
(0.637683 -0.275726 0)
(0.641536 -0.233365 0)
(0.661942 -0.200739 0)
(0.687723 -0.205209 0)
(0.714503 -0.228847 0)
(0.747257 -0.25887 0)
(0.788936 -0.287483 0)
(0.851621 -0.315254 0)
(0.952851 -0.319157 0)
(0.633918 -0.285583 0)
(0.611502 -0.263777 0)
(0.607329 -0.225444 0)
(0.622596 -0.19452 0)
(0.650625 -0.19406 0)
(0.679996 -0.219981 0)
(0.721803 -0.253726 0)
(0.770257 -0.286966 0)
(0.839117 -0.320595 0)
(0.948866 -0.32676 0)
(0.596796 -0.25847 0)
(0.584819 -0.240138 0)
(0.577232 -0.206497 0)
(0.590712 -0.181672 0)
(0.616033 -0.18534 0)
(0.646576 -0.214783 0)
(0.690981 -0.253131 0)
(0.747018 -0.289479 0)
(0.822398 -0.326726 0)
(0.93912 -0.335432 0)
(0.537336 -0.233666 0)
(0.536956 -0.218283 0)
(0.531148 -0.187469 0)
(0.549484 -0.165089 0)
(0.577132 -0.172178 0)
(0.611274 -0.205746 0)
(0.654767 -0.2502 0)
(0.717009 -0.289911 0)
(0.799287 -0.332857 0)
(0.926323 -0.347538 0)
(0.460785 -0.196263 0)
(0.463045 -0.185763 0)
(0.461757 -0.165885 0)
(0.486289 -0.152955 0)
(0.522417 -0.164453 0)
(0.566857 -0.199943 0)
(0.614394 -0.248641 0)
(0.683468 -0.292858 0)
(0.771964 -0.343051 0)
(0.909546 -0.361295 0)
(0.375903 -0.156892 0)
(0.376973 -0.151502 0)
(0.379487 -0.140582 0)
(0.408705 -0.136836 0)
(0.456055 -0.154947 0)
(0.515371 -0.194825 0)
(0.57594 -0.247511 0)
(0.650784 -0.295316 0)
(0.74301 -0.348892 0)
(0.892466 -0.381469 0)
(0.309297 -0.125963 0)
(0.311286 -0.124857 0)
(0.313209 -0.121164 0)
(0.340259 -0.125194 0)
(0.392176 -0.150479 0)
(0.463743 -0.196437 0)
(0.541809 -0.252899 0)
(0.623232 -0.309663 0)
(0.722402 -0.3647 0)
(0.871183 -0.410266 0)
(0.273744 -0.117889 0)
(0.275308 -0.1228 0)
(0.273026 -0.131347 0)
(0.292337 -0.145036 0)
(0.339977 -0.174345 0)
(0.415363 -0.216376 0)
(0.50661 -0.26936 0)
(0.599863 -0.326878 0)
(0.715169 -0.37632 0)
(0.876583 -0.425162 0)
(1.00605 -0.23577 0)
(1.11223 -0.152302 0)
(1.16901 -0.0489517 0)
(1.16676 0.0199623 0)
(1.13675 0.0259821 0)
(1.11471 0.0123228 0)
(1.10293 0.00201523 0)
(1.10021 5.83491e-05 0)
(1.10001 -4.80363e-07 0)
(1.0982 -4.24156e-07 0)
(1.01426 -0.23238 0)
(1.12882 -0.142855 0)
(1.18624 -0.0313899 0)
(1.16909 0.0346071 0)
(1.13408 0.0353123 0)
(1.11227 0.0184913 0)
(1.10221 0.00389858 0)
(1.10015 0.000238143 0)
(1.1 6.45899e-06 0)
(1.0982 -2.07923e-06 0)
(1.02158 -0.232858 0)
(1.14091 -0.135772 0)
(1.20005 -0.0140581 0)
(1.17563 0.0539856 0)
(1.13574 0.0502641 0)
(1.11087 0.0274317 0)
(1.10122 0.00620068 0)
(1.10004 0.000406754 0)
(1.1 2.0117e-05 0)
(1.0982 -7.62465e-06 0)
(1.03058 -0.233412 0)
(1.15836 -0.125022 0)
(1.21391 0.00421412 0)
(1.17437 0.0688038 0)
(1.13274 0.061747 0)
(1.10713 0.0348263 0)
(1.09973 0.00854473 0)
(1.09988 0.000641296 0)
(1.09998 3.55936e-05 0)
(1.09821 -1.23957e-05 0)
(1.04183 -0.232548 0)
(1.17374 -0.115177 0)
(1.23063 0.0251272 0)
(1.17604 0.0910056 0)
(1.13288 0.0787816 0)
(1.10393 0.0439332 0)
(1.09808 0.0111185 0)
(1.09967 0.000923491 0)
(1.09997 4.81667e-05 0)
(1.09821 -1.30008e-05 0)
(1.05339 -0.231403 0)
(1.19523 -0.102221 0)
(1.24514 0.046102 0)
(1.17146 0.107438 0)
(1.12848 0.0918704 0)
(1.09827 0.0503747 0)
(1.09584 0.0132677 0)
(1.09937 0.00121016 0)
(1.09995 5.98552e-05 0)
(1.09821 -1.22968e-05 0)
(1.06768 -0.229706 0)
(1.21385 -0.0921678 0)
(1.26382 0.0719537 0)
(1.17345 0.131132 0)
(1.1271 0.111013 0)
(1.09364 0.0597501 0)
(1.09358 0.0160102 0)
(1.09902 0.00155274 0)
(1.09993 7.30148e-05 0)
(1.09822 -1.14951e-05 0)
(1.08204 -0.22859 0)
(1.2411 -0.0762196 0)
(1.27703 0.0977822 0)
(1.17219 0.14981 0)
(1.1188 0.123336 0)
(1.08624 0.0658725 0)
(1.09071 0.018213 0)
(1.09858 0.0018808 0)