/*--------------------------------*- C++ -*----------------------------------*\
  =========                 |
  \\      /  F ield         | OpenFOAM: The Open Source CFD Toolbox
   \\    /   O peration     | Website:  https://openfoam.org
    \\  /    A nd           | Version:  8
     \\/     M anipulation  |
\*---------------------------------------------------------------------------*/
FoamFile
{
    version     2.0;
    format      ascii;
    class       volVectorField;
    location    "1";
    object      U;
}
// * * * * * * * * * * * * * * * * * * * * * * * * * * * * * * * * * * * * * //

dimensions      [0 1 -1 0 0 0 0];

internalField   nonuniform List<vector> 
325
(
(1.53605 0.370945 0)
(2.26647 0.37581 0)
(2.47075 0.238442 0)
(0.624138 -0.00673398 0)
(1.80347 0.245192 0)
(2.28999 0.215437 0)
(0.190091 -0.00651988 0)
(1.20857 0.200674 0)
(1.92329 0.165146 0)
(0.0381131 -0.0816927 0)
(0.686384 0.0609702 0)
(1.42553 0.115764 0)
(-0.0667596 -0.0648309 0)
(0.287789 0.040932 0)
(0.903586 0.0674291 0)
(-0.147231 -0.0631593 0)
(0.0253782 0.0223905 0)
(0.441681 0.0354576 0)
(-0.197974 -0.0391436 0)
(-0.142247 0.0102684 0)
(0.0852692 0.00425068 0)
(-0.237047 -0.0308814 0)
(-0.248091 0.00391892 0)
(-0.155588 -0.00881506 0)
(-0.253912 -0.0162223 0)
(-0.304372 0.0134191 0)
(-0.284223 -0.0117542 0)
(-0.257162 -0.00276969 0)
(-0.32502 0.00606268 0)
(-0.325988 -0.00469504 0)
(-0.257123 0.00384354 0)
(-0.324902 -0.00449371 0)
(-0.32581 0.00729407 0)
(-0.232942 0.00513537 0)
(-0.253892 0.0173243 0)
(-0.304101 -0.0119556 0)
(-0.283451 0.0130133 0)
(-0.168794 0.00877241 0)
(-0.237052 0.0319963 0)
(-0.247644 -0.00246002 0)
(-0.153781 0.0114942 0)
(0.0372047 0.00586912 0)
(-0.198096 0.0404056 0)
(-0.141657 -0.00901976 0)
(0.0881268 -0.00316807 0)
(2.99912 -0.00176089 0)
(2.99908 -0.00182198 0)
(2.99865 -0.00264788 0)
(2.99844 -0.00278846 0)
(2.99888 -0.00219531 0)
(2.99876 -0.00248112 0)
(2.99794 -0.00293157 0)
(2.99959 -0.00370916 0)
(2.99855 -0.00280452 0)
(2.99834 -0.00310638 0)
(2.99825 -0.00431473 0)
(3.0314 0.00884114 0)
(2.99818 -0.00343302 0)
(2.99793 -0.00381045 0)
(2.9976 -0.00498449 0)
(3.03093 -0.140269 0)
(2.99756 -0.0046891 0)
(2.99734 -0.00496646 0)
(2.99642 -0.00841133 0)
(2.48982 -0.580287 0)
(2.99703 -0.00538027 0)
(2.99679 -0.00623014 0)
(3.00767 -0.0236518 0)
(2.01354 -0.786247 0)
(2.99636 -0.00633201 0)
(2.9956 -0.00839316 0)
(2.91346 -0.245027 0)
(1.83992 -0.860779 0)
(2.99562 -0.00781794 0)
(2.99497 -0.0187441 0)
(2.18307 -0.734176 0)
(1.6742 -0.922409 0)
(2.99438 -0.0104321 0)
(2.91254 -0.19381 0)
(1.8323 -0.851053 0)
(1.65447 -0.903151 0)
(2.99292 -0.0189945 0)
(2.1243 -0.731588 0)
(1.60986 -0.915718 0)
(1.64309 -0.909159 0)
(2.85196 -0.24213 0)
(1.74386 -0.851359 0)
(1.59008 -0.904089 0)
(1.64188 -0.904837 0)
(1.93994 -0.776155 0)
(1.54841 -0.900125 0)
(1.57768 -0.897319 0)
(1.63752 -0.896746 0)
(1.62101 -0.87246 0)
(1.53016 -0.895155 0)
(1.56483 -0.893683 0)
(1.63008 -0.892311 0)
(1.49538 -0.894547 0)
(1.5186 -0.897199 0)
(1.55418 -0.890374 0)
(1.62554 -0.886373 0)
(1.45088 -0.884177 0)
(1.48622 -0.880833 0)
(1.52755 -0.871779 0)
(1.61305 -0.874569 0)
(1.41113 -0.863119 0)
(1.42851 -0.868542 0)
(1.46899 -0.849841 0)
(1.57705 -0.855883 0)
(1.36728 -0.8346 0)
(1.37197 -0.83439 0)
(1.39454 -0.815318 0)
(1.51162 -0.840872 0)
(1.32471 -0.778949 0)
(1.32465 -0.789843 0)
(1.33665 -0.771659 0)
(1.45642 -0.799674 0)
(1.28383 -0.766995 0)
(1.28965 -0.773141 0)
(1.29975 -0.763264 0)
(1.40997 -0.79054 0)
(1.29137 -0.747627 0)
(1.29237 -0.747036 0)
(1.29839 -0.742342 0)
(1.39753 -0.756156 0)
(2.15203 -0.724514 0)
(2.07959 -0.723484 0)
(2.24871 -0.584814 0)
(2.07978 -0.796801 0)
(2.08513 -0.725809 0)
(2.28443 -0.544821 0)
(2.03061 -0.817129 0)
(2.10135 -0.734126 0)
(2.31297 -0.511203 0)
(1.97508 -0.827787 0)
(2.10769 -0.721505 0)
(2.36089 -0.457051 0)
(1.91565 -0.851964 0)
(2.12059 -0.706634 0)
(2.38706 -0.420938 0)
(1.89324 -0.855881 0)
(2.15107 -0.679623 0)
(2.42307 -0.377218 0)
(1.89538 -0.835824 0)
(2.201 -0.631982 0)
(2.46575 -0.319123 0)
(1.89819 -0.819663 0)
(2.22156 -0.609026 0)
(2.48646 -0.280522 0)
(1.92509 -0.794842 0)
(2.26765 -0.565792 0)
(2.52014 -0.219196 0)
(1.93751 -0.77187 0)
(2.28767 -0.536239 0)
(2.54386 -0.158233 0)
(1.95005 -0.749997 0)
(2.32339 -0.478147 0)
(2.55928 -0.111418 0)
(1.97615 -0.715417 0)
(2.35046 -0.424002 0)
(2.58678 -0.0209311 0)
(1.99021 -0.68452 0)
(2.38056 -0.352821 0)
(2.59112 0.0150629 0)
(2.01556 -0.641329 0)
(2.40766 -0.280686 0)
(2.61308 0.124653 0)
(2.03684 -0.591537 0)
(2.44317 -0.171896 0)
(2.61551 0.156729 0)
(2.06237 -0.517188 0)
(2.46711 -0.0945388 0)
(2.62368 0.230785 0)
(2.08052 -0.460732 0)
(2.52399 0.0536901 0)
(2.62332 0.249677 0)
(2.14538 -0.344195 0)
(2.5678 0.143579 0)
(2.61637 0.292595 0)
(2.2014 -0.223962 0)
(2.61396 0.301142 0)
(2.59144 0.284429 0)
(2.20152 0.0324906 0)
(2.54361 0.344461 0)
(2.5348 0.300139 0)
(2.99999 2.7465e-07 0)
(3.00004 1.22422e-05 0)
(2.99927 -0.00065046 0)
(2.99999 4.60681e-07 0)
(3.00004 3.54767e-05 0)
(2.99953 -0.00191854 0)
(2.99999 7.76954e-07 0)
(3.00005 5.64347e-05 0)
(2.99915 -0.00275566 0)
(3 8.99832e-07 0)
(3.00007 7.34993e-05 0)
(2.99837 -0.00326287 0)
(3 7.65852e-07 0)
(3.00011 8.07508e-05 0)
(2.99751 -0.00341868 0)
(3 6.04215e-07 0)
(3.00014 6.93621e-05 0)
(2.99753 -0.00357119 0)
(3 1.40483e-06 0)
(3.00015 2.95503e-05 0)
(3.00074 -0.0056389 0)
(2.99998 7.1709e-06 0)
(3.00012 -5.07442e-05 0)
(3.00626 -0.0218996 0)
(2.99999 1.12985e-05 0)
(2.99996 -0.000228666 0)
(3.01181 -0.0757485 0)
(3 1.40477e-05 0)
(2.99975 -0.00073233 0)
(2.97338 -0.199402 0)
(3.00002 1.54448e-05 0)
(2.9995 -0.00343131 0)
(2.83331 -0.36935 0)
(3.00004 3.89136e-05 0)
(3.00497 -0.0153451 0)
(2.64217 -0.522135 0)
(3.00014 8.30139e-05 0)
(3.03455 -0.0535202 0)
(2.45891 -0.631953 0)
(3.00041 0.000124351 0)
(3.01176 -0.177213 0)
(2.31201 -0.679193 0)
(3.00143 -0.000155073 0)
(2.81612 -0.398374 0)
(2.21715 -0.688437 0)
(3.01917 4.28214e-05 0)
(2.5799 -0.586781 0)
(2.16255 -0.681434 0)
(3.11577 -0.0113361 0)
(2.37686 -0.712213 0)
(2.14038 -0.659195 0)
(3.02214 -0.209383 0)
(2.17503 -0.745644 0)
(2.1481 -0.68281 0)
(2.60314 -0.475348 0)
(2.08835 -0.742356 0)
(2.15338 -0.667339 0)
(2.24526 -0.631683 0)
(2.07088 -0.732586 0)
(2.20486 -0.627215 0)
(3 8.40072e-08 0)
(3 7.80673e-08 0)
(3 1.01789e-07 0)
(3 1.00096e-07 0)
(3 1.2528e-07 0)
(3 8.6117e-08 0)
(3 1.44795e-07 0)
(3 8.36335e-08 0)
(3 1.11421e-07 0)
(3 4.87246e-08 0)
(3 1.62784e-07 0)
(3 7.57324e-08 0)
(3 1.00779e-08 0)
(3 -1.42153e-07 0)
(3 2.71225e-08 0)
(3 -2.56614e-07 0)
(3 -2.68446e-07 0)
(3 -5.32728e-07 0)
(3 -3.40516e-07 0)
(3 -9.77465e-07 0)
(3 -6.98125e-07 0)
(3 -1.084e-06 0)
(3 -9.74509e-07 0)
(3 -2.14646e-06 0)
(3 -1.48212e-06 0)
(3 -1.95711e-06 0)
(3 -2.20045e-06 0)
(3 -3.43677e-06 0)
(3 -2.84176e-06 0)
(3 -3.49563e-06 0)
(3 -4.18711e-06 0)
(3 -6.16338e-06 0)
(3 -4.96743e-06 0)
(3 -6.0805e-06 0)
(3 -7.2794e-06 0)
(2.99999 -1.05991e-05 0)
(3 -8.56718e-06 0)
(2.99999 -1.04083e-05 0)
(2.99999 -1.25275e-05 0)
(2.99999 -1.83359e-05 0)
(2.99999 -1.42366e-05 0)
(2.99999 -1.73604e-05 0)
(2.99999 -2.08396e-05 0)
(2.99998 -3.03776e-05 0)
(2.99999 -2.39203e-05 0)
(2.99999 -2.90949e-05 0)
(2.99998 -3.49638e-05 0)
(2.99997 -5.07692e-05 0)
(2.99998 -3.85664e-05 0)
(2.99998 -4.74028e-05 0)
(2.99997 -5.64437e-05 0)
(2.99996 -8.2149e-05 0)
(2.99997 -6.49219e-05 0)
(2.99996 -7.56944e-05 0)
(2.99995 -9.1399e-05 0)
(2.99993 -0.000130381 0)
(2.99995 -9.93152e-05 0)
(2.99994 -0.000125796 0)
(2.99993 -0.00014297 0)
(2.99989 -0.0002104 0)
(2.99992 -0.000155144 0)
(2.9999 -0.000210467 0)
(2.99989 -0.000221318 0)
(2.99986 -0.00033326 0)
(2.99987 -0.000250919 0)
(2.99983 -0.000349893 0)
(2.99982 -0.000364839 0)
(2.99977 -0.000560789 0)
(2.99979 -0.000424241 0)
(2.99972 -0.000583801 0)
(2.99967 -0.000648183 0)
(2.99958 -0.000864615 0)
(2.99962 -0.000755003 0)
(2.99957 -0.000844132 0)
(2.99939 -0.00121198 0)
(2.99942 -0.0012354 0)
(2.99937 -0.00125172 0)
(2.99933 -0.0013079 0)
(2.99907 -0.00196074 0)
(2.9993 -0.00177082 0)
)
;

boundaryField
{
    inlet
    {
        type            fixedValue;
        value           nonuniform List<vector> 0();
    }
    outlet
    {
        type            inletOutlet;
        inletValue      nonuniform List<vector> 0();
        value           nonuniform List<vector> 0();
    }
    triangle
    {
        type            slip;
    }
    top
    {
        type            symmetryPlane;
    }
    bottom
    {
        type            symmetryPlane;
    }
    defaultFaces
    {
        type            empty;
    }
    procBoundary2to1
    {
        type            processor;
        value           nonuniform List<vector> 
40
(
(2.99933 -0.0012992 0)
(2.99908 -0.001786 0)
(2.99882 -0.00223849 0)
(2.9984 -0.00298559 0)
(2.99795 -0.00383508 0)
(2.99746 -0.00455857 0)
(2.99656 -0.00615338 0)
(2.996 -0.00734951 0)
(2.99536 -0.00833333 0)
(2.99393 -0.010121 0)
(2.99198 -0.013694 0)
(2.99594 -0.0233181 0)
(2.67468 -0.407768 0)
(1.75124 -0.811465 0)
(1.41532 -0.875544 0)
(1.40703 -0.85684 0)
(1.37887 -0.825714 0)
(1.32474 -0.77064 0)
(1.27287 -0.763455 0)
(1.29453 -0.749446 0)
(3 6.0878e-08 0)
(3 7.73662e-08 0)
(3 2.78581e-08 0)
(3 -8.07981e-08 0)
(3 -3.41811e-07 0)
(3 -7.05067e-07 0)
(3 -1.32239e-06 0)
(3 -2.39584e-06 0)
(3 -4.19151e-06 0)
(3 -7.15401e-06 0)
(2.99999 -1.20394e-05 0)
(2.99999 -1.99417e-05 0)
(2.99998 -3.29686e-05 0)
(2.99997 -5.25467e-05 0)
(2.99996 -8.87848e-05 0)
(2.99993 -0.000143039 0)
(2.99988 -0.00023402 0)
(2.99981 -0.000396047 0)
(2.99969 -0.000598976 0)
(2.99952 -0.000942285 0)
)
;
    }
    procBoundary2to3
    {
        type            processor;
        value           nonuniform List<vector> 
47
(
(2.51401 0.19606 0)
(2.43344 0.179507 0)
(2.23394 0.135067 0)
(1.87492 0.114052 0)
(1.40266 0.0634703 0)
(0.885198 0.0378437 0)
(0.40049 0.00104667 0)
(2.43032 -0.321386 0)
(2.45182 -0.293572 0)
(2.48024 -0.257848 0)
(2.50696 -0.232392 0)
(2.53494 -0.200046 0)
(2.56164 -0.157188 0)
(2.57882 -0.118731 0)
(2.59868 -0.0524267 0)
(2.61771 -0.0104522 0)
(2.66069 0.0614598 0)
(2.67957 0.113399 0)
(2.69218 0.173296 0)
(2.68294 0.201714 0)
(2.66731 0.22889 0)
(2.64531 0.245219 0)
(2.62101 0.257949 0)
(2.60202 0.259935 0)
(2.58606 0.263507 0)
(2.56706 0.246384 0)
(2.53768 0.23547 0)
(2.53126 0.024684 0)
(2.60039 0.0914948 0)
(2.75975 0.0601155 0)
(2.88333 -0.0745125 0)
(2.92973 -0.302852 0)
(2.89804 -0.528493 0)
(2.83225 -0.690136 0)
(2.72961 -0.743302 0)
(2.5736 -0.724731 0)
(2.39994 -0.724137 0)
(2.25649 -0.701608 0)
(2.16859 -0.662107 0)
(2.17968 -0.622898 0)
(2.20721 -0.614306 0)
(2.20799 -0.606394 0)
(2.20727 -0.576181 0)
(2.22782 -0.524797 0)
(2.26144 -0.468305 0)
(2.32038 -0.41841 0)
(2.3896 -0.365031 0)
)
;
    }
    procBoundary2to6
    {
        type            processor;
        value           nonuniform List<vector> 5((0.409412 -0.00250151 0) (-0.147342 0.064284 0) (0.0261365 -0.0214533 0) (0.409412 -0.00250151 0) (0.445305 -0.0350629 0));
    }
    procBoundary2to7
    {
        type            processor;
        value           nonuniform List<vector> 7((0.0317104 -0.00312784 0) (-0.171004 -0.0108663 0) (-0.233314 -0.00431451 0) (-0.233314 -0.00431451 0) (-0.0920392 0.00670011 0) (-0.0185631 0.0138639 0) (0.215268 0.0170529 0));
    }
}


// ************************************************************************* //
