/*--------------------------------*- C++ -*----------------------------------*\
  =========                 |
  \\      /  F ield         | OpenFOAM: The Open Source CFD Toolbox
   \\    /   O peration     | Website:  https://openfoam.org
    \\  /    A nd           | Version:  7
     \\/     M anipulation  |
\*---------------------------------------------------------------------------*/
FoamFile
{
    version     2.0;
    format      ascii;
    class       volVectorField;
    location    "1";
    object      U;
}
// * * * * * * * * * * * * * * * * * * * * * * * * * * * * * * * * * * * * * //

dimensions      [0 1 -1 0 0 0 0];

internalField   nonuniform List<vector> 
325
(
(1.53571 0.370656 0)
(2.26654 0.375843 0)
(2.47105 0.238497 0)
(0.623821 -0.0068634 0)
(1.80357 0.245062 0)
(2.29044 0.215586 0)
(0.189946 -0.00668687 0)
(1.2087 0.200787 0)
(1.92404 0.165168 0)
(0.0380581 -0.0818819 0)
(0.686662 0.0608105 0)
(1.42635 0.116038 0)
(-0.0667836 -0.0649806 0)
(0.288054 0.040855 0)
(0.904418 0.0672938 0)
(-0.147251 -0.0632761 0)
(0.0255989 0.0221821 0)
(0.442448 0.0353386 0)
(-0.197979 -0.039227 0)
(-0.142097 0.0101104 0)
(0.0859049 0.00394183 0)
(-0.237046 -0.0309685 0)
(-0.247981 0.00364672 0)
(-0.155117 -0.00962392 0)
(-0.253907 -0.0163934 0)
(-0.304306 0.01318 0)
(-0.283958 -0.0119094 0)
(-0.257172 -0.0029822 0)
(-0.324992 0.00581988 0)
(-0.325874 -0.00523376 0)
(-0.257103 0.00365317 0)
(-0.324916 -0.00474287 0)
(-0.325793 0.00676138 0)
(-0.233054 0.00517276 0)
(-0.253881 0.0171795 0)
(-0.304157 -0.0121423 0)
(-0.283669 0.0127177 0)
(-0.16926 0.00916434 0)
(-0.237027 0.0319135 0)
(-0.247733 -0.0027074 0)
(-0.154285 0.0107965 0)
(0.0360109 0.00547384 0)
(-0.19807 0.0403236 0)
(-0.141794 -0.00912241 0)
(0.087421 -0.00347175 0)
(2.99912 -0.00176093 0)
(2.99908 -0.00182204 0)
(2.99865 -0.00264793 0)
(2.99844 -0.00278851 0)
(2.99888 -0.00219536 0)
(2.99876 -0.00248108 0)
(2.99794 -0.00293165 0)
(2.99959 -0.00370926 0)
(2.99855 -0.00280458 0)
(2.99834 -0.00310648 0)
(2.99825 -0.00431473 0)
(3.03141 0.00884118 0)
(2.99818 -0.00343305 0)
(2.99793 -0.0038105 0)
(2.9976 -0.00498459 0)
(3.03091 -0.140299 0)
(2.99756 -0.00468921 0)
(2.99734 -0.00496659 0)
(2.99642 -0.00841196 0)
(2.48977 -0.580311 0)
(2.99703 -0.00538035 0)
(2.99679 -0.00623023 0)
(3.00767 -0.0236539 0)
(2.01353 -0.78625 0)
(2.99636 -0.00633216 0)
(2.9956 -0.00839344 0)
(2.91344 -0.245056 0)
(1.83992 -0.860785 0)
(2.99562 -0.00781812 0)
(2.99498 -0.018745 0)
(2.18302 -0.734191 0)
(1.67419 -0.922408 0)
(2.99437 -0.0104325 0)
(2.91252 -0.193836 0)
(1.83229 -0.851055 0)
(1.65447 -0.903151 0)
(2.99292 -0.0189954 0)
(2.12425 -0.731605 0)
(1.60986 -0.915716 0)
(1.64309 -0.909157 0)
(2.85194 -0.242157 0)
(1.74385 -0.85136 0)
(1.59008 -0.904087 0)
(1.64188 -0.904833 0)
(1.93991 -0.776166 0)
(1.54842 -0.900121 0)
(1.57768 -0.897315 0)
(1.63752 -0.896742 0)
(1.62098 -0.872468 0)
(1.53015 -0.895154 0)
(1.56483 -0.893681 0)
(1.63009 -0.892307 0)
(1.49538 -0.894549 0)
(1.5186 -0.897199 0)
(1.55417 -0.890373 0)
(1.62554 -0.886372 0)
(1.45089 -0.884176 0)
(1.48623 -0.880834 0)
(1.52755 -0.87178 0)
(1.61305 -0.874567 0)
(1.41113 -0.86312 0)
(1.42851 -0.86854 0)
(1.46899 -0.849838 0)
(1.57705 -0.855882 0)
(1.36727 -0.8346 0)
(1.37197 -0.834388 0)
(1.39454 -0.815314 0)
(1.51162 -0.840867 0)
(1.3247 -0.778951 0)
(1.32464 -0.789841 0)
(1.33665 -0.771654 0)
(1.45642 -0.799671 0)
(1.28382 -0.766994 0)
(1.28964 -0.773138 0)
(1.29974 -0.763259 0)
(1.40997 -0.790536 0)
(1.29136 -0.747623 0)
(1.29236 -0.747031 0)
(1.29838 -0.742337 0)
(1.39752 -0.756153 0)
(2.15202 -0.724534 0)
(2.07957 -0.723484 0)
(2.24869 -0.584818 0)
(2.07978 -0.796808 0)
(2.08512 -0.725811 0)
(2.28443 -0.544822 0)
(2.0306 -0.817132 0)
(2.10135 -0.734129 0)
(2.31299 -0.5112 0)
(1.97507 -0.827788 0)
(2.10769 -0.721504 0)
(2.36087 -0.457086 0)
(1.91564 -0.851966 0)
(2.12061 -0.706657 0)
(2.38708 -0.420883 0)
(1.89323 -0.855881 0)
(2.15112 -0.679606 0)
(2.423 -0.377211 0)
(1.89538 -0.835818 0)
(2.20094 -0.63202 0)
(2.46578 -0.319 0)
(1.89818 -0.819666 0)
(2.22159 -0.608952 0)
(2.48643 -0.280589 0)
(1.92512 -0.794827 0)
(2.26756 -0.565857 0)
(2.52022 -0.219158 0)
(1.93748 -0.771885 0)
(2.2877 -0.536188 0)
(2.54388 -0.158318 0)
(1.95006 -0.74999 0)
(2.32334 -0.478219 0)
(2.55935 -0.111287 0)
(1.97613 -0.715438 0)
(2.35052 -0.423936 0)
(2.58675 -0.0210054 0)
(1.99019 -0.684553 0)
(2.3806 -0.352732 0)
(2.59112 0.0151067 0)
(2.01556 -0.641322 0)
(2.40763 -0.280688 0)
(2.61305 0.124506 0)
(2.03679 -0.591602 0)
(2.44318 -0.171766 0)
(2.61555 0.156783 0)
(2.06239 -0.517164 0)
(2.46705 -0.0945106 0)
(2.6237 0.230603 0)
(2.0805 -0.460764 0)
(2.52396 0.0537654 0)
(2.62339 0.249814 0)
(2.14541 -0.344121 0)
(2.56781 0.143454 0)
(2.61649 0.292796 0)
(2.20132 -0.224028 0)
(2.6141 0.301026 0)
(2.5916 0.284708 0)
(2.20141 0.0325333 0)
(2.54379 0.344371 0)
(2.53499 0.300327 0)
(2.99999 2.74631e-07 0)
(3.00004 1.22436e-05 0)
(2.99927 -0.00065051 0)
(2.99999 4.60631e-07 0)
(3.00004 3.54813e-05 0)
(2.99953 -0.00191881 0)
(2.99999 7.7689e-07 0)
(3.00005 5.64433e-05 0)
(2.99915 -0.00275628 0)
(3 8.99944e-07 0)
(3.00007 7.35133e-05 0)
(2.99837 -0.00326404 0)
(3 7.66457e-07 0)
(3.00011 8.07679e-05 0)
(2.99751 -0.00341995 0)
(3 6.05317e-07 0)
(3.00014 6.93826e-05 0)
(2.99753 -0.00357301 0)
(3 1.4076e-06 0)
(3.00015 2.95727e-05 0)
(3.00074 -0.00564301 0)
(2.99998 7.18459e-06 0)
(3.00012 -5.07351e-05 0)
(3.00625 -0.0219116 0)
(2.99999 1.13177e-05 0)
(2.99996 -0.000228681 0)
(3.01179 -0.0757739 0)
(3 1.40733e-05 0)
(2.99975 -0.000732385 0)
(2.97334 -0.19944 0)
(3.00002 1.54795e-05 0)
(2.9995 -0.00343191 0)
(2.83325 -0.369384 0)
(3.00004 3.89659e-05 0)
(3.00498 -0.0153475 0)
(2.64212 -0.522159 0)
(3.00014 8.30888e-05 0)
(3.03456 -0.0535268 0)
(2.45886 -0.631964 0)
(3.00041 0.000124458 0)
(3.01175 -0.177236 0)
(2.31197 -0.679189 0)
(3.00143 -0.00015504 0)
(2.81608 -0.398398 0)
(2.21713 -0.688429 0)
(3.01918 4.3036e-05 0)
(2.57987 -0.586795 0)
(2.16254 -0.681423 0)
(3.11578 -0.0113385 0)
(2.37683 -0.712219 0)
(2.14037 -0.659186 0)
(3.02211 -0.209402 0)
(2.17501 -0.745642 0)
(2.14808 -0.682803 0)
(2.6031 -0.475356 0)
(2.08833 -0.742353 0)
(2.15337 -0.667336 0)
(2.24525 -0.631691 0)
(2.07087 -0.732585 0)
(2.20489 -0.627197 0)
(3 8.3999e-08 0)
(3 7.80519e-08 0)
(3 1.01776e-07 0)
(3 1.00079e-07 0)
(3 1.25252e-07 0)
(3 8.60833e-08 0)
(3 1.44765e-07 0)
(3 8.36005e-08 0)
(3 1.11385e-07 0)
(3 4.86858e-08 0)
(3 1.62747e-07 0)
(3 7.56817e-08 0)
(3 1.00801e-08 0)
(3 -1.42152e-07 0)
(3 2.71222e-08 0)
(3 -2.56634e-07 0)
(3 -2.68374e-07 0)
(3 -5.32643e-07 0)
(3 -3.40407e-07 0)
(3 -9.77434e-07 0)
(3 -6.98035e-07 0)
(3 -1.08373e-06 0)
(3 -9.74438e-07 0)
(3 -2.14608e-06 0)
(3 -1.48196e-06 0)
(3 -1.95679e-06 0)
(3 -2.20019e-06 0)
(3 -3.43634e-06 0)
(3 -2.84148e-06 0)
(3 -3.49525e-06 0)
(3 -4.18671e-06 0)
(3 -6.16279e-06 0)
(3 -4.96703e-06 0)
(3 -6.08003e-06 0)
(3 -7.2788e-06 0)
(2.99999 -1.05983e-05 0)
(3 -8.56674e-06 0)
(2.99999 -1.04077e-05 0)
(2.99999 -1.25269e-05 0)
(2.99999 -1.83351e-05 0)
(2.99999 -1.4236e-05 0)
(2.99999 -1.73598e-05 0)
(2.99999 -2.08388e-05 0)
(2.99998 -3.03765e-05 0)
(2.99999 -2.39199e-05 0)
(2.99999 -2.90943e-05 0)
(2.99998 -3.49631e-05 0)
(2.99997 -5.07682e-05 0)
(2.99998 -3.85656e-05 0)
(2.99998 -4.74023e-05 0)
(2.99997 -5.6443e-05 0)
(2.99996 -8.21481e-05 0)
(2.99997 -6.49224e-05 0)
(2.99996 -7.56929e-05 0)
(2.99995 -9.13993e-05 0)
(2.99993 -0.00013038 0)
(2.99995 -9.93119e-05 0)
(2.99994 -0.000125802 0)
(2.99993 -0.000142964 0)
(2.99989 -0.000210407 0)
(2.99992 -0.000155144 0)
(2.9999 -0.000210468 0)
(2.99989 -0.000221319 0)
(2.99986 -0.000333262 0)
(2.99987 -0.00025092 0)
(2.99983 -0.000349896 0)
(2.99982 -0.000364843 0)
(2.99977 -0.000560796 0)
(2.99979 -0.00042425 0)
(2.99972 -0.000583807 0)
(2.99967 -0.000648201 0)
(2.99958 -0.000864621 0)
(2.99962 -0.000755019 0)
(2.99957 -0.000844142 0)
(2.99939 -0.00121202 0)
(2.99942 -0.00123543 0)
(2.99937 -0.00125174 0)
(2.99933 -0.00130792 0)
(2.99907 -0.00196076 0)
(2.9993 -0.00177085 0)
)
;

boundaryField
{
    inlet
    {
        type            fixedValue;
        value           nonuniform 0();
    }
    outlet
    {
        type            inletOutlet;
        inletValue      nonuniform 0();
        value           nonuniform 0();
    }
    triangle
    {
        type            slip;
    }
    top
    {
        type            symmetryPlane;
    }
    bottom
    {
        type            symmetryPlane;
    }
    defaultFaces
    {
        type            empty;
    }
    procBoundary2to1
    {
        type            processor;
        value           nonuniform List<vector> 
40
(
(2.99933 -0.00129924 0)
(2.99908 -0.00178601 0)
(2.99882 -0.00223855 0)
(2.9984 -0.00298563 0)
(2.99795 -0.0038352 0)
(2.99746 -0.00455865 0)
(2.99656 -0.00615357 0)
(2.996 -0.00734962 0)
(2.99536 -0.00833346 0)
(2.99393 -0.0101213 0)
(2.99198 -0.0136944 0)
(2.99595 -0.0233208 0)
(2.67465 -0.407804 0)
(1.75123 -0.811472 0)
(1.41532 -0.875543 0)
(1.40703 -0.856844 0)
(1.37886 -0.825717 0)
(1.32474 -0.77064 0)
(1.27286 -0.763451 0)
(1.29452 -0.749442 0)
(3 6.08655e-08 0)
(3 7.73387e-08 0)
(3 2.7824e-08 0)
(3 -8.07944e-08 0)
(3 -3.41748e-07 0)
(3 -7.04902e-07 0)
(3 -1.32215e-06 0)
(3 -2.39556e-06 0)
(3 -4.19113e-06 0)
(3 -7.15364e-06 0)
(2.99999 -1.20388e-05 0)
(2.99999 -1.99413e-05 0)
(2.99998 -3.29682e-05 0)
(2.99997 -5.25458e-05 0)
(2.99996 -8.87865e-05 0)
(2.99993 -0.00014304 0)
(2.99988 -0.000234021 0)
(2.99981 -0.000396053 0)
(2.99969 -0.000598984 0)
(2.99952 -0.000942295 0)
)
;
    }
    procBoundary2to3
    {
        type            processor;
        value           nonuniform List<vector> 
47
(
(2.51426 0.197024 0)
(2.43392 0.180708 0)
(2.2346 0.135921 0)
(1.87629 0.114321 0)
(1.40478 0.0640908 0)
(0.887554 0.0382005 0)
(0.402442 0.00158897 0)
(2.43034 -0.32132 0)
(2.45181 -0.293582 0)
(2.48029 -0.257796 0)
(2.50699 -0.232352 0)
(2.53497 -0.199981 0)
(2.56163 -0.157186 0)
(2.57888 -0.118707 0)
(2.59875 -0.0524516 0)
(2.61782 -0.0103769 0)
(2.66075 0.0615783 0)
(2.67955 0.113378 0)
(2.69222 0.173414 0)
(2.68297 0.201822 0)
(2.66737 0.229195 0)
(2.64536 0.245432 0)
(2.62106 0.25839 0)
(2.60212 0.260185 0)
(2.58615 0.263826 0)
(2.56715 0.246684 0)
(2.53782 0.235923 0)
(2.53121 0.0246783 0)
(2.60034 0.0914783 0)
(2.75971 0.0600957 0)
(2.8833 -0.0745343 0)
(2.92972 -0.30289 0)
(2.89802 -0.528529 0)
(2.83222 -0.690161 0)
(2.72957 -0.743289 0)
(2.57355 -0.724722 0)
(2.3999 -0.72414 0)
(2.25647 -0.701606 0)
(2.16857 -0.662102 0)
(2.17966 -0.622892 0)
(2.2072 -0.614297 0)
(2.20798 -0.606386 0)
(2.20726 -0.576167 0)
(2.22783 -0.524774 0)
(2.26142 -0.468318 0)
(2.32039 -0.418387 0)
(2.38957 -0.365063 0)
)
;
    }
    procBoundary2to6
    {
        type            processor;
        value           nonuniform List<vector> 5((0.407333 -0.00184576 0) (-0.147301 0.0641666 0) (0.0259227 -0.0216441 0) (0.407333 -0.00184576 0) (0.444501 -0.0351988 0));
    }
    procBoundary2to7
    {
        type            processor;
        value           nonuniform List<vector> 7((0.0328666 -0.003419 0) (-0.170595 -0.0101838 0) (-0.233304 -0.0041617 0) (-0.233304 -0.0041617 0) (-0.0919895 0.0100139 0) (-0.0184647 0.0151492 0) (0.215596 0.0183951 0));
    }
}


// ************************************************************************* //
