/*--------------------------------*- C++ -*----------------------------------*\
  =========                 |
  \\      /  F ield         | OpenFOAM: The Open Source CFD Toolbox
   \\    /   O peration     | Website:  https://openfoam.org
    \\  /    A nd           | Version:  7
     \\/     M anipulation  |
\*---------------------------------------------------------------------------*/
FoamFile
{
    version     2.0;
    format      ascii;
    class       volScalarField;
    location    "0.3";
    object      p;
}
// * * * * * * * * * * * * * * * * * * * * * * * * * * * * * * * * * * * * * //

dimensions      [1 -1 -2 0 0 0 0];

internalField   nonuniform List<scalar> 
325
(
10.2794
10.3428
3.28448
4.22592
3.28292
3.27262
3.19811
3.26884
3.23364
3.2655
3.26474
3.26276
3.29742
3.26096
3.32912
3.25903
3.3586
3.25754
3.37714
3.25632
3.41316
3.2555
3.4519
3.25493
3.49692
3.25482
3.53654
3.25631
3.56855
3.25947
3.60196
3.26379
3.64046
3.26853
3.68628
3.27294
3.75645
3.27695
3.86066
3.28048
4.0206
3.28292
4.12369
3.28448
4.22592
3.18913
3.1941
3.21496
3.2694
3.54531
4.28997
3.22888
3.23156
3.2528
3.33007
3.78942
4.50162
3.26483
3.26581
3.28605
3.39125
4.03254
4.59937
3.3061
3.30759
3.32689
3.47574
4.2579
4.65307
3.3456
3.34836
3.3784
3.59979
4.43459
4.69199
3.38383
3.39528
3.44685
3.7532
4.5616
4.72519
3.44681
3.47026
3.53792
3.91628
4.65459
4.74481
3.51469
3.54301
3.62137
4.06785
4.71962
4.76622
3.57258
3.59964
3.69278
4.21577
4.76452
4.79007
3.63065
3.65634
3.76784
4.36761
4.86389
4.89529
3.69961
3.72561
3.86374
4.56332
5.06626
5.18468
3.76038
3.79191
4.02033
5.01092
5.59418
5.75233
3.81107
3.86955
4.5367
5.97391
6.3976
6.43419
3.88016
4.18163
5.96069
7.00396
7.06217
6.96657
4.17398
5.62728
7.4363
7.57788
7.48481
7.31091
5.27905
7.55056
8.00792
7.92838
7.74769
7.50679
7.03099
8.52998
8.30902
8.12237
7.89178
7.63886
8.26979
9.12276
8.64545
8.4102
8.10342
7.82221
9.00012
9.36845
8.86677
8.55549
8.21577
7.94345
10.2794
10.3428
9.83479
9.34086
8.89141
8.57031
3.28328
3.24622
3.28328
3.24622
3.28328
3.24622
3.28328
3.24622
3.28328
3.24622
3.28328
3.24622
3.28328
3.24622
3.28328
3.24621
3.28328
3.24619
3.28328
3.24618
3.28327
3.24616
3.28317
3.2461
3.28276
3.2458
3.28223
3.2452
3.28185
3.24379
3.28179
3.23693
3.28212
3.21704
3.28208
3.19392
3.28137
3.18249
3.27748
3.178
3.21957
3.21243
3.20326
3.19666
3.19159
3.18155
3.21957
3.21243
3.20326
3.19666
3.19159
3.18155
3.21957
3.21243
3.20326
3.19666
3.19159
3.18155
3.21957
3.21243
3.20326
3.19666
3.19159
3.18155
3.21957
3.21243
3.20326
3.19666
3.19159
3.18155
3.21957
3.21243
3.20326
3.19666
3.19159
3.18156
3.21957
3.21243
3.20326
3.19666
3.19159
3.18156
3.21957
3.21243
3.20327
3.19666
3.19161
3.18155
3.21959
3.21244
3.20333
3.19666
3.19171
3.18148
3.21961
3.21246
3.20342
3.19665
3.19186
3.18142
3.21959
3.21247
3.20344
3.19672
3.19188
3.18168
3.21951
3.21244
3.20334
3.19684
3.19175
3.18233
3.21914
3.21218
3.20303
3.19689
3.19159
3.18295
3.21843
3.21148
3.20244
3.1964
3.19164
3.18279
3.21644
3.20936
3.20052
3.19327
3.18957
3.17945
3.20485
3.19715
3.18538
3.17629
3.17075
3.15941
3.17248
3.16149
3.14561
3.13723
3.13259
3.13231
3.14023
3.12777
3.11723
3.11224
3.11451
3.14566
3.12333
3.11509
3.11287
3.11545
3.14069
3.30462
3.13012
3.13367
3.14543
3.17633
3.29334
3.79159
)
;

boundaryField
{
    inlet
    {
        type            fixedValue;
        value           nonuniform 0();
    }
    outlet
    {
        type            zeroGradient;
    }
    triangle
    {
        type            zeroGradient;
    }
    top
    {
        type            symmetryPlane;
    }
    bottom
    {
        type            symmetryPlane;
    }
    defaultFaces
    {
        type            empty;
    }
    procBoundary1to0
    {
        type            processor;
        value           nonuniform List<scalar> 
40
(
3.2087
3.2087
3.20864
3.2087
3.20876
3.20883
3.20898
3.209
3.20888
3.20856
3.20806
3.20723
3.2064
3.20572
3.20541
3.20505
3.20459
3.2041
3.20445
3.20452
3.20502
3.20502
3.20502
3.20502
3.20502
3.20502
3.20502
3.20502
3.20502
3.20502
3.20502
3.20504
3.20516
3.20547
3.2059
3.20634
3.20683
3.20732
3.20779
3.20833
)
;
    }
    procBoundary1to2
    {
        type            processor;
        value           nonuniform List<scalar> 
40
(
4.53543
4.58661
4.60342
4.61585
4.62876
4.64942
4.66034
4.6808
4.71379
4.80913
5.14297
5.67799
6.26678
6.72925
7.04133
7.21026
7.3405
7.52966
7.62534
8.0827
3.15394
3.15394
3.15394
3.15394
3.15394
3.15393
3.15391
3.15395
3.15419
3.15459
3.15453
3.15409
3.15402
3.15424
3.1516
3.13137
3.16799
3.35232
3.84145
4.36899
)
;
    }
    procBoundary1to4
    {
        type            processor;
        value           nonuniform List<scalar> 2(3.20452 3.20445);
    }
    procBoundary1to5
    {
        type            processor;
        value           nonuniform List<scalar> 6(9.00012 9.83479 9.36845 4.12369 4.12369 3.28048);
    }
}


// ************************************************************************* //
