/*--------------------------------*- C++ -*----------------------------------*\
  =========                 |
  \\      /  F ield         | OpenFOAM: The Open Source CFD Toolbox
   \\    /   O peration     | Website:  https://openfoam.org
    \\  /    A nd           | Version:  7
     \\/     M anipulation  |
\*---------------------------------------------------------------------------*/
FoamFile
{
    version     2.0;
    format      ascii;
    class       volVectorField;
    location    "0.7";
    object      U;
}
// * * * * * * * * * * * * * * * * * * * * * * * * * * * * * * * * * * * * * //

dimensions      [0 1 -1 0 0 0 0];

internalField   nonuniform List<vector> 
325
(
(2.10232 0.444788 0)
(2.03008 0.195746 0)
(2.02169 0.0341239 0)
(2.09174 0.00319087 0)
(2.12978 0.00817039 0)
(2.05473 0.0546349 0)
(1.93574 0.0375389 0)
(2.09585 0.374922 0)
(2.03664 0.161058 0)
(2.02089 0.024387 0)
(2.08691 -0.0143641 0)
(2.12847 -0.00181164 0)
(2.06524 0.0550938 0)
(1.93891 0.0413365 0)
(2.10785 0.324657 0)
(2.04575 0.135558 0)
(2.03632 0.00618952 0)
(2.08973 -0.0266043 0)
(2.12187 0.00541753 0)
(2.07559 0.0680286 0)
(1.94552 0.0479229 0)
(2.08265 0.265721 0)
(2.0596 0.111151 0)
(2.04857 0.0044921 0)
(2.07095 -0.0255571 0)
(2.07885 -0.00594246 0)
(2.05425 0.0603419 0)
(1.9396 0.0480149 0)
(1.99587 0.20532 0)
(2.04747 0.0981607 0)
(2.0112 0.00773975 0)
(1.97221 -0.028567 0)
(1.9465 -0.00780735 0)
(1.95109 0.0579837 0)
(1.8916 0.0514948 0)
(1.7951 0.190927 0)
(1.93151 0.0805083 0)
(1.84647 0.00690431 0)
(1.74201 -0.021415 0)
(1.68324 -0.00729249 0)
(1.72498 0.0484539 0)
(1.77738 0.0510589 0)
(1.43231 0.137047 0)
(1.61515 0.0778687 0)
(1.51079 0.0125192 0)
(2.09084 0.0162883 0)
(2.16623 0.135357 0)
(2.26253 0.276707 0)
(2.38059 0.376302 0)
(2.37133 0.462751 0)
(2.22547 0.293642 0)
(2.04021 0.10743 0)
(2.11124 0.0475132 0)
(2.18268 0.159649 0)
(2.27879 0.313919 0)
(2.39223 0.408645 0)
(2.38177 0.471027 0)
(2.1958 0.240839 0)
(2.03221 0.0973503 0)
(2.15697 0.0948637 0)
(2.20852 0.196177 0)
(2.29334 0.344291 0)
(2.39918 0.441711 0)
(2.38758 0.467069 0)
(2.16168 0.185096 0)
(2.02514 0.0900356 0)
(2.18054 0.135905 0)
(2.22852 0.225637 0)
(2.31046 0.381347 0)
(2.40116 0.463195 0)
(2.38237 0.440151 0)
(2.14558 0.14241 0)
(2.0195 0.0840162 0)
(2.19831 0.176255 0)
(2.24933 0.26632 0)
(2.32818 0.430236 0)
(2.40821 0.491867 0)
(2.36957 0.398381 0)
(2.13786 0.104346 0)
(2.01753 0.0797756 0)
(2.2157 0.227697 0)
(2.26493 0.300585 0)
(2.33784 0.460734 0)
(2.40668 0.501914 0)
(2.34458 0.339701 0)
(2.13267 0.0762867 0)
(2.01367 0.0748566 0)
(2.22004 0.270324 0)
(2.28194 0.352387 0)
(2.35408 0.516916 0)
(2.40831 0.514549 0)
(2.30567 0.2744 0)
(2.11513 0.0507466 0)
(2.00654 0.0754072 0)
(2.21853 0.318439 0)
(2.28977 0.390087 0)
(2.36013 0.546149 0)
(2.40649 0.511626 0)
(2.24799 0.199359 0)
(2.0927 0.0361459 0)
(2.00125 0.0746556 0)
(2.21286 0.365093 0)
(2.30163 0.462741 0)
(2.37368 0.580518 0)
(2.39104 0.504151 0)
(2.20357 0.140139 0)
(2.07667 0.0278013 0)
(1.99995 0.0731029 0)
(2.20295 0.412965 0)
(2.29933 0.500414 0)
(2.38448 0.594463 0)
(2.37243 0.445158 0)
(2.17387 0.0814021 0)
(2.06638 0.0209355 0)
(2.0011 0.0686307 0)
(2.19476 0.469002 0)
(2.29849 0.576126 0)
(2.38961 0.60757 0)
(2.35571 0.371582 0)
(2.17467 0.0564725 0)
(2.05898 0.0201756 0)
(2.00127 0.0630801 0)
(2.18505 0.515901 0)
(2.28454 0.607114 0)
(2.37757 0.608069 0)
(2.32415 0.270844 0)
(2.17595 0.0377842 0)
(2.05152 0.0256996 0)
(2.0005 0.0575652 0)
(2.17745 0.582283 0)
(2.28682 0.663004 0)
(2.35084 0.584778 0)
(2.29171 0.191089 0)
(2.16827 0.0194756 0)
(2.04175 0.0307374 0)
(1.99631 0.0552687 0)
(2.16267 0.627108 0)
(2.29431 0.673783 0)
(2.31251 0.502295 0)
(2.25018 0.130369 0)
(2.16039 0.0133281 0)
(2.03154 0.0328604 0)
(1.9886 0.0542149 0)
(2.15585 0.692988 0)
(2.27546 0.705033 0)
(2.26796 0.395762 0)
(2.22664 0.106742 0)
(2.15016 0.00701644 0)
(2.03227 0.0351847 0)
(1.97982 0.0499262 0)
(2.16579 0.726313 0)
(2.23273 0.684159 0)
(2.19147 0.278007 0)
(2.21152 0.0811377 0)
(2.145 0.00538821 0)
(2.03669 0.0369453 0)
(1.97075 0.0462821 0)
(2.1725 0.763791 0)
(2.22252 0.585061 0)
(2.11201 0.172174 0)
(2.19466 0.0587807 0)
(2.14567 0.0016808 0)
(2.04175 0.0374026 0)
(1.96216 0.0434433 0)
(2.16207 0.745613 0)
(2.19598 0.440296 0)
(2.07731 0.11232 0)
(2.16882 0.0429107 0)
(2.14673 0.00446101 0)
(2.04544 0.0430835 0)
(1.95285 0.0433411 0)
(2.14359 0.648304 0)
(2.14596 0.323207 0)
(2.05865 0.0749264 0)
(2.13805 0.0251554 0)
(2.14457 0.0107512 0)
(2.04744 0.0509782 0)
(1.94328 0.0438836 0)
(2.12165 0.531053 0)
(2.07413 0.240721 0)
(2.03805 0.0469165 0)
(2.11131 0.00566154 0)
(2.13733 0.0126008 0)
(2.0504 0.0566234 0)
(1.93684 0.0421424 0)
(1.64964 -0.075196 0)
(1.64976 -0.0187409 0)
(1.75236 0.00632391 0)
(1.89393 0.018023 0)
(2.05298 0.0226742 0)
(2.18909 0.0263006 0)
(2.23065 0.0258885 0)
(1.70369 -0.175072 0)
(1.65921 -0.022905 0)
(1.75389 0.0300441 0)
(1.88949 0.0559735 0)
(2.04284 0.0648022 0)
(2.19246 0.0703001 0)
(2.24899 0.0610455 0)
(1.73502 -0.289287 0)
(1.69182 -0.0654994 0)
(1.7808 0.0441185 0)
(1.90902 0.0911985 0)
(2.04733 0.108386 0)
(2.17266 0.118847 0)
(2.2292 0.105686 0)
(1.75961 -0.38309 0)
(1.70524 -0.10286 0)
(1.80925 0.0514145 0)
(1.92666 0.124445 0)
(2.0591 0.154232 0)
(2.18278 0.173949 0)
(2.2424 0.14995 0)
(1.76102 -0.434444 0)
(1.76211 -0.187036 0)
(1.85193 0.0224298 0)
(1.93849 0.15239 0)
(2.0549 0.194864 0)
(2.16408 0.223845 0)
(2.22673 0.191623 0)
(1.77582 -0.453918 0)
(1.82331 -0.261431 0)
(1.87009 0.015161 0)
(1.95586 0.178369 0)
(2.06724 0.233051 0)
(2.17692 0.273748 0)
(2.23813 0.23651 0)
(1.7934 -0.445326 0)
(1.86546 -0.318088 0)
(1.89495 -0.0507251 0)
(2.003 0.160822 0)
(2.07789 0.256043 0)
(2.16579 0.318069 0)
(2.22623 0.279734 0)
(1.82224 -0.41377 0)
(1.89113 -0.323887 0)
(1.9356 -0.109215 0)
(2.03012 0.141578 0)
(2.09528 0.287259 0)
(2.16457 0.360638 0)
(2.22318 0.322223 0)
(1.83112 -0.381847 0)
(1.91235 -0.292032 0)
(1.96473 -0.150562 0)
(2.04164 0.0911091 0)
(2.13618 0.277107 0)
(2.17003 0.38127 0)
(2.21734 0.351735 0)
(1.82403 -0.355043 0)
(1.92138 -0.257566 0)
(1.98315 -0.16079 0)
(2.07119 0.0426076 0)
(2.171 0.253335 0)
(2.17602 0.399757 0)
(2.21434 0.371207 0)
(1.82313 -0.341209 0)
(1.93159 -0.228871 0)
(2.00433 -0.142244 0)
(2.1006 0.0153864 0)
(2.19272 0.215853 0)
(2.19127 0.396572 0)
(2.21057 0.376626 0)
(1.83973 -0.331305 0)
(1.94732 -0.202749 0)
(2.02249 -0.119461 0)
(2.12619 0.0165409 0)
(2.21082 0.194026 0)
(2.21358 0.382185 0)
(2.20333 0.366449 0)
(1.86826 -0.307885 0)
(1.97176 -0.170165 0)
(2.04716 -0.0901209 0)
(2.15495 0.0397855 0)
(2.22943 0.195354 0)
(2.23047 0.381983 0)
(2.19395 0.3527 0)
(1.89187 -0.28173 0)
(1.99187 -0.139127 0)
(2.07355 -0.0650817 0)
(2.18358 0.0689322 0)
(2.25181 0.219079 0)
(2.23793 0.39264 0)
(2.18501 0.350671 0)
(1.91618 -0.246599 0)
(2.0152 -0.1023 0)
(2.11256 -0.0253399 0)
(2.21374 0.0999216 0)
(2.27376 0.259941 0)
(2.24879 0.421021 0)
(2.17739 0.345751 0)
(1.93013 -0.218577 0)
(2.03142 -0.0705356 0)
(2.13856 0.0120017 0)
(2.24543 0.136839 0)
(2.28428 0.295454 0)
(2.27287 0.433919 0)
(2.15597 0.307436 0)
(1.95339 -0.181411 0)
(2.05345 -0.033004 0)
(2.16443 0.059981 0)
(2.27393 0.172309 0)
(2.30749 0.350228 0)
(2.29082 0.461621 0)
(2.12927 0.26534 0)
(1.97653 -0.144005 0)
(2.07844 0.00525557 0)
(2.19123 0.114623 0)
(2.30532 0.220829 0)
(2.32782 0.381631 0)
(2.2973 0.450679 0)
(2.09771 0.214977 0)
(2.00745 -0.0962609 0)
(2.10846 0.0533013 0)
(2.21552 0.169108 0)
(2.33303 0.269072 0)
(2.34932 0.423014 0)
(2.29006 0.42631 0)
(2.06938 0.163654 0)
(2.0469 -0.0408655 0)
(2.13574 0.0902972 0)
(2.24363 0.234379 0)
(2.36194 0.324916 0)
(2.35953 0.456211 0)
(2.2661 0.36786 0)
(2.05509 0.130977 0)
)
;

boundaryField
{
    inlet
    {
        type            fixedValue;
        value           nonuniform 0();
    }
    outlet
    {
        type            inletOutlet;
        inletValue      uniform (3 0 0);
        value           nonuniform List<vector> 
46
(
(1.93574 0.0375389 0)
(1.93891 0.0413365 0)
(1.94552 0.0479229 0)
(1.9396 0.0480149 0)
(1.8916 0.0514948 0)
(1.77738 0.0510589 0)
(2.04021 0.10743 0)
(2.03221 0.0973503 0)
(2.02514 0.0900356 0)
(2.0195 0.0840162 0)
(2.01753 0.0797756 0)
(2.01367 0.0748566 0)
(2.00654 0.0754072 0)
(2.00125 0.0746556 0)
(1.99995 0.0731029 0)
(2.0011 0.0686307 0)
(2.00127 0.0630801 0)
(2.0005 0.0575652 0)
(1.99631 0.0552687 0)
(1.9886 0.0542149 0)
(1.97982 0.0499262 0)
(1.97075 0.0462821 0)
(1.96216 0.0434433 0)
(1.95285 0.0433411 0)
(1.94328 0.0438836 0)
(1.93684 0.0421424 0)
(2.23065 0.0258885 0)
(2.24899 0.0610455 0)
(2.2292 0.105686 0)
(2.2424 0.14995 0)
(2.22673 0.191623 0)
(2.23813 0.23651 0)
(2.22623 0.279734 0)
(2.22318 0.322223 0)
(2.21734 0.351735 0)
(2.21434 0.371207 0)
(2.21057 0.376626 0)
(2.20333 0.366449 0)
(2.19395 0.3527 0)
(2.18501 0.350671 0)
(2.17739 0.345751 0)
(2.15597 0.307436 0)
(2.12927 0.26534 0)
(2.09771 0.214977 0)
(2.06938 0.163654 0)
(2.05509 0.130977 0)
)
;
    }
    triangle
    {
        type            slip;
    }
    top
    {
        type            symmetryPlane;
    }
    bottom
    {
        type            symmetryPlane;
    }
    defaultFaces
    {
        type            empty;
    }
    procBoundary3to2
    {
        type            processor;
        value           nonuniform List<vector> 
47
(
(2.15182 0.671709 0)
(2.17069 0.64947 0)
(2.12719 0.603605 0)
(1.97689 0.52241 0)
(1.71379 0.42878 0)
(1.37151 0.287144 0)
(0.911364 0.199875 0)
(2.02681 -0.236083 0)
(2.05688 -0.199035 0)
(2.11745 -0.151217 0)
(2.13947 -0.111276 0)
(2.17031 -0.0580269 0)
(2.17752 -0.00835735 0)
(2.16422 0.0389489 0)
(2.14316 0.0880426 0)
(2.11586 0.125754 0)
(2.09103 0.174842 0)
(2.06414 0.214651 0)
(2.04739 0.270297 0)
(2.03749 0.321449 0)
(2.04165 0.390843 0)
(2.05238 0.458456 0)
(2.06834 0.549023 0)
(2.07164 0.612794 0)
(2.07409 0.691071 0)
(2.09435 0.711874 0)
(2.12742 0.699913 0)
(2.04632 -0.0635411 0)
(2.00185 -0.252136 0)
(1.87975 -0.396573 0)
(1.83513 -0.487076 0)
(1.81133 -0.503598 0)
(1.76807 -0.505675 0)
(1.75259 -0.50952 0)
(1.75806 -0.502608 0)
(1.74543 -0.515545 0)
(1.72833 -0.511612 0)
(1.69924 -0.50367 0)
(1.69455 -0.506259 0)
(1.72381 -0.483727 0)
(1.74919 -0.46752 0)
(1.77558 -0.449072 0)
(1.79262 -0.435177 0)
(1.81535 -0.411838 0)
(1.84093 -0.382115 0)
(1.87893 -0.341182 0)
(1.95067 -0.288574 0)
)
;
    }
    procBoundary3to7
    {
        type            processor;
        value           nonuniform List<vector> 8((1.4007 -0.0109059 0) (1.34208 0.000190103 0) (1.42267 0.0450684 0) (1.61616 0.0470336 0) (0.911155 0.0847658 0) (1.12527 0.0403429 0) (1.4007 -0.0109059 0) (1.11136 0.033269 0));
    }
}


// ************************************************************************* //
