/*--------------------------------*- C++ -*----------------------------------*\
  =========                 |
  \\      /  F ield         | OpenFOAM: The Open Source CFD Toolbox
   \\    /   O peration     | Website:  https://openfoam.org
    \\  /    A nd           | Version:  7
     \\/     M anipulation  |
\*---------------------------------------------------------------------------*/
FoamFile
{
    version     2.0;
    format      ascii;
    class       volScalarField;
    location    "0.3";
    object      p;
}
// * * * * * * * * * * * * * * * * * * * * * * * * * * * * * * * * * * * * * //

dimensions      [1 -1 -2 0 0 0 0];

internalField   nonuniform List<scalar> 
3225
(
0.129212
0.143305
0.158522
0.174575
0.192818
0.215824
0.245474
0.282405
0.331184
0.399842
0.483959
0.578517
0.706133
0.851205
0.977436
1.07038
1.13231
1.26434
0.0921095
0.0985358
0.106299
0.115763
0.127156
0.140971
0.157375
0.175285
0.193825
0.215777
0.246985
0.28815
0.33872
0.406784
0.4909
0.586261
0.700667
0.841069
0.951789
1.06157
1.14064
1.27923
0.0904999
0.0973093
0.105334
0.114808
0.125758
0.139064
0.155781
0.174608
0.194046
0.216622
0.24926
0.294245
0.344966
0.40921
0.491695
0.597339
0.704624
0.828398
0.937685
1.06377
1.1383
1.27157
0.0894118
0.0966599
0.104989
0.114514
0.125133
0.137906
0.154207
0.173391
0.193844
0.217888
0.251761
0.298632
0.350757
0.411927
0.494365
0.604728
0.721291
0.8355
0.943843
1.07307
1.12885
1.25441
0.0885805
0.0963491
0.105068
0.114704
0.125283
0.137461
0.15272
0.171695
0.193753
0.220437
0.254264
0.298816
0.352926
0.417408
0.50279
0.614746
0.73626
0.851639
0.961222
1.08533
1.12823
1.25368
0.0881629
0.0965367
0.105885
0.115496
0.125518
0.137256
0.151664
0.170298
0.194519
0.223192
0.255494
0.296274
0.352425
0.425145
0.515453
0.618393
0.73431
0.854229
0.96218
1.08256
1.13839
1.27125
0.0879303
0.0963177
0.105328
0.115178
0.125881
0.137413
0.150886
0.169006
0.194658
0.22543
0.25707
0.293941
0.349974
0.429062
0.525955
0.619941
0.733234
0.857928
0.966181
1.08534
1.15395
1.29202
0.0963177
0.105328
0.115178
0.125881
0.137413
0.150886
0.169006
0.194658
0.22543
0.25707
0.293941
0.349974
0.429062
0.525955
0.619941
0.733234
0.857928
0.966181
1.08534
1.15395
1.29202
0.0965367
0.105885
0.115496
0.125518
0.137256
0.151664
0.170298
0.194519
0.223192
0.255494
0.296274
0.352425
0.425145
0.515453
0.618393
0.73431
0.854229
0.96218
1.08256
1.13839
1.27125
0.0963491
0.105068
0.114704
0.125283
0.137461
0.15272
0.171695
0.193753
0.220437
0.254264
0.298816
0.352926
0.417408
0.50279
0.614746
0.73626
0.851639
0.961222
1.08533
1.12823
1.25368
0.0966599
0.104989
0.114514
0.125133
0.137906
0.154207
0.173391
0.193844
0.217888
0.251761
0.298632
0.350757
0.411927
0.494365
0.604728
0.721291
0.8355
0.943843
1.07307
1.12885
1.25441
0.0973093
0.105334
0.114808
0.125758
0.139064
0.155781
0.174608
0.194046
0.216622
0.24926
0.294245
0.344966
0.40921
0.491695
0.597339
0.704624
0.828398
0.937685
1.06377
1.1383
1.27157
0.0985358
0.106299
0.115763
0.127156
0.140971
0.157375
0.175285
0.193825
0.215777
0.246985
0.28815
0.33872
0.406784
0.4909
0.586261
0.700667
0.841069
0.951789
1.06157
1.14064
1.27923
0.100697
0.108082
0.117376
0.129212
0.143305
0.158522
0.174575
0.192818
0.215824
0.245474
0.282405
0.331184
0.399842
0.483959
0.578517
0.706133
0.851205
0.977436
1.07038
1.13231
1.26434
0.104116
0.111007
0.11991
0.131849
0.145805
0.159558
0.173812
0.191773
0.215812
0.244566
0.278408
0.323524
0.387982
0.471075
0.570301
0.698371
0.832811
0.972894
1.08684
1.12254
1.24112
0.109558
0.115332
0.123366
0.134899
0.148296
0.160809
0.173854
0.191626
0.216111
0.244284
0.275789
0.316378
0.373904
0.454156
0.556266
0.672842
0.797638
0.940891
1.08936
1.12523
1.22696
0.118497
0.12205
0.128482
0.138657
0.150863
0.162799
0.175428
0.192973
0.21669
0.244226
0.274388
0.310624
0.360593
0.435662
0.531849
0.636179
0.765494
0.904904
1.07513
1.13755
1.22967
0.130779
0.132148
0.136168
0.143643
0.153978
0.166134
0.179394
0.196059
0.217931
0.244069
0.272717
0.30571
0.348618
0.415371
0.501489
0.61405
0.762775
0.884626
1.05362
1.1417
1.24492
0.143995
0.144717
0.146546
0.150828
0.158669
0.170167
0.184955
0.201485
0.220519
0.243919
0.270176
0.299954
0.336156
0.394391
0.476029
0.60948
0.782245
0.905799
1.03046
1.1305
1.24605
0.155915
0.157656
0.159006
0.161089
0.166396
0.177198
0.192077
0.208106
0.224234
0.243667
0.266837
0.293222
0.322727
0.373228
0.456776
0.599689
0.770091
0.92105
1.02819
1.1114
1.22944
0.165938
0.169304
0.172051
0.173917
0.177165
0.185453
0.199323
0.214568
0.229261
0.24431
0.263844
0.286754
0.310981
0.353522
0.436632
0.571276
0.729061
0.90683
1.0353
1.10043
1.20769
0.175488
0.179304
0.184173
0.187371
0.189661
0.194633
0.205462
0.220333
0.23408
0.24778
0.263503
0.283668
0.303375
0.337257
0.409968
0.514545
0.677642
0.875494
1.03864
1.10496
1.19009
0.185844
0.188291
0.194751
0.200199
0.203355
0.20643
0.21313
0.226034
0.239992
0.25232
0.267951
0.286749
0.303083
0.323388
0.373315
0.459558
0.653103
0.845657
1.0326
1.11037
1.17702
0.196798
0.197714
0.20367
0.211513
0.217126
0.220782
0.22457
0.233316
0.247338
0.259519
0.274804
0.293429
0.306153
0.311113
0.332949
0.425132
0.658016
0.83812
1.02154
1.1054
1.1605
0.207518
0.208271
0.211884
0.220698
0.229199
0.234976
0.238304
0.243437
0.255423
0.269504
0.283119
0.299128
0.308223
0.299897
0.302537
0.399211
0.641436
0.844085
1.0124
1.09739
1.14582
0.216854
0.219614
0.221721
0.22856
0.239107
0.247107
0.252034
0.255472
0.264161
0.277959
0.289263
0.300348
0.30778
0.293706
0.284261
0.362048
0.603762
0.841916
1.0093
1.09426
1.13836
0.224321
0.23004
0.233525
0.238222
0.247142
0.257378
0.264955
0.268558
0.274442
0.286241
0.294997
0.300769
0.306761
0.295311
0.275829
0.316456
0.562003
0.832345
1.00717
1.09368
1.13592
0.2301
0.238735
0.24535
0.249843
0.255641
0.265835
0.276692
0.282516
0.286348
0.295887
0.303408
0.304927
0.307745
0.301361
0.270513
0.280435
0.53106
0.820844
1.00166
1.08827
1.1298
0.233607
0.246068
0.255234
0.260826
0.266045
0.273932
0.286476
0.296137
0.299719
0.307307
0.314382
0.311836
0.308009
0.306457
0.267152
0.263363
0.511494
0.813123
0.990471
1.07566
1.11517
0.238812
0.250601
0.263249
0.270665
0.276939
0.282972
0.293171
0.306604
0.312664
0.318737
0.324703
0.319668
0.309749
0.311515
0.271272
0.261796
0.499567
0.810088
0.977241
1.05922
1.09523
0.245456
0.254562
0.267516
0.27863
0.287525
0.292158
0.297743
0.310997
0.320132
0.326342
0.332387
0.32798
0.314047
0.316208
0.281843
0.279153
0.506375
0.810971
0.966737
1.0428
1.07438
0.251951
0.259273
0.271181
0.286344
0.297265
0.302377
0.304806
0.314147
0.323203
0.327698
0.333606
0.330349
0.313697
0.313911
0.288311
0.299288
0.522083
0.810727
0.959395
1.02884
1.05468
0.258398
0.266012
0.276218
0.290545
0.305512
0.315601
0.318061
0.323028
0.32819
0.328469
0.332528
0.328765
0.310473
0.30483
0.285887
0.308
0.538958
0.804645
0.950676
1.0172
1.03743
0.2643
0.274179
0.28201
0.292609
0.307095
0.322691
0.329163
0.334302
0.33879
0.336558
0.33826
0.331714
0.313298
0.301686
0.287386
0.31721
0.552485
0.794338
0.939843
1.00762
1.02649
0.265566
0.279706
0.288837
0.297006
0.307039
0.321925
0.332699
0.339973
0.34725
0.344524
0.344312
0.33846
0.324105
0.307543
0.296526
0.331186
0.563306
0.784749
0.92787
1.00003
1.02357
0.262093
0.280379
0.293534
0.302742
0.310487
0.323162
0.332482
0.33689
0.34334
0.341292
0.341333
0.339356
0.329308
0.309356
0.305399
0.344922
0.580264
0.782768
0.915412
0.992181
1.02412
0.2614
0.277553
0.293248
0.304636
0.311792
0.322434
0.330076
0.334677
0.33947
0.33579
0.331964
0.331105
0.327216
0.308434
0.309499
0.352561
0.600744
0.787812
0.906861
0.983191
1.02285
0.266283
0.281723
0.295953
0.307526
0.314118
0.320979
0.328626
0.332847
0.337374
0.333441
0.326049
0.325962
0.32732
0.307372
0.308235
0.354514
0.622151
0.799518
0.903093
0.97253
1.01536
0.266829
0.283988
0.300409
0.314445
0.320926
0.324807
0.329589
0.331012
0.336237
0.335237
0.327774
0.323092
0.323757
0.306777
0.305972
0.351875
0.642407
0.812669
0.903002
0.961794
1.00202
0.257597
0.275032
0.293918
0.309951
0.320184
0.324393
0.327952
0.328622
0.332341
0.334353
0.324654
0.318845
0.319454
0.307674
0.304602
0.346307
0.658997
0.825466
0.904462
0.953032
0.985386
0.255019
0.266958
0.281286
0.297968
0.3115
0.318172
0.321751
0.320855
0.321628
0.327059
0.320477
0.316233
0.314885
0.305399
0.301777
0.334416
0.667176
0.836685
0.906937
0.947753
0.971161
0.267333
0.273255
0.279637
0.291116
0.30413
0.311693
0.315807
0.314579
0.314046
0.320829
0.317078
0.312345
0.310061
0.302522
0.297427
0.319955
0.662204
0.841529
0.910111
0.946412
0.962719
0.271645
0.282454
0.285233
0.289313
0.298707
0.306023
0.311545
0.309871
0.307161
0.312673
0.311002
0.306654
0.30553
0.299898
0.293178
0.310507
0.651558
0.836979
0.910622
0.948491
0.961151
0.259706
0.277303
0.285232
0.286984
0.292769
0.297739
0.304264
0.304273
0.300189
0.303708
0.304044
0.300635
0.300096
0.297995
0.293351
0.307334
0.637054
0.830583
0.905596
0.948715
0.961913
0.249243
0.267104
0.2798
0.282667
0.287345
0.290964
0.29716
0.299571
0.295192
0.294858
0.294566
0.292645
0.292971
0.293133
0.291355
0.308532
0.620392
0.82858
0.896027
0.944114
0.959508
0.246384
0.259144
0.272612
0.277839
0.281681
0.28471
0.290755
0.294512
0.291499
0.288509
0.286729
0.283889
0.2836
0.285994
0.286491
0.304733
0.597107
0.830541
0.888469
0.93671
0.952249
0.246439
0.254009
0.265287
0.272474
0.276275
0.278327
0.282993
0.288431
0.287443
0.284428
0.281924
0.277941
0.275172
0.277057
0.278174
0.294881
0.566692
0.833306
0.883795
0.927027
0.942864
0.247895
0.252565
0.261163
0.268858
0.272677
0.273273
0.275465
0.280659
0.281919
0.279392
0.277163
0.274274
0.270601
0.270333
0.269636
0.2808
0.531618
0.835441
0.88045
0.91785
0.933387
0.248322
0.252014
0.258121
0.265698
0.269952
0.27
0.270179
0.272505
0.275759
0.275593
0.273595
0.271333
0.268124
0.265889
0.262944
0.269487
0.494458
0.834697
0.875992
0.911601
0.926201
0.2454
0.25023
0.254814
0.261397
0.266791
0.268013
0.267166
0.267013
0.269191
0.270955
0.26939
0.266408
0.263334
0.261064
0.257427
0.26099
0.455327
0.829623
0.868545
0.907757
0.922821
0.243454
0.249191
0.253261
0.257987
0.263458
0.265561
0.26448
0.263392
0.263769
0.264918
0.264312
0.261458
0.25856
0.255985
0.251946
0.253091
0.414666
0.815767
0.862122
0.904955
0.921399
0.241614
0.248075
0.25219
0.255489
0.259437
0.262555
0.262195
0.260927
0.259662
0.259195
0.258659
0.256351
0.253349
0.250113
0.245898
0.246786
0.378277
0.792041
0.857869
0.902314
0.920065
0.239909
0.2465
0.251099
0.253698
0.256065
0.258735
0.258913
0.258219
0.256946
0.255243
0.253827
0.251542
0.247982
0.245096
0.242377
0.243378
0.342881
0.760747
0.857022
0.898826
0.918106
0.239243
0.245384
0.250179
0.252095
0.253696
0.255553
0.254941
0.254041
0.253496
0.25212
0.250231
0.248063
0.24504
0.242579
0.240814
0.240583
0.306955
0.726929
0.860347
0.897207
0.915621
0.239785
0.245291
0.250274
0.253417
0.253958
0.254338
0.254641
0.253872
0.252518
0.25072
0.249023
0.246658
0.243602
0.241206
0.240167
0.23905
0.273106
0.677391
0.862912
0.894142
0.912655
0.241044
0.246302
0.250765
0.255047
0.25618
0.255278
0.254966
0.253861
0.252415
0.250909
0.24925
0.247812
0.245059
0.242122
0.24065
0.238874
0.255158
0.613844
0.865715
0.890643
0.909142
0.2425
0.248923
0.253037
0.256495
0.258349
0.257858
0.256655
0.254787
0.252851
0.250714
0.248865
0.247736
0.247227
0.245215
0.242873
0.239226
0.246881
0.557539
0.867139
0.88777
0.904807
0.244576
0.250744
0.25595
0.25828
0.259448
0.259773
0.258778
0.256434
0.253693
0.251203
0.249269
0.248169
0.248471
0.247659
0.245779
0.240915
0.243239
0.499953
0.858481
0.884875
0.900026
0.245402
0.252003
0.257559
0.260512
0.26123
0.261275
0.26156
0.259297
0.255878
0.252909
0.250489
0.248905
0.249324
0.249019
0.247481
0.243632
0.243087
0.44266
0.842338
0.8835
0.894581
0.244697
0.251117
0.259177
0.261875
0.263184
0.263401
0.264236
0.263307
0.259782
0.255689
0.252595
0.250408
0.249266
0.249589
0.248278
0.245953
0.245864
0.390847
0.818011
0.881401
0.889089
0.243048
0.249293
0.258303
0.263358
0.264177
0.264356
0.265379
0.265892
0.263357
0.258981
0.254231
0.251285
0.249451
0.249687
0.249418
0.24845
0.248949
0.345378
0.782583
0.878797
0.885376
0.241872
0.247284
0.256278
0.263392
0.265273
0.264926
0.265042
0.266119
0.265481
0.262161
0.257546
0.252882
0.250306
0.249828
0.250879
0.251837
0.252307
0.308528
0.732368
0.875741
0.884132
0.243136
0.246838
0.254504
0.262337
0.265538
0.265672
0.26509
0.265346
0.266043
0.264043
0.260668
0.256543
0.252913
0.251544
0.253737
0.256251
0.256206
0.287177
0.669202
0.875198
0.883119
0.247343
0.248646
0.25419
0.261583
0.26547
0.266341
0.265845
0.265366
0.26579
0.265389
0.262915
0.259948
0.257354
0.256747
0.259226
0.262171
0.260862
0.276797
0.611971
0.873402
0.883195
0.2552
0.253665
0.256026
0.261545
0.265761
0.267038
0.266925
0.266276
0.266222
0.266832
0.265661
0.263476
0.261782
0.262159
0.265102
0.268628
0.265944
0.272737
0.555211
0.864064
0.883118
0.262591
0.259458
0.260692
0.263865
0.266986
0.267998
0.268227
0.268105
0.268265
0.268846
0.268575
0.266943
0.265865
0.266311
0.268711
0.272008
0.271473
0.272575
0.497306
0.846025
0.8803
0.269378
0.264846
0.265056
0.26744
0.269474
0.26986
0.269701
0.269244
0.268755
0.269634
0.2702
0.269018
0.267876
0.268088
0.269972
0.273061
0.275884
0.276066
0.44717
0.823129
0.87468
0.276975
0.27397
0.271217
0.271884
0.273249
0.272877
0.271924
0.270704
0.269569
0.269139
0.2697
0.269014
0.268089
0.268473
0.269875
0.272777
0.27851
0.280661
0.403425
0.790355
0.867114
0.282685
0.283704
0.279966
0.277969
0.277583
0.276032
0.274065
0.271979
0.270567
0.269257
0.269073
0.268413
0.267685
0.268385
0.269321
0.272368
0.280493
0.284657
0.362417
0.749837
0.861638
0.288135
0.290256
0.288274
0.283454
0.281307
0.278582
0.275602
0.273064
0.27159
0.270801
0.27064
0.269909
0.268734
0.26903
0.269942
0.273349
0.281961
0.287717
0.332374
0.697851
0.860074
0.296322
0.296436
0.295256
0.288743
0.284447
0.280898
0.277143
0.274171
0.272546
0.27166
0.271809
0.272605
0.272708
0.272591
0.272622
0.276039
0.284165
0.2894
0.314317
0.635963
0.860519
0.306453
0.303686
0.302486
0.295644
0.2889
0.284966
0.280565
0.275882
0.273464
0.272554
0.272945
0.274554
0.276485
0.277633
0.278168
0.280693
0.286582
0.289984
0.304849
0.577303
0.856116
0.315548
0.311735
0.310694
0.304734
0.295595
0.291306
0.287399
0.282016
0.277018
0.274785
0.274239
0.276048
0.27931
0.281604
0.283159
0.284748
0.28847
0.291157
0.300841
0.514584
0.843491
0.322729
0.318554
0.317961
0.313409
0.303328
0.297051
0.293663
0.28913
0.284065
0.279978
0.2782
0.278621
0.281909
0.284728
0.287101
0.288255
0.290801
0.292882
0.299766
0.454997
0.820758
0.329909
0.325463
0.324688
0.321701
0.312314
0.303249
0.299311
0.295133
0.290667
0.285771
0.283059
0.282377
0.284343
0.287271
0.289792
0.291411
0.294118
0.295933
0.300662
0.403785
0.786079
0.338089
0.333703
0.33156
0.329975
0.322525
0.311677
0.305577
0.300616
0.296762
0.29206
0.287931
0.28653
0.287145
0.289734
0.292106
0.294488
0.29775
0.300803
0.303672
0.365821
0.740612
0.346703
0.343233
0.338488
0.337155
0.331238
0.321318
0.3129
0.305735
0.302006
0.297993
0.292826
0.290316
0.290193
0.292126
0.294756
0.29777
0.30156
0.306893
0.309141
0.345198
0.689898
0.354164
0.353226
0.346593
0.343812
0.33855
0.330215
0.321477
0.311577
0.306496
0.303056
0.297422
0.293564
0.292859
0.294276
0.297717
0.301387
0.306133
0.312935
0.315838
0.337145
0.639607
0.359989
0.361511
0.356392
0.350972
0.345253
0.337591
0.329706
0.319605
0.311279
0.307954
0.302662
0.297787
0.296315
0.297173
0.300673
0.305182
0.311166
0.318875
0.322799
0.33547
0.590019
0.366463
0.367621
0.365567
0.358695
0.351636
0.343637
0.336549
0.328099
0.3172
0.312817
0.307959
0.30303
0.301326
0.302327
0.304793
0.309185
0.316149
0.324596
0.329553
0.337319
0.544577
0.375114
0.373202
0.372672
0.366717
0.358425
0.348986
0.342178
0.334959
0.324551
0.318511
0.313212
0.307935
0.306011
0.30775
0.310007
0.313666
0.320848
0.329787
0.335598
0.341051
0.505637
0.383705
0.380086
0.377817
0.373813
0.366174
0.354959
0.347295
0.340415
0.331533
0.325315
0.319698
0.313569
0.311126
0.312985
0.315098
0.318082
0.325247
0.334305
0.340995
0.346659
0.475826
0.390497
0.388597
0.382714
0.379296
0.37388
0.362975
0.353208
0.345371
0.337061
0.331428
0.326669
0.320568
0.317969
0.3198
0.320841
0.322529
0.329041
0.337983
0.345684
0.352243
0.4557
0.395923
0.396402
0.389917
0.383974
0.380361
0.371899
0.361246
0.351495
0.341946
0.336421
0.33264
0.327105
0.324965
0.327402
0.327665
0.327766
0.332652
0.340852
0.349419
0.357093
0.442535
0.399676
0.402663
0.399077
0.389822
0.385572
0.379214
0.369809
0.360051
0.348168
0.341531
0.337897
0.332734
0.331076
0.333986
0.334503
0.333661
0.336689
0.343166
0.351932
0.360912
0.432913
0.401956
0.407634
0.406714
0.398401
0.390787
0.385092
0.376998
0.36856
0.35672
0.348309
0.34364
0.338076
0.336533
0.339317
0.340959
0.339967
0.341637
0.34584
0.353166
0.36256
0.425988
0.404052
0.411362
0.412741
0.407977
0.397772
0.390734
0.38327
0.375674
0.365399
0.356587
0.350672
0.343908
0.341792
0.343699
0.346703
0.346984
0.347661
0.349697
0.35539
0.363713
0.420014
0.40616
0.414661
0.417657
0.415747
0.407062
0.397023
0.389356
0.38214
0.373022
0.364363
0.358238
0.350688
0.347459
0.348132
0.351336
0.354379
0.355205
0.355167
0.359074
0.36668
0.415524
0.408009
0.417895
0.421262
0.421739
0.41633
0.404813
0.395436
0.388473
0.380031
0.371418
0.365246
0.35764
0.353577
0.353279
0.355244
0.360113
0.363342
0.362639
0.364828
0.371325
0.414316
0.409653
0.421244
0.424363
0.426219
0.423562
0.414114
0.401894
0.394456
0.386584
0.378386
0.371927
0.364186
0.359544
0.358651
0.359037
0.3636
0.369657
0.370037
0.372458
0.378267
0.415457
0.410991
0.424707
0.427906
0.429386
0.429144
0.422762
0.409824
0.400161
0.392349
0.385161
0.378931
0.371149
0.365684
0.364202
0.363169
0.365735
0.373772
0.376045
0.380364
0.386882
0.41899
0.410602
0.427927
0.432142
0.432358
0.433257
0.429475
0.418824
0.406479
0.397243
0.390915
0.385749
0.378696
0.373062
0.370623
0.368136
0.368878
0.375276
0.38101
0.387835
0.395773
0.425223
0.408653
0.430484
0.4367
0.43607
0.435949
0.434583
0.426797
0.414528
0.402232
0.395453
0.391454
0.385412
0.380941
0.378279
0.374478
0.37335
0.376721
0.384392
0.394351
0.403887
0.432177
0.406373
0.432196
0.440967
0.440312
0.438622
0.438146
0.432997
0.423094
0.408926
0.399841
0.395953
0.390846
0.387435
0.385746
0.381985
0.379108
0.380496
0.386578
0.398979
0.410462
0.438344
0.404845
0.432597
0.444585
0.444828
0.442087
0.440437
0.437696
0.430288
0.417739
0.40529
0.400184
0.395544
0.392712
0.392262
0.38949
0.385867
0.385942
0.390091
0.40105
0.415028
0.443363
0.404729
0.43148
0.447826
0.44934
0.446169
0.443116
0.441058
0.43613
0.426279
0.412711
0.405102
0.400032
0.397415
0.398146
0.396926
0.393595
0.392939
0.395269
0.403761
0.417199
0.446994
0.405471
0.429085
0.450196
0.453709
0.450962
0.446501
0.443599
0.440829
0.433463
0.421563
0.411109
0.404616
0.401667
0.403163
0.404506
0.402957
0.401576
0.402037
0.40831
0.419588
0.448668
0.407126
0.426295
0.450773
0.457239
0.456003
0.450816
0.446733
0.444262
0.439606
0.430265
0.418977
0.409767
0.405718
0.406457
0.410709
0.412344
0.411697
0.410193
0.414374
0.423336
0.45026
0.409585
0.424887
0.449397
0.459872
0.460126
0.456261
0.450904
0.447439
0.444596
0.437913
0.428335
0.416689
0.410538
0.409567
0.414102
0.41952
0.420846
0.419077
0.421854
0.428309
0.453097
0.412846
0.424783
0.446449
0.461528
0.463602
0.461646
0.456343
0.451753
0.448497
0.444239
0.436699
0.425643
0.416983
0.414555
0.416479
0.423876
0.427706
0.427009
0.430002
0.434833
0.457302
0.41648
0.425437
0.443842
0.462217
0.466962
0.46655
0.462521
0.45692
0.452389
0.448965
0.443327
0.434421
0.425503
0.421092
0.420988
0.425977
0.43244
0.433038
0.437002
0.442317
0.463278
0.420152
0.426877
0.442553
0.461241
0.470005
0.47078
0.468392
0.462203
0.456427
0.452172
0.448469
0.441841
0.434706
0.429099
0.426791
0.429124
0.435316
0.437342
0.442055
0.448941
0.470176
0.423858
0.42919
0.442624
0.459703
0.471573
0.474131
0.473053
0.467403
0.460355
0.455131
0.452013
0.447962
0.443085
0.43796
0.433547
0.433628
0.438103
0.44013
0.445589
0.454225
0.476413
0.427924
0.432119
0.443338
0.458768
0.471305
0.476461
0.476517
0.472556
0.464677
0.458654
0.454829
0.452708
0.450143
0.44627
0.441022
0.439274
0.442098
0.442923
0.448251
0.458448
0.481526
0.432613
0.43576
0.445171
0.458864
0.469678
0.477454
0.479215
0.477092
0.470135
0.462769
0.458361
0.456113
0.455706
0.452931
0.44827
0.446548
0.447418
0.446851
0.45149
0.462142
0.485442
0.438169
0.440347
0.448109
0.459823
0.469146
0.47604
0.481112
0.480619
0.47603
0.467997
0.46259
0.459413
0.459669
0.457992
0.454183
0.454308
0.454412
0.452381
0.456133
0.466275
0.488647
0.444425
0.446036
0.452288
0.462109
0.469906
0.474992
0.481226
0.483458
0.481019
0.474456
0.467559
0.463299
0.462393
0.461777
0.458903
0.460697
0.462108
0.459644
0.462653
0.471567
0.492356
0.450364
0.452905
0.457967
0.465941
0.471681
0.475617
0.479987
0.485539
0.484778
0.480808
0.47383
0.467783
0.465497
0.464935
0.462714
0.465681
0.468919
0.467158
0.470583
0.478082
0.497006
0.455375
0.460112
0.464702
0.470945
0.474985
0.477456
0.480545
0.485615
0.48774
0.485946
0.480774
0.473352
0.469689
0.468567
0.466176
0.46937
0.474427
0.473712
0.47823
0.485207
0.50254
0.458471
0.465989
0.471432
0.477043
0.480147
0.481081
0.482712
0.485837
0.489412
0.48994
0.486675
0.479938
0.47549
0.473193
0.470271
0.472458
0.478503
0.478885
0.484383
0.491723
0.508287
0.461146
0.4695
0.476911
0.483214
0.486457
0.486585
0.486725
0.487991
0.49024
0.492449
0.491096
0.486038
0.482704
0.479473
0.475532
0.476487
0.48167
0.482619
0.488912
0.496883
0.513254
0.465116
0.471365
0.480083
0.488631
0.492775
0.493388
0.492199
0.491866
0.492657
0.493118
0.493822
0.490748
0.489383
0.487077
0.482252
0.481803
0.485551
0.485893
0.491981
0.500688
0.517172
0.470078
0.474515
0.48161
0.492287
0.498626
0.500195
0.498886
0.497559
0.496416
0.495095
0.494901
0.493776
0.49432
0.4938
0.489528
0.488531
0.490522
0.489871
0.494744
0.503555
0.520348
0.476124
0.478755
0.484424
0.494008
0.503081
0.506152
0.5059
0.504427
0.501724
0.49843
0.497263
0.495365
0.497076
0.498774
0.49567
0.495691
0.496829
0.494927
0.498538
0.506608
0.523478
0.48308
0.483962
0.48853
0.496635
0.505533
0.510535
0.511982
0.511261
0.508528
0.50372
0.500953
0.497983
0.498103
0.501921
0.500323
0.501379
0.503541
0.501249
0.503592
0.510522
0.527105
0.490177
0.490152
0.493874
0.500655
0.50801
0.51301
0.516308
0.517174
0.515335
0.511047
0.506582
0.501946
0.500971
0.503838
0.503673
0.505348
0.508957
0.507535
0.509819
0.515641
0.531483
0.496367
0.496886
0.499948
0.505683
0.511921
0.515903
0.518735
0.521469
0.520812
0.518085
0.514031
0.507965
0.505423
0.507103
0.506674
0.507823
0.512792
0.512612
0.515812
0.521695
0.536669
0.501243
0.502977
0.505969
0.511217
0.516957
0.520132
0.521689
0.52397
0.524643
0.523419
0.520846
0.515171
0.511906
0.51219
0.510867
0.510724
0.51543
0.516387
0.520518
0.527476
0.542143
0.505182
0.507428
0.511174
0.516491
0.522414
0.52546
0.525887
0.526812
0.527297
0.52708
0.526228
0.521732
0.519184
0.519009
0.516627
0.51507
0.518777
0.519647
0.523937
0.532224
0.547156
0.509203
0.510579
0.515758
0.5213
0.527469
0.531128
0.531021
0.531009
0.530588
0.530039
0.530426
0.527251
0.525633
0.526117
0.523531
0.520751
0.52356
0.523937
0.5275
0.53609
0.551371
0.513541
0.513742
0.519901
0.525538
0.531705
0.536275
0.536523
0.53641
0.535132
0.533946
0.534354
0.53196
0.530682
0.532282
0.530199
0.527277
0.529808
0.529678
0.532464
0.540339
0.555161
0.518312
0.517789
0.52361
0.529135
0.53502
0.540478
0.541546
0.542324
0.540925
0.539184
0.539153
0.536627
0.534724
0.536986
0.535789
0.533389
0.53637
0.536377
0.538915
0.545709
0.559382
0.523502
0.522604
0.527657
0.532446
0.537723
0.543815
0.545798
0.547523
0.546951
0.545389
0.545099
0.542097
0.538991
0.540662
0.540355
0.538572
0.542094
0.542803
0.545858
0.551842
0.56432
0.529452
0.527968
0.532089
0.535931
0.54043
0.546814
0.549505
0.551776
0.55217
0.551349
0.551564
0.548566
0.544236
0.544835
0.544585
0.543185
0.547006
0.548513
0.551942
0.557813
0.569638
0.536562
0.533862
0.536807
0.539642
0.543413
0.550006
0.553155
0.555584
0.556501
0.55613
0.557254
0.555065
0.550413
0.55026
0.549541
0.548014
0.551733
0.553715
0.556946
0.562918
0.574603
0.543997
0.540261
0.54212
0.543675
0.546663
0.553428
0.557035
0.559564
0.560487
0.559889
0.561512
0.560461
0.55654
0.556598
0.555718
0.55367
0.556944
0.558846
0.561348
0.567247
0.57903
0.550864
0.546807
0.547818
0.548188
0.550387
0.557028
0.561046
0.563887
0.564751
0.563598
0.564768
0.564762
0.561887
0.562668
0.562582
0.560164
0.562878
0.564169
0.565704
0.571497
0.583497
0.557185
0.552717
0.553242
0.552982
0.554675
0.561022
0.565052
0.568217
0.569349
0.56795
0.568497
0.568704
0.566487
0.567717
0.568992
0.56677
0.569205
0.569723
0.570285
0.576011
0.588228
0.563523
0.557855
0.558056
0.5577
0.559164
0.565383
0.56905
0.572163
0.573836
0.572763
0.573237
0.573184
0.570947
0.571931
0.574308
0.57273
0.57522
0.575181
0.575127
0.580979
0.593245
0.570087
0.56286
0.562617
0.562273
0.563437
0.569668
0.573064
0.575872
0.577835
0.577374
0.578429
0.578456
0.575829
0.576226
0.578814
0.57784
0.580266
0.580065
0.580196
0.586426
0.598467
0.576769
0.568195
0.567491
0.56693
0.567498
0.573534
0.576975
0.579684
0.581556
0.581381
0.582924
0.583842
0.581118
0.581088
0.583224
0.582417
0.584335
0.584359
0.585503
0.59212
0.60361
0.583348
0.573861
0.572799
0.57189
0.571674
0.577179
0.580786
0.583628
0.585486
0.584995
0.586308
0.588322
0.586176
0.586296
0.587885
0.586885
0.588146
0.588721
0.591085
0.597794
0.60856
0.589743
0.579858
0.578338
0.577032
0.576076
0.581011
0.584705
0.587598
0.589721
0.588776
0.589255
0.591833
0.590554
0.591158
0.592621
0.591291
0.592378
0.593967
0.59687
0.603041
0.613029
0.596095
0.586367
0.583908
0.58208
0.580552
0.585062
0.588776
0.591443
0.593938
0.592937
0.592747
0.59516
0.594497
0.595316
0.59697
0.595435
0.597038
0.599986
0.602681
0.607894
0.616924
0.602337
0.593383
0.589438
0.587085
0.58512
0.58916
0.592918
0.595046
0.597859
0.597207
0.596819
0.599017
0.598556
0.599093
0.600949
0.599368
0.601854
0.606018
0.608443
0.612334
0.620366
0.608476
0.600587
0.594934
0.592288
0.589865
0.593222
0.597045
0.598441
0.601442
0.601335
0.601151
0.603354
0.60296
0.603008
0.605083
0.603597
0.606622
0.61144
0.613806
0.616279
0.623479
0.614804
0.607565
0.600445
0.597687
0.594808
0.597359
0.601008
0.601767
0.604809
0.605352
0.605454
0.607764
0.607512
0.607183
0.60959
0.608397
0.611397
0.616141
0.618298
0.619872
0.626865
0.621388
0.614129
0.605975
0.603222
0.60006
0.601643
0.604824
0.605167
0.608179
0.609427
0.609705
0.612068
0.612004
0.61153
0.61427
0.613572
0.616258
0.620323
0.62184
0.622901
0.630651
0.627994
0.62047
0.611425
0.608913
0.605771
0.605756
0.608468
0.608609
0.611475
0.613497
0.613983
0.616433
0.616514
0.615959
0.618833
0.618734
0.620966
0.624269
0.624849
0.62592
0.6348
0.634311
0.626856
0.616963
0.614666
0.611786
0.609788
0.612025
0.612162
0.614718
0.617416
0.618162
0.620819
0.621099
0.620387
0.623168
0.623671
0.625269
0.627928
0.627587
0.629812
0.639597
0.640178
0.633311
0.623038
0.62045
0.617409
0.613853
0.615561
0.615967
0.6182
0.621261
0.622135
0.624928
0.625545
0.624695
0.627426
0.628446
0.629322
0.631176
0.63048
0.634187
0.644439
0.645969
0.639761
0.62984
0.626333
0.622635
0.617825
0.619014
0.620006
0.621976
0.625154
0.625974
0.628596
0.62953
0.628684
0.631618
0.633058
0.633296
0.634282
0.634073
0.638927
0.649047
0.652082
0.646336
0.637292
0.63218
0.627649
0.621756
0.622545
0.624345
0.625855
0.629023
0.629786
0.631962
0.63308
0.63233
0.635499
0.637439
0.637219
0.637559
0.638641
0.643809
0.653387
0.658804
0.653047
0.644973
0.637814
0.632586
0.625799
0.626291
0.628894
0.62968
0.632755
0.633572
0.635278
0.636633
0.635878
0.638949
0.641297
0.641034
0.641499
0.643883
0.648735
0.657397
0.666351
0.659853
0.652322
0.643114
0.637704
0.630344
0.630392
0.633397
0.633535
0.636312
0.637257
0.638572
0.640349
0.639674
0.642267
0.644706
0.644466
0.646061
0.649546
0.653509
0.661106
0.674525
0.666588
0.658906
0.648009
0.642973
0.635724
0.634818
0.637645
0.637512
0.639647
0.640682
0.641887
0.644103
0.643799
0.645824
0.648257
0.648149
0.650762
0.654952
0.658239
0.664672
0.682803
0.673025
0.664832
0.652797
0.648392
0.641955
0.639448
0.641664
0.641479
0.642767
0.643758
0.645171
0.647998
0.648128
0.649525
0.65202
0.652388
0.655673
0.659922
0.662552
0.668145
0.690533
0.678937
0.670407
0.657971
0.654064
0.648645
0.644191
0.645538
0.645376
0.645799
0.646683
0.648331
0.65189
0.65255
0.653268
0.655962
0.657004
0.660424
0.664548
0.66652
0.671735
0.697325
0.684276
0.675862
0.663914
0.659999
0.655284
0.648968
0.649382
0.649188
0.648961
0.649765
0.651484
0.655505
0.656715
0.657024
0.660013
0.661975
0.665153
0.668595
0.670086
0.675635
0.703128
0.689231
0.681672
0.670814
0.666094
0.66154
0.653675
0.65333
0.652999
0.652321
0.653215
0.654699
0.658777
0.660455
0.660747
0.664204
0.666794
0.669672
0.672483
0.67348
0.679864
0.708378
0.694191
0.687937
0.67842
0.672177
0.667346
0.658361
0.657374
0.656805
0.655741
0.657046
0.658051
0.661819
0.663912
0.664414
0.668423
0.671442
0.673648
0.675918
0.677243
0.684408
0.713684
0.69982
0.694497
0.686114
0.67803
0.672653
0.663266
0.661656
0.660615
0.659132
0.660906
0.661578
0.664872
0.667267
0.667976
0.672244
0.675584
0.677258
0.679005
0.681244
0.688909
0.719481
0.706515
0.701138
0.693288
0.683502
0.677575
0.668548
0.666277
0.664523
0.662475
0.664581
0.665236
0.668043
0.67057
0.671308
0.675614
0.679086
0.680414
0.682349
0.685465
0.693005
0.726029
0.714104
0.707604
0.699651
0.68857
0.682456
0.67434
0.671121
0.668595
)
;

boundaryField
{
    inlet
    {
        type            fixedValue;
        value           nonuniform 0();
    }
    outlet
    {
        type            zeroGradient;
    }
    triangle
    {
        type            zeroGradient;
    }
    top
    {
        type            symmetryPlane;
    }
    bottom
    {
        type            symmetryPlane;
    }
    defaultFaces
    {
        type            empty;
    }
    procBoundary23to14
    {
        type            processor;
        value           nonuniform List<scalar> 
13
(
0.086369
0.0844178
0.0829416
0.0817884
0.081009
0.0806717
0.0879303
0.0879303
0.0881629
0.0885805
0.0894118
0.0904999
0.0921095
)
;
    }
    procBoundary23to15
    {