/*--------------------------------*- C++ -*----------------------------------*\
  =========                 |
  \\      /  F ield         | OpenFOAM: The Open Source CFD Toolbox
   \\    /   O peration     | Website:  https://openfoam.org
    \\  /    A nd           | Version:  7
     \\/     M anipulation  |
\*---------------------------------------------------------------------------*/
FoamFile
{
    version     2.0;
    format      ascii;
    class       volScalarField;
    location    "0.7";
    object      p;
}
// * * * * * * * * * * * * * * * * * * * * * * * * * * * * * * * * * * * * * //

dimensions      [1 -1 -2 0 0 0 0];

internalField   nonuniform List<scalar> 
325
(
7.87806
7.5378
7.22572
6.94059
7.7792
7.6592
7.38139
7.16179
6.94944
6.73702
7.45774
7.52474
7.26199
7.084
6.88417
6.69048
7.05853
7.29342
7.0643
6.93687
6.78895
6.63405
6.65448
7.06985
6.9216
6.8522
6.74829
6.61593
6.2264
6.8615
6.82021
6.81176
6.73156
6.61037
5.77698
6.77106
6.83504
6.88827
6.81199
6.66373
4.92813
6.59455
6.98361
7.00867
6.86213
6.66015
3.48289
6.09331
7.10355
7.09883
6.92962
6.69169
2.36637
4.23967
7.0177
7.09638
6.94002
6.72472
1.81223
2.29773
5.25183
7.25224
7.01383
6.75323
1.56695
1.62821
2.62604
6.00533
7.15609
6.94465
1.41775
1.44267
1.53793
3.42009
6.44249
7.01668
1.31004
1.33636
1.36353
1.63657
4.64418
6.96975
1.22788
1.24895
1.27537
1.30272
2.18049
5.97453
1.16655
1.17946
1.19514
1.21076
1.2851
4.32973
1.12245
1.13165
1.1419
1.1576
1.17192
2.1378
1.09107
1.09868
1.1078
1.11962
1.12952
1.24991
1.06491
1.07102
1.07978
1.08843
1.09871
1.11511
1.04497
1.04994
1.05711
1.06467
1.0742
1.08522
2.02585
2.98951
0.999371
2.87125
0.999382
2.72052
0.999389
2.54908
0.999406
2.36232
0.999426
2.14878
0.999457
1.9233
0.99949
1.72174
0.999524
1.56072
0.999561
1.43806
0.999603
1.33953
0.999646
1.26084
0.999689
1.18836
0.99973
1.13796
0.999769
1.10658
0.999805
1.0776
0.999837
1.05505
0.999865
1.0379
0.999889
1.02574
1.0288
1.0323
1.03709
1.04297
1.05077
1.05719
1.01741
1.01955
1.02242
1.02632
1.03102
1.03719
1.04193
1.01195
1.01333
1.0151
1.01768
1.02059
1.02546
1.02863
1.0093
1.01029
1.01151
1.01325
1.01533
1.01836
1.02236
1.00877
1.0097
1.01097
1.01244
1.01448
1.01664
1.02034
1.00872
1.00965
1.01101
1.01258
1.01459
1.01685
1.01978
1.00895
1.00988
1.01111
1.01264
1.01447
1.0169
1.01951
1.00897
1.00993
1.01103
1.01255
1.01418
1.01659
1.01922
1.00874
1.00962
1.01072
1.01217
1.01393
1.0163
1.01916
1.00807
1.00899
1.01019
1.01173
1.01365
1.01609
1.01919
1.00753
1.00843
1.0097
1.01127
1.01332
1.01584
1.0191
1.00728
1.00812
1.00941
1.01085
1.013
1.01533
1.01892
1.00727
1.00811
1.00931
1.01076
1.01272
1.01501
1.01855
1.00749
1.00834
1.00952
1.01098
1.01289
1.01521
1.01829
1.0078
1.00866
1.00983
1.0113
1.01315
1.01548
1.01848
1.00813
1.00902
1.0102
1.01169
1.01352
1.01586
1.01876
1.00849
1.0094
1.01058
1.01211
1.0139
1.01631
1.01905
1.00881
1.00973
1.01088
1.01243
1.01416
1.01658
1.01922
1.00904
1.00995
1.01108
1.01258
1.01431
1.01661
1.01937
1.00921
1.01009
1.01129
1.01268
1.01453
1.01661
1.01961
0.999913
1.0164
0.999941
1.00998
0.999964
1.00697
0.999986
1.00554
1.00001
1.00512
1.00003
1.00504
1.00004
1.00527
1.00004
1.00535
1.00005
1.00522
1.00005
1.00469
1.00431
1.00416
1.00418
1.00434
1.00455
1.00476
1.00499
1.00522
1.0054
1.00548
)
;

boundaryField
{
    inlet
    {
        type            fixedValue;
        value           nonuniform 0();
    }
    outlet
    {
        type            zeroGradient;
    }
    triangle
    {
        type            zeroGradient;
    }
    top
    {
        type            symmetryPlane;
    }
    bottom
    {
        type            symmetryPlane;
    }
    defaultFaces
    {
        type            empty;
    }
    procBoundary5to1
    {
        type            processor;
        value           nonuniform List<scalar> 6(8.47853 8.22378 8.22378 3.0632 0.999374 0.999374);
    }
    procBoundary5to4
    {
        type            processor;
        value           nonuniform List<scalar> 
39
(
1
1.00001
1.00001
1.00001
1.00001
1.00001
1.00001
1.00001
1.00001
1.00001
1.00001
1
1
1
1
1
1
1
0.999999
1
0.999999
1
1
1
1
1
1
1
1.00006
1.00006
1.00006
1.00006
1.00006
1.00006
1.00006
1.00005
1.00005
1.00005
1.00005
)
;
    }
    procBoundary5to6
    {
        type            processor;
        value           nonuniform List<scalar> 
43
(
6.66306
6.50522
6.47581
6.42881
6.40375
6.38612
6.38184
6.35341
6.37443
6.4012
6.45981
6.66167
6.89558
7.31668
7.69183
7.62797
7.03044
5.70117
3.92329
3.92329
6.92289
1.17686
1.17686
1.17686
1.98188
1.10209
1.02532
1.02308
1.02377
1.02377
1.0232
1.02294
1.0231
1.02314
1.02278
1.02222
1.0221
1.02233
1.0226
1.02302
1.02322
1.02309
1.02294
)
;
    }
}


// ************************************************************************* //
