/*--------------------------------*- C++ -*----------------------------------*\
  =========                 |
  \\      /  F ield         | OpenFOAM: The Open Source CFD Toolbox
   \\    /   O peration     | Website:  https://openfoam.org
    \\  /    A nd           | Version:  8
     \\/     M anipulation  |
\*---------------------------------------------------------------------------*/
FoamFile
{
    version     2.0;
    format      ascii;
    class       volScalarField;
    location    "4.8";
    object      T;
}
// * * * * * * * * * * * * * * * * * * * * * * * * * * * * * * * * * * * * * //

dimensions      [0 0 0 1 0 0 0];

internalField   nonuniform List<scalar> 
2600
(
1.75798
1.84269
1.80634
1.63875
1.52465
1.61316
1.81435
1.97756
1.89552
1.71101
1.82158
1.88713
1.83831
1.65162
1.55645
1.64259
1.8571
1.9951
1.91576
1.73326
1.82641
1.89617
1.85421
1.67478
1.57961
1.66985
1.8949
2.00068
1.92172
1.7505
1.82506
1.89347
1.86613
1.72401
1.60131
1.69575
1.92281
1.99955
1.91855
1.76411
1.82368
1.88463
1.87602
1.78123
1.6325
1.72544
1.94054
1.99313
1.91264
1.77645
1.82156
1.87171
1.87715
1.80461
1.67222
1.76094
1.94951
1.98461
1.90842
1.78953
1.81778
1.85505
1.86603
1.80859
1.72095
1.79843
1.95374
1.97237
1.90596
1.80509
1.81424
1.83635
1.84533
1.79784
1.76962
1.83248
1.95057
1.96389
1.9053
1.82313
1.80868
1.81633
1.82107
1.78302
1.80894
1.85759
1.94391
1.95206
1.90427
1.84337
1.80497
1.79633
1.79846
1.77205
1.83982
1.87312
1.93342
1.93818
1.89985
1.86039
1.80219
1.77632
1.7809
1.76504
1.86114
1.8859
1.92253
1.92012
1.89201
1.87112
1.79896
1.75719
1.76489
1.76217
1.87551
1.897
1.91346
1.89904
1.88059
1.87553
1.79798
1.73907
1.75417
1.77603
1.88859
1.90833
1.90543
1.8739
1.86495
1.87538
1.79732
1.7239
1.74458
1.79079
1.89971
1.91767
1.89758
1.84488
1.84581
1.87063
1.80059
1.71518
1.7375
1.81531
1.91978
1.93401
1.89022
1.8145
1.82171
1.86228
1.8078
1.71091
1.7281
1.83873
1.93638
1.95586
1.8832
1.78463
1.79464
1.8492
1.81883
1.70892
1.7162
1.85347
1.95289
1.97834
1.87104
1.75635
1.76575
1.83241
1.82637
1.70442
1.68148
1.84856
1.96294
1.99298
1.85279
1.72964
1.73653
1.81017
1.81892
1.66605
1.61664
1.81134
1.96361
1.99676
1.82478
1.70433
1.70809
1.78443
1.76221
1.58777
1.54436
1.74391
1.9495
1.98793
1.7827
1.67959
1.681
1.75568
1.70484
1.48633
1.47671
1.65522
1.90588
1.95388
1.72724
1.65171
1.65417
1.72207
1.66517
1.42187
1.42484
1.56869
1.83481
1.88446
1.66763
1.62191
1.6282
1.68594
1.6261
1.38724
1.38598
1.50063
1.7513
1.79069
1.61185
1.59352
1.60568
1.65221
1.58238
1.36931
1.34811
1.44546
1.67194
1.69499
1.55778
1.56569
1.58576
1.62218
1.54398
1.35589
1.31071
1.39657
1.60068
1.61716
1.50989
1.53849
1.5665
1.5958
1.51241
1.32877
1.28416
1.35656
1.54223
1.55578
1.47058
1.51256
1.54661
1.57249
1.49668
1.30841
1.26325
1.32446
1.49556
1.50433
1.43907
1.48831
1.526
1.55131
1.48832
1.2994
1.24594
1.29958
1.45776
1.45959
1.41408
1.46648
1.50527
1.53114
1.49269
1.29984
1.23311
1.2828
1.42657
1.42263
1.39483
1.44782
1.48571
1.51145
1.5019
1.30635
1.22368
1.27322
1.40109
1.39285
1.38211
1.43469
1.4688
1.49198
1.51518
1.31823
1.22063
1.26992
1.38004
1.37048
1.37488
1.42955
1.45673
1.47375
1.53353
1.3339
1.22282
1.27174
1.36363
1.35475
1.36538
1.42476
1.44837
1.45703
1.54936
1.35273
1.23102
1.27755
1.35305
1.34389
1.35312
1.41552
1.44057
1.44257
1.56648
1.37341
1.24697
1.28569
1.34859
1.33847
1.34311
1.40675
1.43332
1.42981
1.58301
1.39333
1.26989
1.29708
1.34706
1.33575
1.33607
1.39649
1.42859
1.41982
1.59665
1.415
1.29879
1.31108
1.34669
1.33446
1.33342
1.3887
1.42487
1.4124
1.60898
1.43584
1.33128
1.32862
1.35069
1.33563
1.3334
1.38435
1.42302
1.40682
1.61751
1.45681
1.36611
1.34943
1.35897
1.33912
1.33627
1.38139
1.4236
1.40472
1.62519
1.47885
1.40143
1.37587
1.37033
1.34374
1.34032
1.37892
1.42613
1.40451
1.62869
1.50313
1.43568
1.40189
1.38187
1.34998
1.34305
1.376
1.4292
1.40587
2.26379
2.26459
2.23682
2.21113
2.18977
2.16997
2.1483
2.12151
2.08336
2.03435
2.12946
2.17719
2.16422
2.15764
2.14698
2.13293
2.11389
2.08751
2.04422
1.95431
1.97075
2.06329
2.06851
2.07516
2.07342
2.06738
2.05475
2.03286
1.99155
1.87784
1.75186
1.89309
1.9305
1.94055
1.94635
1.94881
1.94412
1.9311
1.89852
1.79085
1.44681
1.73089
1.8142
1.83572
1.84251
1.84543
1.8408
1.83091
1.80508
1.72002
1.21602
1.48868
1.71587
1.7719
1.76957
1.76673
1.76008
1.7502
1.72404
1.66733
1.12293
1.18797
1.56806
1.7348
1.74581
1.73387
1.72076
1.70838
1.67938
1.64232
1.09443
1.09765
1.24036
1.65421
1.73842
1.72979
1.71541
1.69901
1.66645
1.63582
1.07889
1.08108
1.08842
1.38078
1.71586
1.73523
1.72141
1.70284
1.66927
1.63866
1.06606
1.06906
1.07122
1.10753
1.59188
1.75348
1.73644
1.71061
1.67726
1.64765
1.05432
1.05646
1.05891
1.06147
1.23898
1.71196
1.7415
1.7195
1.68735
1.65808
1.04586
1.04814
1.05057
1.05282
1.06576
1.5199
1.7447
1.73245
1.70037
1.66947
1.03926
1.04112
1.04357
1.04621
1.04834
1.17714
1.69179
1.74123
1.71212
1.68054
1.03404
1.03523
1.03697
1.03887
1.04089
1.05069
1.50359
1.73312
1.71869
1.68855
1.02983
1.03096
1.03223
1.03395
1.03601
1.03832
1.18306
1.67995
1.72447
1.69653
1.02695
1.028
1.02915
1.03067
1.03229
1.03396
1.04878
1.53838
1.71953
1.70123
1.02461
1.02546
1.02658
1.02781
1.02932
1.0309
1.03361
1.25019
1.68476
1.70307
1.02278
1.0235
1.02446
1.0255
1.02687
1.02832
1.02988
1.06925
1.59085
1.70253
1.02141
1.02201
1.02279
1.02368
1.02484
1.02616
1.02756
1.03274
1.38605
1.67827
1.02038
1.02089
1.02151
1.02227
1.02321
1.02437
1.02571
1.0278
1.14833
1.62605
1.00052
1.00163
1.00285
1.00418
1.00567
1.00731
1.00912
1.01129
1.01294
1.44963
1.00052
1.00163
1.00285
1.00418
1.00567
1.00731
1.00912
1.01129
1.01296
1.41054
1.00052
1.00163
1.00285
1.00418
1.00567
1.00731
1.00911
1.01129
1.01297
1.32989
1.00052
1.00163
1.00285
1.00418
1.00567
1.00731
1.00911
1.01129
1.01296
1.22877
1.00052
1.00163
1.00285
1.00418
1.00567
1.00731
1.00911
1.01129
1.01294
1.15099
1.00052
1.00163
1.00285
1.00418
1.00567
1.00731
1.00911
1.01129
1.01293
1.10849
1.00052
1.00163
1.00285
1.00418
1.00567
1.00731
1.00911
1.0113
1.01293
1.08463
1.00052
1.00163
1.00285
1.00418
1.00567
1.00731
1.00911
1.0113
1.01294
1.06943
1.00052
1.00163
1.00285
1.00419
1.00567
1.00731
1.00911
1.0113
1.01294
1.05786
1.00052
1.00163
1.00285
1.00419
1.00567
1.00731
1.0091
1.0113
1.01295
1.04725
1.00052
1.00163
1.00285
1.00419
1.00567
1.00731
1.0091
1.01129
1.01297
1.04053
1.00052
1.00163
1.00285
1.00419
1.00567
1.00731
1.0091
1.01129
1.01298
1.03435
1.00052
1.00163
1.00285
1.00419
1.00567
1.00731
1.0091
1.01128
1.013
1.02936
1.00052
1.00163
1.00285
1.00419
1.00567
1.00731
1.00911
1.01128
1.01302
1.02653
1.00052
1.00163
1.00285
1.00419
1.00567
1.00731
1.00911
1.01127
1.01304
1.02386
1.00052
1.00163
1.00285
1.00419
1.00567
1.00731
1.00911
1.01127
1.01306
1.02174
1.00052
1.00163
1.00285
1.00419
1.00567
1.00731
1.00911
1.01126
1.01309
1.0202
1.00052
1.00163
1.00285
1.00419
1.00567
1.00731
1.00911
1.01125
1.01312
1.01907
1.00052
1.00163
1.00285
1.00419
1.00567
1.00731
1.00911
1.01124
1.01315
1.01828
1.00052
1.00163
1.00285
1.00419
1.00567
1.00731
1.00911
1.01123
1.01318
1.01768
1.00052
1.00163
1.00285
1.00419
1.00567
1.00731
1.00911
1.01123
1.01318
1.01768
1.00052
1.00163
1.00285
1.00419
1.00567
1.00731
1.00911
1.01124
1.01315
1.01828
1.00052
1.00163
1.00285
1.00419
1.00567
1.00731
1.00911
1.01125
1.01312
1.01907
1.00052
1.00163
1.00285
1.00419
1.00567
1.00731
1.00911
1.01126
1.01309
1.0202
1.00052
1.00163
1.00285
1.00419
1.00567
1.00731
1.00911
1.01127
1.01306
1.02173
1.00052
1.00163
1.00285
1.00419
1.00567
1.00731
1.00911
1.01127
1.01304
1.02384
1.00052
1.00163
1.00285
1.00419
1.00567
1.00731
1.00911
1.01128
1.01302
1.02652
1.00052
1.00163
1.00285
1.00419
1.00567
1.00731
1.0091
1.01128
1.013
1.02934
1.00052
1.00163
1.00285
1.00419
1.00567
1.00731
1.0091
1.01129
1.01298
1.03431
1.00052
1.00163
1.00285
1.00419
1.00567
1.00731
1.0091
1.01129
1.01297
1.04049
1.00052
1.00163
1.00285
1.00419
1.00567
1.00731
1.00911
1.0113
1.01295
1.04719
1.00052
1.00163
1.00285
1.00419
1.00567
1.00731
1.00911
1.0113
1.01294
1.05779
1.00052
1.00163
1.00285
1.00418
1.00567
1.00731
1.00911
1.0113
1.01294
1.06935
1.00052
1.00163
1.00285
1.00418
1.00567
1.00731
1.00911
1.0113
1.01293
1.08448
1.00052
1.00163
1.00285
1.00418
1.00567
1.00731
1.00911
1.01129
1.01293
1.10824
1.00052
1.00163
1.00285
1.00418
1.00567
1.00731
1.00911
1.01129
1.01294
1.15053
1.00052
1.00163
1.00285
1.00418
1.00567
1.00731
1.00911
1.01129
1.01296
1.22812
1.00052
1.00163
1.00285
1.00418
1.00567
1.00731
1.00911
1.01129
1.01297
1.32913
1.00052
1.00163
1.00285
1.00418
1.00567
1.00731
1.00912
1.01129
1.01296
1.40999
1.00052
1.00163
1.00285
1.00418
1.00567
1.00731
1.00912
1.01129
1.01295
1.44939
1.02038
1.02089
1.02151
1.02227
1.02321
1.02437
1.02571
1.02777
1.14564
1.62659
1.02141
1.02201
1.02278
1.02367
1.02483
1.02616
1.02756
1.03264
1.38323
1.6795
1.02277
1.02349
1.02445
1.02549
1.02686
1.02831
1.02988
1.0682
1.59112
1.70391
1.02461
1.02546
1.02658
1.02781
1.02931
1.0309
1.03359
1.2475
1.68609
1.70442
1.02694
1.028
1.02915
1.03068
1.03229
1.03396
1.04825
1.53747
1.72073
1.70288
1.02982
1.03095
1.03222
1.03394
1.036
1.03829
1.17989
1.68103
1.72567
1.69853
1.03402
1.0352
1.03693
1.03882
1.04085
1.0504
1.50007
1.73427
1.71996
1.69074
1.03922
1.04107
1.04351
1.04615
1.04827
1.17464
1.69152
1.7427
1.71355
1.68277
1.04581
1.04808
1.05053
1.0528
1.06546
1.51646
1.74503
1.73358
1.70191
1.67174
1.05427
1.0564
1.05887
1.06142
1.23691
1.71102
1.74245
1.72084
1.68902
1.66007
1.06599
1.069
1.07116
1.10678
1.59025
1.75421
1.73733
1.71183
1.67899
1.64936
1.07881
1.08101
1.08824
1.37873
1.71561
1.73595
1.72223
1.70388
1.67093
1.63986
1.09428
1.09744
1.23898
1.65374
1.73885
1.73051
1.7165
1.70018
1.66796
1.63665
1.12256
1.18686
1.56739
1.73435
1.74677
1.73495
1.7221
1.70949
1.68052
1.64313
1.21494
1.48751
1.7155
1.77236
1.77024
1.76762
1.76132
1.75151
1.72495
1.66821
1.44511
1.73031
1.81396
1.83568
1.84278
1.8462
1.84189
1.83224
1.80592
1.72083
1.74997
1.89243
1.9303
1.94029
1.94642
1.94935
1.94487
1.93213
1.8992
1.79178
1.96939
2.06226
2.06813
2.07507
2.07353
2.0678
2.05543
2.03377
1.99215
1.87823
2.12862
2.17645
2.16379
2.1575
2.14701
2.13323
2.11442
2.08814
2.04485
1.95315
2.26321
2.264
2.23633
2.21083
2.18972
2.17006
2.14858
2.12217
2.08406
2.03206
1.62959
1.51506
1.43967
1.39482
1.34451
1.32513
1.36099
1.41248
1.41696
1.39518
1.62525
1.49368
1.40664
1.37017
1.32516
1.31737
1.36633
1.41523
1.41313
1.39227
1.6166
1.47506
1.37478
1.34488
1.3035
1.31184
1.37412
1.41548
1.41025
1.3904
1.60711
1.45676
1.34506
1.32003
1.28183
1.30405
1.38349
1.41496
1.40903
1.39006
1.5943
1.43848
1.31782
1.29389
1.26234
1.29584
1.39377
1.41541
1.40866
1.39385
1.58089
1.41962
1.29347
1.26706
1.24554
1.29027
1.40417
1.41881
1.41107
1.3989
1.56523
1.40119
1.27265
1.24056
1.23114
1.28624
1.41422
1.42639
1.41698
1.40665
1.54922
1.38322
1.25699
1.21852
1.22333
1.28991
1.42482
1.43827
1.42686
1.41691
1.53509
1.36746
1.24715
1.20438
1.22048
1.29962
1.4368
1.45509
1.44142
1.43073
1.51979
1.35522
1.244
1.20099
1.22194
1.31599
1.45066
1.47607
1.4608
1.44782
1.51036
1.3466
1.24602
1.20381
1.2272
1.33633
1.4677
1.50052
1.48268
1.46669
1.50539
1.34295
1.25789
1.21575
1.23683
1.35774
1.48923
1.52673
1.50663
1.48638
1.50436
1.34379
1.27929
1.23638
1.25134
1.37961
1.51134
1.55552
1.53146
1.50584
1.51699
1.35611
1.31116
1.26725
1.26929
1.39914
1.53487
1.58826
1.55711
1.52499
1.53859
1.37566
1.34954
1.30707
1.28567
1.41806
1.56131
1.62647
1.58516
1.54421
1.57265
1.40521
1.39793
1.3486
1.30099
1.44003
1.59242
1.6726
1.61888
1.56478
1.60572
1.44675
1.45812
1.40388
1.3247
1.4671
1.62879
1.73041
1.66289
1.588
1.63922
1.51248
1.53738
1.47021
1.36311
1.49998
1.66967
1.8
1.7192
1.61545
1.66365
1.6118
1.64193
1.54812
1.4163
1.53759
1.71534
1.8736
1.78503
1.6476
1.69752
1.73296
1.73897
1.61073
1.47554
1.57708
1.76556
1.9374
1.8498
1.68155
1.02067
1.45987
1.84366
1.78958
1.72118
1.65637
1.5853
1.49905
1.38759
1.2951
1.02068
1.46202
1.84241
1.7895
1.7205
1.65482
1.58375
1.49755
1.38737
1.29663
1.02066
1.46751
1.84141
1.78881
1.71898
1.65249
1.58121
1.4948
1.38673
1.29867
1.02066
1.47632
1.84019
1.78653
1.71653
1.64962
1.57776
1.49066
1.38589
1.30203
1.02065
1.48792
1.83817
1.78284
1.71355
1.64603
1.5733
1.48511
1.38505
1.30705
1.02064
1.50159
1.83481
1.778
1.70924
1.64162
1.56771
1.47803
1.38401
1.31378
1.02063
1.51735
1.8298
1.77203
1.70372
1.63625
1.56077
1.46964
1.38342
1.32296
1.02062
1.53494
1.82281
1.76467
1.69695
1.62958
1.55216
1.46039
1.38317
1.33488
1.0206
1.55244
1.81326
1.75581
1.6892
1.62123
1.54148
1.45057
1.38264
1.35016
1.02071
1.56634
1.80142
1.74543
1.67972
1.6104
1.52854
1.44087
1.38204
1.36753
1.02182
1.57704
1.78708
1.73187
1.66717
1.59644
1.51319
1.43155
1.38327
1.3847
1.02875
1.59301
1.7687
1.71477
1.65045
1.5784
1.49525
1.42328
1.38698
1.40003
1.0566
1.61205
1.74883
1.69528
1.62859
1.55523
1.47481
1.41624
1.39469
1.41385
1.12014
1.64595
1.72668
1.67104
1.5995
1.52733
1.45224
1.41095
1.40629
1.42301
1.22198
1.69118
1.69482
1.63934
1.56676
1.49069
1.42747
1.40558
1.41826
1.4265
1.32748
1.71022
1.66626
1.59739
1.52222
1.45383
1.40571
1.39876
1.42688
1.42365
1.41356
1.69062
1.63008
1.55339
1.48115
1.42081
1.38869
1.39169
1.42923
1.418
1.50878
1.63937
1.59453
1.51355
1.44303
1.39092
1.37432
1.38776
1.42865
1.411
1.57756
1.58397
1.54708
1.47459
1.40622
1.36519
1.36283
1.39103
1.42668
1.40468
1.62153
1.54678
1.49014
1.43029
1.37118
1.34158
1.35692
1.40333
1.42305
1.39972
1.62106
1.53767
1.48543
1.43665
1.40025
1.36137
1.34658
1.37013
1.43134
1.40955
1.57718
1.57961
1.54309
1.47569
1.42722
1.38048
1.35339
1.36496
1.42895
1.41355
1.5085
1.63633
1.58987
1.51262
1.45657
1.40381
1.36282
1.3683
1.42508
1.41576
1.41422
1.68798
1.62721
1.55245
1.48942
1.4314
1.37595
1.37723
1.41857
1.4172
1.32645
1.70811
1.66474
1.59611
1.52626
1.4647
1.39624
1.3855
1.40689
1.41802
1.22205
1.68954
1.69307
1.63808
1.56708
1.49506
1.42087
1.39243
1.39593
1.41541
1.12112
1.64452
1.7257
1.66999
1.60015
1.52714
1.44665
1.40039
1.38925
1.40843
1.05737
1.61117
1.74857
1.69508
1.62888
1.55544
1.47084
1.41056
1.38482
1.39958
1.029
1.59317
1.76866
1.71455
1.65082
1.57866
1.49243
1.42051
1.38307
1.39071
1.02186
1.57842
1.7873
1.73186
1.66759
1.59675
1.51106
1.43032
1.38308
1.38132
1.02071
1.56845
1.80181
1.74566
1.68033
1.61076
1.5268
1.44046
1.38383
1.37004
1.0206
1.55524
1.81368
1.75611
1.69002
1.62165
1.53997
1.45072
1.38511
1.35675
1.02062
1.53793
1.82332
1.76507
1.69782
1.63013
1.551
1.46063
1.38631
1.34279
1.02063
1.52
1.83043
1.77263
1.70482
1.63717
1.56024
1.46961
1.38692
1.33032
1.02064
1.50359
1.83558
1.77893
1.71083
1.6432
1.56801
1.47764
1.38712
1.32029
1.02065
1.48908
1.83906
1.78413
1.71554
1.64824
1.57444
1.48458
1.38719
1.3129
1.02066
1.47657
1.84109
1.78793
1.71876
1.65227
1.57961
1.49036
1.38667
1.30785
1.02066
1.46685
1.84219
1.79056
1.72134
1.65533
1.58357
1.49493
1.38608
1.30488
1.02068
1.46061
1.84303
1.79145
1.72288
1.65771
1.58643
1.49827
1.38572
1.30339
1.02067
1.45808
1.84412
1.79158
1.72372
1.65928
1.5882
1.50028
1.38541
1.30121
1.01949
1.01993
1.02042
1.02106
1.02176
1.02271
1.02381
1.02497
1.04009
1.46166
1.01873
1.01909
1.01951
1.02
1.02055
1.02125
1.02205
1.02307
1.02407
1.13911
1.0182
1.0185
1.01887
1.01928
1.01975
1.02029
1.02093
1.02175
1.02234
1.02979
1.01787
1.01814
1.01845
1.0188
1.0192
1.01965
1.02018
1.0208
1.02153
1.02207
1.01766
1.01791
1.01818
1.01849
1.01884
1.01923
1.01969
1.02019
1.02088
1.02131
1.01754
1.01777
1.01803
1.01831
1.01863
1.01898
1.01939
1.01981
1.02042
1.02083
1.01746
1.01768
1.01793
1.0182
1.0185
1.01882
1.0192
1.01958
1.02011
1.02048
1.01742
1.01763
1.01787
1.01813
1.01842
1.01873
1.01908
1.01945
1.01991
1.02026
1.0174
1.01761
1.01784
1.01809
1.01837
1.01867
1.019
1.01936
1.01979
1.02013
1.01739
1.0176
1.01782
1.01807
1.01834
1.01863
1.01896
1.01931
1.01972
1.02009
1.0174
1.0176
1.01782
1.01807
1.01833
1.01862
1.01894
1.01928
1.01966
1.02011
1.0174
1.01761
1.01783
1.01807
1.01833
1.01862
1.01893
1.01927
1.01963
1.02012
1.01741
1.01762
1.01784
1.01808
1.01834
1.01863
1.01893
1.01927
1.01962
1.02011
1.01742
1.01763
1.01785
1.01809
1.01835
1.01863
1.01894
1.01927
1.01962
1.02009
1.01744
1.01764
1.01786
1.0181
1.01836
1.01864
1.01894
1.01928
1.01962
1.02008
1.01744
1.01765
1.01787
1.01811
1.01837
1.01865
1.01895
1.01928
1.01963
1.02008
1.01745
1.01766
1.01788
1.01812
1.01837
1.01865
1.01895
1.01928
1.01963
1.02007
1.01746
1.01766
1.01788
1.01812
1.01838
1.01866
1.01896
1.01928
1.01963
1.02007
1.01747
1.01767
1.01789
1.01813
1.01838
1.01866
1.01896
1.01929
1.01963
1.02007
1.01747
1.01767
1.01788
1.01811
1.01836
1.01864
1.01894
1.01927
1.01962
1.02007
1.00052
1.00163
1.00285
1.00419
1.00567
1.00731
1.00911
1.01122
1.01322
1.01715
1.00052
1.00163
1.00285
1.00419
1.00567
1.00731
1.00911
1.01121
1.01326
1.01668
1.00052
1.00163
1.00285
1.00419
1.00567
1.00731
1.00912
1.0112
1.0133
1.01638
1.00052
1.00163
1.00285
1.00419
1.00567
1.00731
1.00912
1.0112
1.01333
1.0162
1.00052
1.00163
1.00285
1.00419
1.00567
1.00731
1.00912
1.01119
1.01336
1.01609
1.00052
1.00163
1.00285
1.00419
1.00566
1.00731
1.00912
1.01119
1.01338
1.01603
1.00052
1.00163
1.00285
1.00419
1.00566
1.00731
1.00912
1.01119
1.01339
1.01599
1.00052
1.00163
1.00285
1.00419
1.00566
1.00731
1.00912
1.01119
1.01341
1.01597
1.00052
1.00163
1.00284
1.00419
1.00566
1.00731
1.00912
1.01119
1.01342
1.01596
1.00052
1.00163
1.00284
1.00419
1.00566
1.00731
1.00912
1.01119
1.01343
1.01597
1.00052
1.00163
1.00284
1.00419
1.00566
1.00731
1.00912
1.01118
1.01343
1.01597
1.00052
1.00163
1.00284
1.00419
1.00566
1.00731
1.00912
1.01117
1.01344
1.01598
1.00052
1.00163
1.00284
1.00419
1.00566
1.00731
1.00912
1.01117
1.01344
1.01599
1.00052
1.00163
1.00284
1.00419
1.00567
1.00731
1.00913
1.01116
1.01344
1.01599
1.00052
1.00163
1.00284
1.00419
1.00567
1.00731
1.00913
1.01116
1.01344
1.016
1.00052
1.00163
1.00284
1.00419
1.00567
1.00731
1.00913
1.01116
1.01344
1.01601
1.00052
1.00163
1.00284
1.00419
1.00567
1.00731
1.00913
1.01116
1.01344
1.01601
1.00052
1.00163
1.00284
1.00419
1.00567
1.00731
1.00913
1.01116
1.01343
1.01602
1.00052
1.00163
1.00284
1.00419
1.00567
1.00731
1.00913
1.01116
1.01343
1.01602
1.00052
1.00163
1.00284
1.00419
1.00567
1.00731
1.00914
1.01116
1.01343
1.01604
1.00052
1.00163
1.00284
1.00419
1.00567
1.00731
1.00914
1.01116
1.01343
1.01604
1.00052
1.00163
1.00284
1.00419
1.00567
1.00731
1.00913
1.01116
1.01343
1.01602
1.00052
1.00163
1.00284
1.00419
1.00567
1.00731
1.00913
1.01116
1.01343
1.01602
1.00052
1.00163
1.00284
1.00419
1.00567
1.00731
1.00913
1.01116
1.01344
1.01601
1.00052
1.00163
1.00284
1.00419
1.00567
1.00731
1.00913
1.01116
1.01344
1.01601
1.00052
1.00163
1.00284
1.00419
1.00567
1.00731
1.00913
1.01116
1.01344
1.016
1.00052
1.00163
1.00284
1.00419
1.00567
1.00731
1.00913
1.01116
1.01344
1.01599
1.00052
1.00163
1.00284
1.00419
1.00566
1.00731
1.00912
1.01117
1.01344
1.01599
1.00052
1.00163
1.00284
1.00419
1.00566
1.00731
1.00912
1.01117
1.01344
1.01598
1.00052
1.00163
1.00284
1.00419
1.00566
1.00731
1.00912
1.01118
1.01343
1.01597
1.00052
1.00163
1.00284
1.00419
1.00566
1.00731
1.00912
1.01119
1.01343
1.01597
1.00052
1.00163
1.00284
1.00419
1.00566
1.00731
1.00912
1.01119
1.01342
1.01596
1.00052
1.00163
1.00285
1.00419
1.00566
1.00731
1.00912
1.01119
1.01341
1.01597
1.00052
1.00163
1.00285
1.00419
1.00566
1.00731
1.00912
1.01119
1.01339
1.01599
1.00052
1.00163
1.00285
1.00419
1.00566
1.00731
1.00912
1.01119
1.01338
1.01603
1.00052
1.00163
1.00285
1.00419
1.00567
1.00731
1.00912
1.01119
1.01336
1.01609
1.00052
1.00163
1.00285
1.00419
1.00567
1.00731
1.00912
1.0112
1.01333
1.0162
1.00052
1.00163
1.00285
1.00419
1.00567
1.00731
1.00912
1.0112
1.0133
1.01638
1.00052
1.00163
1.00285
1.00419
1.00567
1.00731
1.00911
1.01121
1.01326
1.01668
1.00052
1.00163
1.00285
1.00419
1.00567
1.00731
1.00911
1.01122
1.01322
1.01715
1.01747
1.01767
1.01788
1.01811
1.01836
1.01864
1.01894
1.01927
1.01962
1.02007
1.01747
1.01767
1.01789
1.01813
1.01838
1.01866
1.01896
1.01929
1.01963
1.02007
1.01746
1.01766
1.01788
1.01812
1.01838
1.01866
1.01896
1.01928
1.01963
1.02007
1.01745
1.01766
1.01788
1.01812
1.01837
1.01865
1.01895
1.01928
1.01963
1.02007
1.01744
1.01765
1.01787
1.01811
1.01837
1.01865
1.01895
1.01928
1.01963
1.02008
1.01744
1.01764
1.01786
1.0181
1.01836
1.01864
1.01894
1.01928
1.01962
1.02008
1.01742
1.01763
1.01785
1.01809
1.01835
1.01863
1.01894
1.01927
1.01962
1.02009
1.01741
1.01762
1.01784
1.01808
1.01834
1.01863
1.01893
1.01927
1.01962
1.02011
1.0174
1.01761
1.01783
1.01807
1.01833
1.01862
1.01893
1.01927
1.01963
1.02012
1.0174
1.0176
1.01782
1.01807
1.01833
1.01862
1.01894
1.01929
1.01966
1.02011
1.01739
1.0176
1.01782
1.01807
1.01834
1.01863
1.01896
1.01931
1.01972
1.02009
1.0174
1.01761
1.01784
1.01809
1.01837
1.01867
1.019
1.01936
1.01979
1.02013
1.01742
1.01763
1.01787
1.01813
1.01842
1.01873
1.01908
1.01945
1.01991
1.02026
1.01746
1.01768
1.01793
1.0182
1.0185
1.01882
1.0192
1.01958
1.02011
1.02048
1.01754
1.01777
1.01803
1.01831
1.01863
1.01898
1.01939
1.01981
1.02042
1.02083
1.01766
1.01791
1.01818
1.01849
1.01884
1.01923
1.01969
1.02019
1.02088
1.02132
1.01787
1.01814
1.01845
1.0188
1.0192
1.01965
1.02018
1.0208
1.02153
1.02207
1.0182
1.01851
1.01887
1.01928
1.01975
1.02029
1.02093
1.02175
1.02235
1.02952
1.01873
1.01909
1.01951
1.02001
1.02056
1.02125
1.02205
1.02307
1.02406
1.13703
1.01949
1.01993
1.02042
1.02106
1.02176
1.02271
1.02381
1.02497
1.03952
1.46024
)
;

boundaryField
{
    inlet
    {
        type            fixedValue;
        value           uniform 1;
    }
    outlet
    {
        type            inletOutlet;
        inletValue      uniform 1;
        value           nonuniform List<scalar> 
100
(
1.40945
1.41338
1.41561
1.41709
1.41792
1.41532
1.40837
1.39955
1.39073
1.38137
1.37006
1.35673
1.34273
1.33023
1.32018
1.31277
1.30772
1.30473
1.30323
1.30105
1.72256
1.68633
1.65249
1.6224
1.596
1.57266
1.55145
1.53128
1.5116
1.49215
1.47395
1.4572
1.44265
1.4298
1.41978
1.41234
1.40675
1.40465
1.40446
1.40581
1.71026
1.7325
1.74978
1.76344
1.77581
1.78892
1.80453
1.82262
1.84295
1.85999
1.87087
1.87532
1.87532
1.87067
1.86243
1.84946
1.83281
1.81066
1.78498
1.75625
1.39517
1.39232
1.39045
1.39008
1.3939
1.39896
1.4067
1.41698
1.43079
1.44788
1.46674
1.48641
1.50584
1.52496
1.54411
1.56461
1.58773
1.61503
1.64703
1.68086
1.29499
1.29651
1.29855
1.30191
1.30692
1.31365
1.32283
1.33476
1.35006
1.36744
1.3846
1.39991
1.41374
1.42296
1.42652
1.42368
1.41801
1.41091
1.40453
1.39963
)
;
    }
    triangle
    {
        type            zeroGradient;
    }
    top
    {
        type            symmetryPlane;
    }
    bottom
    {
        type            symmetryPlane;
    }
    defaultFaces
    {
        type            empty;
    }
}


// ************************************************************************* //
