/*--------------------------------*- C++ -*----------------------------------*\
  =========                 |
  \\      /  F ield         | OpenFOAM: The Open Source CFD Toolbox
   \\    /   O peration     | Website:  https://openfoam.org
    \\  /    A nd           | Version:  8
     \\/     M anipulation  |
\*---------------------------------------------------------------------------*/
FoamFile
{
    version     2.0;
    format      ascii;
    class       volScalarField;
    location    "4.6";
    object      rho;
}
// * * * * * * * * * * * * * * * * * * * * * * * * * * * * * * * * * * * * * //

dimensions      [1 -3 0 0 0 0 0];

internalField   nonuniform List<scalar> 
2600
(
1.01814
0.913138
1.06457
1.44958
1.65528
1.78158
1.99673
2.4515
2.51059
2.30285
1.00783
0.863376
1.00819
1.37538
1.60987
1.75727
1.94768
2.42271
2.48619
2.27642
1.01076
0.837492
0.966138
1.30796
1.58245
1.7471
1.92001
2.39226
2.45868
2.25473
1.0165
0.830434
0.938062
1.25373
1.55846
1.73817
1.91317
2.363
2.42875
2.238
1.02321
0.837708
0.926601
1.20045
1.5375
1.72844
1.92238
2.33669
2.39671
2.22136
1.03193
0.854644
0.927155
1.151
1.50987
1.71364
1.93835
2.3122
2.36208
2.20805
1.04029
0.878714
0.941781
1.11545
1.46025
1.69312
1.95231
2.28937
2.32782
2.19552
1.0509
0.908046
0.958323
1.08079
1.40616
1.67815
1.96644
2.26733
2.29349
2.18898
1.06331
0.941076
0.978367
1.04004
1.34829
1.67199
1.97919
2.24446
2.26466
2.18551
1.07845
0.975481
0.995589
1.00005
1.30279
1.68719
1.99435
2.22005
2.24022
2.17963
1.09281
1.0079
1.00695
0.963448
1.27783
1.70827
2.01658
2.19923
2.21943
2.19095
1.10548
1.03849
1.01549
0.938215
1.27412
1.74558
2.03739
2.17463
2.20516
2.2058
1.11809
1.06539
1.02211
0.926107
1.28095
1.79328
2.05572
2.16308
2.19348
2.2248
1.12587
1.08709
1.03135
0.929868
1.29319
1.8441
2.07567
2.15014
2.185
2.24357
1.13523
1.10783
1.04403
0.95214
1.31239
1.90517
2.09258
2.15648
2.17675
2.25829
1.14221
1.1254
1.0576
0.983757
1.32105
1.96555
2.11936
2.15756
2.17143
2.27201
1.14812
1.14093
1.08114
1.01319
1.31409
2.02791
2.15165
2.16642
2.16617
2.28562
1.1545
1.15486
1.09993
1.02295
1.3005
2.08581
2.19063
2.17466
2.16536
2.30299
1.16063
1.16478
1.11135
1.01874
1.28541
2.13777
2.23509
2.19715
2.17883
2.32567
1.1742
1.18138
1.11612
1.01746
1.27457
2.17953
2.27911
2.23395
2.20895
2.35386
1.42145
1.219
1.13227
1.04022
1.28098
2.20538
2.32143
2.29517
2.26309
2.38792
1.66505
1.29731
1.19384
1.11459
1.32675
2.22079
2.36214
2.37517
2.32686
2.42202
1.86708
1.38481
1.28523
1.21507
1.40194
2.23378
2.39987
2.44947
2.38349
2.44818
2.02856
1.46971
1.38394
1.30325
1.45744
2.23681
2.43713
2.51195
2.43331
2.46858
2.17126
1.55386
1.46167
1.35977
1.48708
2.22779
2.47461
2.55149
2.468
2.48346
2.29656
1.64432
1.52835
1.40926
1.51252
2.2094
2.50865
2.57129
2.48906
2.49295
2.41705
1.74015
1.59189
1.45886
1.54081
2.18414
2.53102
2.58434
2.5072
2.49984
2.53212
1.83783
1.6535
1.50786
1.5729
2.15818
2.54391
2.59992
2.52946
2.50789
2.64717
1.94144
1.717
1.55641
1.60853
2.1336
2.55331
2.61866
2.55818
2.51825
2.76152
2.04912
1.78378
1.606
1.64846
2.1156
2.56235
2.63642
2.5897
2.52948
2.87547
2.16487
1.86067
1.66314
1.69663
2.10816
2.57452
2.65381
2.61827
2.54119
2.98242
2.28723
1.94759
1.72602
1.75323
2.11113
2.58685
2.67447
2.64312
2.55191
3.07451
2.41754
2.04731
1.79775
1.81557
2.11943
2.59684
2.70339
2.66618
2.56122
3.15618
2.54859
2.15507
1.87909
1.87532
2.12872
2.60091
2.73572
2.68738
2.56925
3.23429
2.6792
2.26997
1.97688
1.9295
2.1385
2.59595
2.76615
2.70736
2.57613
3.30599
2.8051
2.38746
2.08299
1.97882
2.15009
2.58101
2.7873
2.72224
2.58128
3.37075
2.92327
2.50619
2.19196
2.02718
2.16593
2.55243
2.798
2.73187
2.58584
3.42992
3.03285
2.6241
2.29714
2.07968
2.1858
2.51284
2.80525
2.73873
2.5924
3.48514
3.13249
2.7382
2.39738
2.14496
2.21216
2.46724
2.79882
2.74174
2.60101
3.54829
3.22683
2.84408
2.4925
2.21945
2.23337
2.41833
2.7703
2.74332
2.61176
3.83957
3.77638
3.67923
3.59088
3.51511
3.45242
3.39276
3.31899
3.19332
3.00971
3.6706
3.64531
3.56324
3.51065
3.463
3.41726
3.3623
3.28055
3.13955
2.9156
3.6763
3.71455
3.63881
3.59535
3.54648
3.49692
3.4332
3.33992
3.1887
2.97936
3.65578
3.76031
3.70262
3.67362
3.63404
3.58402
3.51065
3.40376
3.24377
3.0123
3.63234
3.83961
3.81254
3.79638
3.75554
3.69653
3.60763
3.48853
3.31774
3.06884
3.60458
3.94007
3.92956
3.91242
3.86621
3.80009
3.69719
3.57512
3.39385
3.14343
3.32724
4.03654
4.10871
4.07112
4.00429
3.9198
3.79748
3.67035
3.46978
3.23377
2.76875
3.91195
4.23714
4.19899
4.12621
4.02602
3.89488
3.7621
3.54288
3.33688
2.27303
3.2185
4.28194
4.27489
4.20686
4.11465
3.98709
3.85292
3.63492
3.44469
1.99649
2.30647
3.79114
4.34807
4.27521
4.18166
4.06912
3.93752
3.73085
3.54262
1.86141
1.91115
2.70681
4.16019
4.28972
4.20506
4.10115
3.98723
3.81233
3.62751
1.77615
1.79527
1.92894
3.39432
4.24715
4.20943
4.12671
4.01634
3.85883
3.68134
1.71678
1.73737
1.76001
2.30246
3.93675
4.20356
4.13232
4.03567
3.88868
3.71061
1.66764
1.68718
1.70627
1.7781
3.11192
4.14365
4.12163
4.03471
3.90385
3.73065
1.62377
1.63815
1.65832
1.67471
2.13024
3.79763
4.10998
4.01943
3.89053
3.72963
1.58842
1.59999
1.61417
1.62924
1.69211
3.01657
4.05053
3.98727
3.87397
3.72582
1.56211
1.57245
1.5846
1.60111
1.61629
2.13133
3.79711
3.96408
3.85878
3.71743
1.54163
1.55026
1.56216
1.57638
1.58842
1.67987
3.12849
3.9356
3.84474
3.71928
1.52433
1.53103
1.54104
1.55215
1.56579
1.5831
2.33073
3.69163
3.80436
3.71804
1.51015
1.51554
1.52285
1.53211
1.54486
1.5557
1.76002
3.26302
3.80733
3.76661
1.40195
1.40606
1.4106
1.41561
1.4212
1.42738
1.43425
1.44254
1.44891
2.16253
1.40195
1.40606
1.4106
1.41561
1.4212
1.42738
1.43425
1.44253
1.44895
2.15001
1.40195
1.40606
1.4106
1.41561
1.4212
1.42738
1.43424
1.44253
1.44898
2.1364
1.40195
1.40606
1.4106
1.41561
1.4212
1.42739
1.43424
1.44253
1.44902
2.11445
1.40195
1.40606
1.4106
1.41561
1.4212
1.42739
1.43423
1.44252
1.44904
2.085
1.40195
1.40606
1.4106
1.41561
1.42119
1.42739
1.43423
1.44253
1.44894
2.0441
1.40195
1.40606
1.4106
1.41561
1.42119
1.42739
1.43422
1.44254
1.44888
1.9731
1.40195
1.40606
1.4106
1.41561
1.42119
1.42739
1.43422
1.44255
1.44885
1.89749
1.40195
1.40606
1.4106
1.41562
1.42119
1.42739
1.43422
1.44256
1.44886
1.82354
1.40195
1.40606
1.4106
1.41562
1.42119
1.4274
1.43421
1.44257
1.44887
1.75849
1.40195
1.40606
1.4106
1.41562
1.42119
1.4274
1.43421
1.44257
1.44889
1.70069
1.40195
1.40606
1.4106
1.41562
1.42119
1.4274
1.43421
1.44257
1.44891
1.6576
1.40195
1.40606
1.4106
1.41562
1.42119
1.4274
1.43421
1.44257
1.44894
1.61769
1.40195
1.40606
1.4106
1.41562
1.42119
1.4274
1.43421
1.44256
1.44897
1.58071
1.40195
1.40606
1.4106
1.41562
1.42119
1.4274
1.43421
1.44255
1.44901
1.55779
1.40195
1.40606
1.4106
1.41562
1.42119
1.4274
1.43421
1.44254
1.44905
1.53738
1.40195
1.40606
1.4106
1.41562
1.42119
1.4274
1.43421
1.44252
1.44911
1.51797
1.40195
1.40606
1.4106
1.41562
1.42119
1.4274
1.43421
1.4425
1.44918
1.50405
1.40195
1.40606
1.4106
1.41562
1.42118
1.4274
1.43421
1.44248
1.44925
1.49408
1.40195
1.40606
1.4106
1.41562
1.42118
1.4274
1.43421
1.44246
1.44933
1.48625
1.40195
1.40606
1.4106
1.41562
1.42118
1.4274
1.43421
1.44246
1.44933
1.48624
1.40195
1.40606
1.4106
1.41562
1.42118
1.4274
1.43421
1.44248
1.44925
1.49407
1.40195
1.40606
1.4106
1.41562
1.42119
1.4274
1.43421
1.4425
1.44918
1.50404
1.40195
1.40606
1.4106
1.41562
1.42119
1.4274
1.43421
1.44252
1.44911
1.51798
1.40195
1.40606
1.4106
1.41562
1.42119
1.4274
1.43421
1.44254
1.44905
1.53738
1.40195
1.40606
1.4106
1.41562
1.42119
1.4274
1.43421
1.44255
1.44901
1.55779
1.40195
1.40606
1.4106
1.41562
1.42119
1.4274
1.43421
1.44256
1.44897
1.58076
1.40195
1.40606
1.4106
1.41562
1.42119
1.4274
1.43421
1.44257
1.44894
1.61777
1.40195
1.40606
1.4106
1.41562
1.42119
1.4274
1.43421
1.44257
1.44891
1.65767
1.40195
1.40606
1.4106
1.41562
1.42119
1.4274
1.43421
1.44257
1.44889
1.70082
1.40195
1.40606
1.4106
1.41562
1.42119
1.4274
1.43421
1.44257
1.44887
1.75867
1.40195
1.40606
1.4106
1.41562
1.42119
1.42739
1.43422
1.44256
1.44886
1.82378
1.40195
1.40606
1.4106
1.41561
1.42119
1.42739
1.43422
1.44255
1.44885
1.89776
1.40195
1.40606
1.4106
1.41561
1.42119
1.42739
1.43422
1.44254
1.44888
1.97336
1.40195
1.40606
1.4106
1.41561
1.42119
1.42739
1.43423
1.44253
1.44894
2.04425
1.40195
1.40606
1.4106
1.41561
1.4212
1.42739
1.43423
1.44252
1.44904
2.0851
1.40195
1.40606
1.4106
1.41561
1.4212
1.42739
1.43424
1.44253
1.44902
2.11452
1.40195
1.40606
1.4106
1.41561
1.4212
1.42738
1.43424
1.44253
1.44898
2.13644
1.40195
1.40606
1.4106
1.41561
1.4212
1.42738
1.43425
1.44253
1.44895
2.15003
1.40195
1.40606
1.4106
1.41561
1.4212
1.42738
1.43425
1.44254
1.44894
2.16255
1.51013
1.51552
1.52284
1.53209
1.54484
1.55567
1.76317
3.26706
3.80697
3.76126
1.52431
1.53101
1.54103
1.55213
1.56574
1.58317
2.33771
3.69097
3.80346
3.71098
1.54162
1.55025
1.56213
1.57636
1.58837
1.68123
3.13492
3.93411
3.84324
3.70973
1.56209
1.57243
1.58456
1.60106
1.61629
2.13617
3.79879
3.96167
3.85632
3.70666
1.58843
1.6
1.61419
1.62923
1.69289
3.02182
4.05101
3.98439
3.87036
3.7133
1.62382
1.63822
1.6584
1.67481
2.13422
3.80043
4.10965
4.01553
3.88489
3.71586
1.66771
1.68726
1.70632
1.77886
3.11729
4.14312
4.12075
4.02996
3.89679
3.71264
1.71684
1.73741
1.76012
2.30608
3.9394
4.20211
4.13072
4.03098
3.87785
3.69256
1.7763
1.79542
1.93032
3.39809
4.24821
4.20824
4.12439
4.01111
3.84448
3.66212
1.86169
1.91169
2.71127
4.16072
4.29035
4.20313
4.09691
3.98196
3.7925
3.60921
1.99705
2.30882
3.79407
4.34737
4.27471
4.17961
4.06263
3.9319
3.70684
3.52801
2.27433
3.22197
4.28276
4.2739
4.20541
4.11222
3.97917
3.84649
3.61182
3.43185
2.77076
3.91363
4.23659
4.1978
4.12367
4.0227
3.88669
3.75344
3.5265
3.3247
3.32902
4.03621
4.10777
4.06985
4.00097
3.91584
3.78932
3.65981
3.45609
3.22432
3.60455
3.9395
3.92853
3.91102
3.86291
3.79567
3.68971
3.56426
3.37994
3.13716
3.63235
3.83908
3.8115
3.7948
3.75274
3.69217
3.60069
3.47804
3.30434
3.0619
3.6557
3.75982
3.70176
3.6724
3.63168
3.58015
3.50441
3.39418
3.23147
3.00313
3.67616
3.71423
3.63818
3.59429
3.54459
3.49366
3.42776
3.33143
3.1775
2.96737
3.67045
3.64508
3.56281
3.50984
3.46143
3.41438
3.35733
3.27257
3.12863
2.90001
3.83953
3.77624
3.67894
3.59025
3.51394
3.45013
3.38878
3.31235
3.18391
2.99328
3.54325
3.17512
2.79953
2.52718
2.38069
2.25064
2.31105
2.66355
2.74772
2.63336
3.47816
3.07215
2.69184
2.44295
2.31934
2.23687
2.33258
2.71709
2.75416
2.6348
3.42153
2.96502
2.57671
2.35422
2.2602
2.22193
2.35566
2.75186
2.75764
2.63573
3.36012
2.85001
2.45826
2.26254
2.20868
2.20599
2.3792
2.76253
2.76199
2.6365
3.29246
2.72809
2.33948
2.16894
2.16482
2.18819
2.40315
2.76442
2.76496
2.63584
3.21465
2.60125
2.22068
2.08374
2.12747
2.17377
2.42951
2.76498
2.76391
2.63036
3.12823
2.47296
2.10189
2.01684
2.0885
2.1668
2.45849
2.75631
2.75675
2.61991
3.03349
2.346
1.98802
1.9613
2.05547
2.16836
2.47224
2.74111
2.73902
2.60624
2.93
2.22407
1.88023
1.91109
2.03389
2.17416
2.46666
2.7218
2.71664
2.59298
2.81403
2.11153
1.78223
1.86361
2.02255
2.1775
2.4442
2.69524
2.69307
2.58132
2.68755
2.00098
1.69814
1.81402
2.01874
2.17163
2.41112
2.67275
2.67366
2.57151
2.56302
1.88957
1.6312
1.765
2.01699
2.15563
2.38652
2.65946
2.66009
2.56218
2.43727
1.77246
1.57329
1.71625
2.01256
2.14231
2.36983
2.64893
2.64919
2.55209
2.31478
1.6465
1.51952
1.67505
2.00495
2.13677
2.35878
2.6364
2.63713
2.53927
2.18743
1.5123
1.45768
1.63968
1.99601
2.14695
2.35427
2.61991
2.62182
2.52098
2.05399
1.37742
1.39372
1.61806
1.9788
2.14189
2.34598
2.59767
2.60414
2.49528
1.90655
1.23297
1.32134
1.6047
1.94119
2.11482
2.32064
2.57162
2.58655
2.46327
1.73122
1.11985
1.24546
1.59289
1.874
2.04873
2.26013
2.54195
2.56937
2.42571
1.5042
1.0377
1.17446
1.57555
1.79626
1.94508
2.17149
2.51147
2.55218
2.38307
1.244
0.969471
1.11312
1.5177
1.71482
1.84796
2.0727
2.48093
2.53271
2.33915
2.59598
4.11314
3.85147
3.60251
3.31227
3.00229
2.68881
2.36076
1.96857
1.73137
2.60464
4.11322
3.84826
3.59814
3.30896
2.99829
2.68342
2.35381
1.97148
1.74069
2.62213
4.11343
3.84412
3.59628
3.30589
2.99129
2.67413
2.34189
1.97608
1.75082
2.64808
4.11022
3.83708
3.59172
3.29803
2.98162
2.6607
2.32516
1.98286
1.76981
2.68439
4.10302
3.82864
3.58481
3.28694
2.96838
2.64264
2.30455
1.99097
1.79465
2.72776
4.09269
3.82006
3.57411
3.27095
2.95034
2.61977
2.28198
1.99708
1.82928
2.77681
4.08189
3.8092
3.55746
3.24995
2.92815
2.59246
2.25883
1.99781
1.87421
2.8335
4.06958
3.79519
3.53498
3.22369
2.90139
2.56061
2.23599
1.99468
1.93012
2.89922
4.0555
3.77818
3.50703
3.1925
2.86989
2.5241
2.21372
1.99482
1.98994
2.97631
4.04114
3.75799
3.47391
3.15727
2.83375
2.4838
2.1915
2.00636
2.04974
3.06895
4.02433
3.73407
3.43695
3.11891
2.7933
2.44089
2.17222
2.02978
2.10838
3.18338
3.9987
3.70492
3.39772
3.07894
2.749
2.39661
2.15553
2.06646
2.16807
3.33505
3.96406
3.66864
3.35589
3.03718
2.7006
2.35209
2.13985
2.1125
2.23079
3.55328
3.92586
3.61784
3.30952
2.99178
2.64964
2.31196
2.13607
2.16647
2.29565
3.8285
3.86018
3.54737
3.24541
2.93333
2.60391
2.27969
2.14585
2.24674
2.36263
4.01951
3.78092
3.45107
3.17379
2.87954
2.54497
2.26367
2.1674
2.3534
2.43037
4.07024
3.68496
3.34398
3.0615
2.78693
2.48356
2.25744
2.21049
2.4705
2.48784
4.00977
3.59391
3.23848
2.94051
2.69654
2.42689
2.25985
2.28401
2.57854
2.54178
3.83039
3.48751
3.10386
2.8027
2.58753
2.35599
2.26887
2.3984
2.66139
2.59499
3.64894
3.31652
2.94456
2.6514
2.47035
2.28904
2.2845
2.54666
2.71767
2.62189
3.65284
3.35797
2.98322
2.63078
2.33267
2.26612
2.3569
2.68684
2.73126
2.6197
3.83328
3.51333
3.13712
2.79234
2.48622
2.32549
2.32993
2.5508
2.69898
2.61401
4.01077
3.61673
3.25428
2.92692
2.62875
2.38211
2.31603
2.42989
2.64362
2.57423
4.0721
3.69699
3.37037
3.05486
2.73751
2.43903
2.31119
2.34075
2.57321
2.52481
4.01922
3.79014
3.46233
3.174
2.83981
2.50091
2.30644
2.26369
2.47565
2.47328
3.82378
3.86602
3.5579
3.24482
2.93794
2.57318
2.31348
2.20671
2.3585
2.42208
3.54737
3.92723
3.62222
3.30922
2.97539
2.64399
2.33151
2.17168
2.24292
2.3594
3.33049
3.96214
3.66878
3.35272
3.02551
2.6953
2.35844
2.1551
2.149
2.28008
3.17915
3.99537
3.70243
3.39428
3.068
2.74326
2.39522
2.15893
2.07169
2.19391
3.06393
4.0202
3.73045
3.43283
3.11094
2.78766
2.43837
2.16914
2.02239
2.11483
2.971
4.03679
3.75356
3.46934
3.15113
2.82854
2.4833
2.18423
1.9968
2.04128
2.8943
4.05125
3.77351
3.50195
3.18715
2.86509
2.52681
2.20728
1.98875
1.96967
2.82955
4.06565
3.79073
3.52961
3.21799
2.89636
2.56569
2.23448
1.99253
1.89858
2.77438
4.07875
3.80522
3.55194
3.2434
2.92227
2.59813
2.26449
1.99368
1.83813
2.72729
4.09062
3.81677
3.56861
3.26354
2.94331
2.62418
2.29277
1.98921
1.79406
2.68617
4.10213
3.826
3.57965
3.27952
2.96073
2.64451
2.31686
1.98435
1.76351
2.65208
4.11031
3.83535
3.58697
3.29093
2.97383
2.65943
2.33484
1.98036
1.7437
2.62775
4.1144
3.84352
3.59245
3.29972
2.9837
2.67006
2.34724
1.97675
1.73171
2.61106
4.11494
3.84852
3.59578
3.30486
2.99126
2.67746
2.35528
1.97429
1.7246
2.60285
4.11526
3.85236
3.60029
3.30882
2.99588
2.68166
2.35943
1.9715
1.71896
1.49794
1.50224
1.50732
1.51441
1.5232
1.53288
1.56036
2.30271
3.52361
3.8077
1.48725
1.49049
1.49467
1.49954
1.50569
1.51341
1.52024
1.62047
2.70806
3.78308
1.47974
1.48215
1.48536
1.489
1.49363
1.49916
1.50503
1.51291
1.81438
3.30029
1.47506
1.47687
1.479
1.4818
1.48493
1.48918
1.49411
1.49834
1.52221
2.50607
1.47197
1.47342
1.47505
1.47713
1.4794
1.48252
1.48597
1.49089
1.49398
1.83676
1.46995
1.47119
1.47262
1.47426
1.47612
1.47835
1.48095
1.4848
1.48735
1.5552
1.46854
1.46965
1.47094
1.47236
1.47399
1.47581
1.47792
1.48064
1.48321
1.48962
1.46761
1.4686
1.46975
1.47102
1.47248
1.47408
1.47592
1.47802
1.4806
1.4823
1.46704
1.46796
1.46901
1.47016
1.47148
1.47293
1.47459
1.47638
1.47874
1.48025
1.46667
1.46755
1.46853
1.46961
1.47082
1.47216
1.47368
1.47531
1.47743
1.47892
1.46645
1.4673
1.46824
1.46927
1.47041
1.47166
1.47308
1.47459
1.47653
1.47792
1.46632
1.46715
1.46806
1.46906
1.47016
1.47136
1.4727
1.47413
1.47593
1.47723
1.46626
1.46707
1.46797
1.46894
1.47001
1.47117
1.47247
1.47384
1.47555
1.47678
1.46623
1.46704
1.46791
1.46887
1.46992
1.47106
1.47232
1.47366
1.47531
1.47649
1.46623
1.46702
1.46789
1.46884
1.46987
1.47099
1.47223
1.47354
1.47515
1.47631
1.46623
1.46702
1.46788
1.46882
1.46985
1.47096
1.47218
1.47348
1.47506
1.4762
1.46623
1.46702
1.46788
1.46882
1.46984
1.47095
1.47216
1.47345
1.47502
1.47614
1.46623
1.46702
1.46788
1.46882
1.46984
1.47095
1.47216
1.47345
1.47502
1.47614
1.46624
1.46703
1.46789
1.46883
1.46985
1.47096
1.47217
1.47346
1.47503
1.47614
1.4662
1.46699
1.46787
1.46882
1.46985
1.47096
1.47219
1.47348
1.47505
1.47616
1.40195
1.40606
1.4106
1.41562
1.42118
1.4274
1.43422
1.44243
1.44944
1.47906
1.40195
1.40606
1.4106
1.41562
1.42118
1.4274
1.43422
1.44239
1.4496
1.47226
1.40195
1.40606
1.4106
1.41562
1.42118
1.4274
1.43423
1.44235
1.44977
1.46802
1.40195
1.40606
1.4106
1.41562
1.42118
1.4274
1.43423
1.44231
1.44992
1.46563
1.40195
1.40606
1.4106
1.41562
1.42118
1.4274
1.43424
1.44227
1.45008
1.46384
1.40195
1.40606
1.4106
1.41562
1.42118
1.4274
1.43425
1.44223
1.45022
1.46261
1.40195
1.40606
1.4106
1.41562
1.42118
1.4274
1.43425
1.4422
1.45034
1.46182
1.40195
1.40606
1.4106
1.41562
1.42118
1.4274
1.43425
1.44218
1.45043
1.46132
1.40195
1.40606
1.4106
1.41562
1.42118
1.4274
1.43426
1.44217
1.45051
1.46102
1.40195
1.40606
1.4106
1.41562
1.42118
1.4274
1.43426
1.44217
1.45058
1.46084
1.40195
1.40606
1.4106
1.41562
1.42118
1.4274
1.43426
1.44216
1.45063
1.46073
1.40195
1.40606
1.4106
1.41562
1.42118
1.4274
1.43426
1.44216
1.45067
1.46068
1.40195
1.40606
1.4106
1.41562
1.42118
1.4274
1.43426
1.44215
1.45071
1.46066
1.40195
1.40606
1.4106
1.41562
1.42118
1.4274
1.43427
1.44213
1.45074
1.46066
1.40195
1.40606
1.4106
1.41562
1.42118
1.4274
1.43427
1.44211
1.45077
1.46067
1.40195
1.40606
1.4106
1.41563
1.42118
1.4274
1.43428
1.44209
1.4508
1.46068
1.40195
1.40606
1.4106
1.41563
1.42118
1.4274
1.43428
1.44207
1.45082
1.4607
1.40195
1.40607
1.4106
1.41563
1.42118
1.4274
1.43429
1.44205
1.45084
1.4607
1.40195
1.40607
1.4106
1.41563
1.42118
1.4274
1.43429
1.44204
1.45085
1.46071
1.40195
1.40607
1.41059
1.41563
1.42118
1.4274
1.4343
1.44203
1.45087
1.46068
1.40195
1.40607
1.41059
1.41563
1.42118
1.4274
1.4343
1.44203
1.45087
1.46068
1.40195
1.40607
1.4106
1.41563
1.42118
1.4274
1.43429
1.44204
1.45085
1.46071
1.40195
1.40607
1.4106
1.41563
1.42118
1.4274
1.43429
1.44205
1.45084
1.4607
1.40195
1.40606
1.4106
1.41563
1.42118
1.4274
1.43428
1.44207
1.45082
1.4607
1.40195
1.40606
1.4106
1.41563
1.42118
1.4274
1.43428
1.44209
1.4508
1.46068
1.40195
1.40606
1.4106
1.41562
1.42118
1.4274
1.43427
1.44211
1.45077
1.46067
1.40195
1.40606
1.4106
1.41562
1.42118
1.4274
1.43427
1.44213
1.45074
1.46066
1.40195
1.40606
1.4106
1.41562
1.42118
1.4274
1.43426
1.44215
1.45071
1.46066
1.40195
1.40606
1.4106
1.41562
1.42118
1.4274
1.43426
1.44216
1.45067
1.46068
1.40195
1.40606
1.4106
1.41562
1.42118
1.4274
1.43426
1.44216
1.45063
1.46073
1.40195
1.40606
1.4106
1.41562
1.42118
1.4274
1.43426
1.44217
1.45058
1.46084
1.40195
1.40606
1.4106
1.41562
1.42118
1.4274
1.43426
1.44217
1.45051
1.46102
1.40195
1.40606
1.4106
1.41562
1.42118
1.4274
1.43425
1.44218
1.45043
1.46132
1.40195
1.40606
1.4106
1.41562
1.42118
1.4274
1.43425
1.4422
1.45034
1.46182
1.40195
1.40606
1.4106
1.41562
1.42118
1.4274
1.43425
1.44223
1.45022
1.46261
1.40195
1.40606
1.4106
1.41562
1.42118
1.4274
1.43424
1.44227
1.45008
1.46384
1.40195
1.40606
1.4106
1.41562
1.42118
1.4274
1.43423
1.44231
1.44992
1.46563
1.40195
1.40606
1.4106
1.41562
1.42118
1.4274
1.43423
1.44235
1.44977
1.46802
1.40195
1.40606
1.4106
1.41562
1.42118
1.4274
1.43422
1.44239
1.4496
1.47225
1.40195
1.40606
1.4106
1.41562
1.42118
1.4274
1.43422
1.44243
1.44944
1.47905
1.4662
1.46699
1.46787
1.46882
1.46985
1.47096
1.47219
1.47348
1.47505
1.47616
1.46624
1.46703
1.46789
1.46883
1.46985
1.47096
1.47217
1.47346
1.47503
1.47614
1.46623
1.46702
1.46788
1.46882
1.46984
1.47095
1.47216
1.47345
1.47502
1.47614
1.46623
1.46702
1.46788
1.46882
1.46984
1.47095
1.47216
1.47345
1.47502
1.47614
1.46623
1.46702
1.46788
1.46882
1.46985
1.47096
1.47218
1.47348
1.47506
1.4762
1.46623
1.46702
1.46789
1.46884
1.46987
1.47099
1.47223
1.47354
1.47515
1.47631
1.46623
1.46704
1.46791
1.46887
1.46992
1.47106
1.47232
1.47366
1.47531
1.47649
1.46626
1.46707
1.46797
1.46894
1.47001
1.47117
1.47247
1.47384
1.47555
1.47678
1.46632
1.46715
1.46806
1.46906
1.47016
1.47136
1.4727
1.47413
1.47593
1.47723
1.46645
1.4673
1.46824
1.46927
1.47041
1.47166
1.47308
1.47459
1.47653
1.47792
1.46667
1.46755
1.46853
1.46961
1.47082
1.47216
1.47368
1.47531
1.47743
1.47892
1.46704
1.46796
1.46901
1.47016
1.47148
1.47293
1.47459
1.47638
1.47873
1.48025
1.46761
1.4686
1.46975
1.47102
1.47248
1.47408
1.47592
1.47802
1.48059
1.48231
1.46854
1.46964
1.47093
1.47236
1.47399
1.47581
1.47792
1.48064
1.4832
1.48983
1.46995
1.47119
1.47262
1.47426
1.47612
1.47835
1.48095
1.48479
1.48733
1.55778
1.47197
1.47342
1.47504
1.47712
1.47939
1.48251
1.48596
1.49086
1.49396
1.84115
1.47506
1.47687
1.479
1.48179
1.48492
1.48916
1.49409
1.49831
1.52247
2.51138
1.47973
1.48213
1.48535
1.48898
1.49361
1.49914
1.50499
1.51291
1.81703
3.30536
1.48723
1.49047
1.49464
1.49951
1.50566
1.51338
1.52021
1.62141
2.71441
3.78318
1.49792
1.50222
1.50729
1.51438
1.52317
1.53283
1.5607
2.30661
3.52872
3.80454
)
;

boundaryField
{
    inlet
    {
        type            calculated;
        value           uniform 1.40001;
    }
    outlet
    {
        type            calculated;
        value           nonuniform List<scalar> 
100
(
2.61949
2.61407
2.57417
2.52486
2.47336
2.42232
2.35982
2.28059
2.19436
2.1152
2.04163
1.97005
1.89899
1.83853
1.79442
1.7638
1.74392
1.73188
1.72474
1.71908
2.38882
2.42278
2.44876
2.469
2.48383
2.4933
2.50013
2.50812
2.51844
2.52967
2.54135
2.55204
2.56131
2.56929
2.57611
2.58121
2.58569
2.59217
2.60074
2.61144
2.30224
2.27583
2.25418
2.2375
2.22098
2.20779
2.19545
2.18907
2.18577
2.17979
2.19133
2.20633
2.22552
2.2444
2.25921
2.27302
2.28668
2.30407
2.32672
2.35486
2.63325
2.63466
2.63563
2.63646
2.63584
2.63037
2.61993
2.60628
2.59306
2.58142
2.57164
2.56234
2.55225
2.53938
2.52099
2.49521
2.46313
2.42547
2.38264
2.33859
1.73164
1.74096
1.7511
1.77009
1.79492
1.82953
1.87445
1.93035
1.99016
2.04995
2.10858
2.16829
2.23103
2.29596
2.36294
2.43063
2.488
2.5418
2.59508
2.62187
)
;
    }
    triangle
    {
        type            calculated;
        value           nonuniform List<scalar> 
40
(
3.83957
3.77638
3.67923
3.59088
3.51511
3.45242
3.39276
3.31899
3.19332
3.00971
1.01814
1.00783
1.01076
1.0165
1.02321
1.03193
1.04029
1.0509
1.06331
1.07845
1.09281
1.10548
1.11809
1.12587
1.13523
1.14221
1.14812
1.1545
1.16063
1.1742
3.83953
3.77624
3.67894
3.59025
3.51394
3.45013
3.38878
3.31235
3.18391
2.99328
)
;
    }
    top
    {
        type            symmetryPlane;
    }
    bottom
    {
        type            symmetryPlane;
    }
    defaultFaces
    {
        type            empty;
    }
}


// ************************************************************************* //
