/*--------------------------------*- C++ -*----------------------------------*\
  =========                 |
  \\      /  F ield         | OpenFOAM: The Open Source CFD Toolbox
   \\    /   O peration     | Website:  https://openfoam.org
    \\  /    A nd           | Version:  7
     \\/     M anipulation  |
\*---------------------------------------------------------------------------*/
FoamFile
{
    version     2.0;
    format      ascii;
    class       volScalarField;
    location    "0.1";
    object      rho;
}
// * * * * * * * * * * * * * * * * * * * * * * * * * * * * * * * * * * * * * //

dimensions      [1 -3 0 0 0 0 0];

internalField   nonuniform List<scalar> 
3225
(
2.38419
2.3607
2.34074
2.32394
2.30934
2.29688
2.28612
2.27669
2.26823
2.26042
2.25296
2.32575
2.31334
2.29995
2.29011
2.28131
2.27328
2.26579
2.25876
2.33676
2.32617
2.3135
2.30367
2.29429
2.28579
2.32965
2.32106
2.31051
2.30265
2.322
1.40001
1.40001
1.40001
1.40001
1.40001
1.40001
1.40001
1.40001
1.40001
1.40001
1.40001
1.40001
1.40001
1.40001
1.40001
1.40001
1.40001
1.40001
1.40001
1.40001
1.40001
1.40001
1.40001
1.40001
1.40001
1.40001
1.40001
1.40001
1.40001
1.40001
1.40001
1.40001
1.40001
1.40001
1.40001
1.40001
1.40001
1.40001
1.40001
1.40001
1.40001
1.40001
1.40001
1.40001
1.40001
1.40001
1.40001
1.40001
1.40001
1.40001
1.40001
1.40001
1.40001
1.40001
1.40001
1.40001
1.40001
1.40001
1.40001
1.40001
1.40001
1.40001
1.40001
1.40001
1.40001
1.40001
1.40001
1.40001
1.40001
1.40001
1.40001
1.40001
1.40001
1.40001
1.40001
1.40001
1.40001
1.40001
1.40001
1.40001
1.40001
1.40001
1.40001
1.40001
1.40001
1.40001
1.40001
1.40001
1.40001
1.40001
1.40001
1.40001
1.40001
1.40001
1.40001
1.40001
1.40001
1.40001
1.40001
1.40001
1.40001
1.40001
1.40001
1.40001
1.40001
1.40001
1.40001
1.40001
1.40001
1.40001
1.40001
1.40001
1.40001
1.40001
1.40001
1.40001
1.40001
1.40001
1.40001
1.40001
1.40001
1.40001
1.40001
1.40001
1.40001
1.40001
1.40001
1.40001
1.40001
1.40001
1.40001
1.40001
1.40001
1.40001
1.40001
1.40001
1.40001
1.40001
1.40001
1.40001
1.40001
1.40001
1.40001
1.40001
1.40001
1.40001
1.40001
1.40001
1.40001
1.40001
1.40001
1.40001
1.40001
1.40001
1.40001
1.40001
1.40001
1.40001
1.40001
1.40001
1.40001
1.40001
1.40001
1.40001
1.40001
1.40001
1.40001
1.40001
1.40001
1.40001
1.40001
1.40001
1.40001
1.40001
1.40001
1.40001
1.40001
1.40001
1.40001
1.40001
1.40001
1.40001
1.40001
1.40001
1.40001
1.40001
1.40001
1.40001
1.40001
1.40001
1.40001
1.40001
1.40001
1.40001
1.40001
1.40001
1.40001
1.40001
1.40001
1.40001
1.40001
1.40001
1.40001
1.40001
1.40001
1.40001
1.40001
1.40001
1.40001
1.40001
1.40001
1.40001
1.40001
1.40001
1.40001
1.40001
1.40001
1.40001
1.40001
1.40001
1.40001
1.40001
1.40001
1.40001
1.40001
1.40001
1.40001
1.40001
1.40001
1.40001
1.40001
1.40001
1.40001
1.40001
1.40001
1.40001
1.40001
1.40001
1.40001
1.40001
1.40001
1.40001
1.40001
1.40001
1.40001
1.40001
1.40001
1.40001
1.40001
1.40001
1.40001
1.40001
1.40001
1.40001
1.40001
1.40001
1.40001
1.40001
1.40001
1.40001
1.40001
1.40001
1.40001
1.40001
1.40001
1.40001
1.40001
1.40001
1.40001
1.40001
1.40001
1.40001
1.40001
1.40001
1.40001
1.40001
1.40001
1.40001
1.40001
1.40001
1.40001
1.40001
1.40001
1.40001
1.40001
1.40001
1.40001
1.40001
1.40001
1.40001
1.40001
1.40001
1.40001
1.40001
1.40001
1.40001
1.40001
1.40001
1.40001
1.40001
1.40001
1.40001
1.40001
1.40001
1.40001
1.40001
1.40001
1.40001
1.40001
1.40001
1.40001
1.40001
1.40001
1.40001
1.40001
1.40001
1.40001
1.40001
1.40001
1.40001
1.40001
1.40001
1.40001
1.40001
1.40001
1.40001
1.40001
1.40001
1.40001
1.40001
1.40001
1.40001
1.40001
1.40001
1.40001
1.40001
1.40001
1.40001
1.40001
1.40001
1.40001
1.40001
1.40001
1.40001
1.40001
1.40001
1.40001
1.40001
1.40001
1.40001
1.40001
1.40001
1.40001
1.40001
1.40001
1.40001
1.40001
1.40001
1.40001
1.40001
1.40001
1.40001
1.40001
1.40001
1.40001
1.40001
1.40001
1.40001
1.40001
1.40001
1.40001
1.40001
1.40001
1.40001
1.40001
1.40001
1.40001
1.40001
1.40001
1.40001
1.40001
1.40001
1.40001
1.40001
1.40001
1.40001
1.40001
1.40001
1.40001
1.40001
1.40001
1.40001
1.40001
1.40001
1.40001
1.40001
1.40001
1.40001
1.40001
1.40001
1.40001
1.40001
1.40001
1.40001
1.40001
1.40001
1.40001
1.40001
1.40001
1.40001
1.40001
1.40001
1.40001
1.40001
1.40001
1.40001
1.40001
1.40001
1.40001
1.40001
1.40001
1.40001
1.40001
1.40001
1.40001
1.40001
1.40001
1.40001
1.40001
1.40001
1.40001
1.40001
1.40001
1.40001
1.40001
1.40001
1.40001
1.40001
1.40001
1.40001
1.40001
1.40001
1.40001
1.40001
1.40001
1.40001
1.40001
1.40001
1.40001
1.40001
1.40001
1.40001
1.40001
1.40001
1.40001
1.40001
1.40001
1.40001
1.40001
1.40001
1.40001
1.40001
1.40001
1.40001
1.40001
1.40001
1.40001
1.40001
1.40001
1.40001
1.40001
1.40001
1.40001
1.40001
1.40001
1.40001
1.40001
1.40001
1.40001
1.40001
1.40001
1.40001
1.40001
1.40001
1.40001
1.40001
1.40001
1.40001
1.40001
1.40001
1.40001
1.40001
1.40001
1.40001
1.40001
1.40001
1.40001
1.40001
1.40001
1.40001
1.40001
1.40001
1.40001
1.40001
1.40001
1.40001
1.40001
1.40001
1.40001
1.40001
1.40001
1.40001
1.40001
1.40001
1.40001
1.40001
1.40001
1.40001
1.40001
1.40001
1.40001
1.40001
1.40001
1.40001
1.40001
1.40001
1.40001
1.40001
1.40001
1.40001
1.40001
1.40001
1.40001
1.40001
1.40001
1.40001
1.40001
1.40001
1.40001
1.40001
1.40001
1.40001
1.40001
1.40001
1.40001
1.40001
1.40001
1.40001
1.40001
1.40001
1.40001
1.40001
1.40001
1.40001
1.40001
1.40001
1.40001
1.40001
1.40001
1.40001
1.40001
1.40001
1.40001
1.40001
1.40001
1.40001
1.40001
1.40001
1.40001
1.40001
1.40001
1.40001
1.40001
1.40001
1.40001
1.40001
1.40001
1.40001
1.40001
1.40001
1.40001
1.40001
1.40001
1.40001
1.40001
1.40001
1.40001
1.40001
1.40001
1.40001
1.40001
1.40001
1.40001
1.40001
1.40001
1.40001
1.40001
1.40001
1.40001
1.40001
1.40001
1.40001
1.40001
1.40001
1.40001
1.40001
1.40001
1.40001
1.40001
1.40001
1.40001
1.40001
1.40001
1.40001
1.40001
1.40001
1.40001
1.40001
1.40001
1.40001
1.40001
1.40001
1.40001
1.40001
1.40001
1.40001
1.40001
1.40001
1.40001
1.40001
1.40001
1.40001
1.40001
1.40001
1.40001
1.40001
1.40001
1.40001
1.40001
1.40001
1.40001
1.40001
1.40001
1.40001
1.40001
1.40001
1.40001
1.40001
1.40001
1.40001
1.40001
1.40001
1.40001
1.40001
1.40001
1.40001
1.40001
1.40001
1.40001
1.40001
1.40001
1.40001
1.40001
1.40001
1.40001
1.40001
1.40001
1.40001
1.40001
1.40001
1.40001
1.40001
1.40001
1.40001
1.40001
1.40001
1.40001
1.40001
1.40001
1.40001
1.40001
1.40001
1.40001
1.40001
1.40001
1.40001
1.40001
1.40001
1.40001
1.40001
1.40001
1.40001
1.40001
1.40001
1.40001
1.40001
1.40001
1.40001
1.40001
1.40001
1.40001
1.40001
1.40001
1.40001
1.40001
1.40001
1.40001
1.40001
1.40001
1.40001
1.40001
1.40001
1.40001
1.40001
1.40001
1.40001
1.40001
1.40001
1.40001
1.40001
1.40001
1.40001
1.40001
1.40001
1.40001
1.40001
1.40001
1.40001
1.40001
1.40001
1.40001
1.40001
1.40001
1.40001
1.40001
1.40001
1.40001
1.40001
1.40001
1.40001
1.40001
1.40001
1.40001
1.40001
1.40001
1.40001
1.40001
1.40001
1.40001
1.40001
1.40001
1.40001
1.40001
1.40001
1.40001
1.40001
1.40001
1.40001
1.40001
1.40001
1.40001
1.40001
1.40001
1.40001
1.40001
1.40001
1.40001
1.40001
1.40001
1.40001
1.40001
1.40001
1.40001
1.40001
1.40001
1.40001
1.40001
1.40001
1.40001
1.40001
1.40001
1.40001
1.40001
1.40001
1.40001
1.40001
1.40001
1.40001
1.40001
1.40001
1.40001
1.40001
1.40001
1.40001
1.40001
1.40001
1.40001
1.40001
1.40001
1.40001
1.40001
1.40001
1.40001
1.40001
1.40001
1.40001
1.40001
1.40001
1.40001
1.40001
1.40001
1.40001
1.40001
1.40001
1.40001
1.40001
1.40001
1.40001
1.40001
1.40001
1.40001
1.40001
1.40001
1.40001
1.40001
1.40001
1.40001
1.40001
1.40001
1.40001
1.40001
1.40001
1.40001
1.40001
1.40001
1.40001
1.40001
1.40001
1.40001
1.40001
1.40001
1.40001
1.40001
1.40001
1.40001
1.40001
1.40001
1.40001
1.40001
1.40001
1.40001
1.40001
1.40001
1.40001
1.40001
1.40001
1.40001
1.40001
1.40001
1.40001
1.40001
1.40001
1.40001
1.40001
1.40001
1.40001
1.40001
1.40001
1.40001
1.40001
1.40001
1.40001
1.40001
1.40001
1.40001
1.40001
1.40001
1.40001
1.40001
1.40001
1.40001
1.40001
1.40001
1.40001
1.40001
1.40001
1.40001
1.40001
1.40001
1.40001
1.40001
1.40001
1.40001
1.40001
1.40001
1.40001
1.40001
1.40001
1.40001
1.40001
1.40001
1.40001
1.40001
1.40001
1.40001
1.40001
1.40001
1.40001
1.40001
1.40001
1.40001
1.40001
1.40001
1.40001
1.40001
1.40001
1.40001
1.40001
1.40001
1.40001
1.40001
1.40001
1.40001
1.40001
1.40001
1.40001
1.40001
1.40001
1.40001
1.40001
1.40001
1.40001
1.40001
1.40001
1.40001
1.40001
1.40001
1.40001
1.40001
1.40001
1.40001
1.40001
1.40001
1.40001
1.40001
1.40001
1.40001
1.40001
1.40001
1.40001
1.40001
1.40001
1.40001
1.40001
1.40001
1.40001
1.40001
1.40001
1.40001
1.40001
1.40001
1.40001
1.40001
1.40001
1.40001
1.40001
1.40001
1.40001
1.40001
1.40001
1.40001
1.40001
1.40001
1.40001
1.40001
1.40001
1.40001
1.40001
1.40001
1.40001
1.40001
1.40001
1.40001
1.40001
1.40001
1.40001
1.40001
1.40001
1.40001
1.40001
1.40001
1.40001
1.40001
1.40001
1.40001
1.40001
1.40001
1.40001
1.40001
1.40001
1.40001
1.40001
1.40001
1.40001
1.40001
1.40001
1.40001
1.40001
1.40001
1.40001
1.40001
1.40001
1.40001
1.40001
1.40001
1.40001
1.40001
1.40001
1.40001
1.40001
1.40001
1.40001
1.40001
1.40001
1.40001
1.40001
1.40001
1.40001
1.40001
1.40001
1.40001
1.40001
1.40001
1.40001
1.40001
1.40001
1.40001
1.40001
1.40001
1.40001
1.40001
1.40001
1.40001
1.40001
1.40001
1.40001
1.40001
1.40001
1.40001
1.40001
1.40001
1.40001
1.40001
1.40001
1.40001
1.40001
1.40001
1.40001
1.40001
1.40001
1.40001
1.40001
1.40001
1.40001
1.40001
1.40001
1.40001
1.40001
1.40001
1.40001
1.40001
1.40001
1.40001
1.40001
1.40001
1.40001
1.40001
1.40001
1.40001
1.40001
1.40001
1.40001
1.40001
1.40001
1.40001
1.40001
1.40001
1.40001
1.40001
1.40001
1.40001
1.40001
1.40001
1.40001
1.40001
1.40001
1.40001
1.40001
1.40001
1.40001
1.40001
1.40001
1.40001
1.40001
1.40001
1.40001
1.40001
1.40001
1.40001
1.40001
1.40001
1.40001
1.40001
1.40001
1.40001
1.40001
1.40001
1.40001
1.40001
1.40001
1.40001
1.40001
1.40001
1.40001
1.40001
1.40001
1.40001
1.40001
1.40001
1.40001
1.40001
1.40001
1.40001
1.40001
1.40001
1.40001
1.40001
1.40001
1.40001
1.40001
1.40001
1.40001
1.40001
1.40001
1.40001
1.40001
1.40001
1.40001
1.40001
1.40001
1.40001
1.40001
1.40001
1.40001
1.40001
1.40001
1.40001
1.40001
1.40001
1.40001
1.40001
1.40001
1.40001
1.40001
1.40001
1.40001
1.40001
1.40001
1.40001
1.40001
1.40001
1.40001
1.40001
1.40001
1.40001
1.40001
1.40001
1.40001
1.40001
1.40001
1.40001
1.40001
1.40001
1.40001
1.40001
1.40001
1.40001
1.40001
1.40001
1.40001
1.40001
1.40001
1.40001
1.40001
1.40001
1.40001
1.40001
1.40001
1.40001
1.40001
1.40001
1.40001
1.40001
1.40001
1.40001
1.40001
1.40001
1.40001
1.40001
1.40001
1.40001
1.40001
1.40001
1.40001
1.40001
1.40001
1.40001
1.40001
1.40001
1.40001
1.40001
1.40001
1.40001
1.40001
1.40001
1.40001
1.40001
1.40001
1.40001
1.40001
1.40001
1.40001
1.40001
1.40001
1.40001
1.40001
1.40001
1.40001
1.40001
1.40001
1.40001
1.40001
1.40001
1.40001
1.40001
1.40001
1.40001
1.40001
1.40001
1.40001
1.40001
1.40001
1.40001
1.40001
1.40001
1.40001
1.40001
1.40001
1.40001
1.40001
1.40001
1.40001
1.40001
1.40001
1.40001
1.40001
1.40001
1.40001
1.40001
1.40001
1.40001
1.40001
1.40001
1.40001
1.40001
1.40001
1.40001
1.40001
1.40001
1.40001
1.40001
1.40001
1.40001
1.40001
1.40001
1.40001
1.40001
1.40001
1.40001
1.40001
1.40001
1.40001
1.40001
1.40001
1.40001
1.40001
1.40001
1.40001
1.40001
1.40001
1.40001
1.40001
1.40001
1.40001
1.40001
1.40001
1.40001
1.40001
1.40001
1.40001
1.40001
1.40001
1.40001
1.40001
1.40001
1.40001
1.40001
1.40001
1.40001
1.40001
1.40001
1.40001
1.40001
1.40001
1.40001
1.40001
1.40001
1.40001
1.40001
1.40001
1.40001
1.40001
1.40001
1.40001
1.40001
1.40001
1.40001
1.40001
1.40001
1.40001
1.40001
1.40001
1.40001
1.40001
1.40001
1.40001
1.40001
1.40001
1.40001
1.40001
1.40001
1.40001
1.40001
1.40001
1.40001
1.40001
1.40001
1.40001
1.40001
1.40001
1.40001
1.40001
1.40001
1.40001
1.40001
1.40001
1.40001
1.40001
1.40001
1.40001
1.40001
1.40001
1.40001
1.40001
1.40001
1.40001
1.40001
1.40001
1.40001
1.40001
1.40001
1.40001
1.40001
1.40001
1.40001
1.40001
1.40001
1.40001
1.40001
1.40001
1.40001
1.40001
1.40001
1.40001
1.40001
1.40001
1.40001
1.40001
1.40001
1.40001
1.40001
1.40001
1.40001
1.40001
1.40001
1.40001
1.40001
1.40001
1.40001
1.40001
1.40001
1.40001
1.40001
1.40001
1.40001
1.40001
1.40001
1.40001
1.40001
1.40001
1.40001
1.40001
1.40001
1.40001
1.40001
1.40001
1.40001
1.40001
1.40001
1.40001
1.40001
1.40001
1.40001
1.40001
1.40001
1.40001
1.40001
1.40001
1.40001
1.40001
1.40001
1.40001
1.40001
1.40001
1.40001
1.40001
1.40001
1.40001
1.40001
1.40001
1.40001
1.40001
1.40001
1.40001
1.40001
1.40001
1.40001
1.40001
1.40001
1.40001
1.40001
1.40001
1.40001
1.40001
1.40001
1.40001
1.40001
1.40001
1.40001
1.40001
1.40001
1.40001
1.40001
1.40001
1.40001
1.40001
1.40001
1.40001
1.40001
1.40001
1.40001
1.40001
1.40001
1.40001
1.40001
1.40001
1.40001
1.40001
1.40001
1.40001
1.40001
1.40001
1.40001
1.40001
1.40001
1.40001
1.40001
1.40001
1.40001
1.40001
1.40001
1.40001
1.40001
1.40001
1.40001
1.40001
1.40001
1.40001
1.40001
1.40001
1.40001
1.40001
1.40001
1.40001
1.40001
1.40001
1.40001
1.40001
1.40001
1.40001
1.40001
1.40001
1.40001
1.40001
1.40001
1.40001
1.40001
1.40001
1.40001
1.40001
1.40001
1.40001
1.40001
1.40001
1.40001
1.40001
1.40001
1.40001
1.40001
1.40001
1.40001
1.40001
1.40001
1.40001
1.40001
1.40001
1.40001
1.40001
1.40001
1.40001
1.40001
1.40001
1.40001
1.40001
1.40001
1.40001
1.40001
1.40001
1.40001
1.40001
1.40001
1.40001
1.40001
1.40001
1.40001
1.40001
1.40001
1.40001
1.40001
1.40001
1.40001
1.40001
1.40001
1.40001
1.40001
1.40001
1.40001
1.40001
1.40001
1.40001
1.40001
1.40001
1.40001
1.40001
1.40001
1.40001
1.40001
1.40001
1.40001
1.40001
1.40001
1.40001
1.40001
1.40001
1.40001
1.40001
1.40001
1.40001
1.40001
1.40001
1.40001
1.40001
1.40001
1.40001
1.40001
1.40001
1.40001
1.40001
1.40001
1.40001
1.40001
1.40001
1.40001
1.40001
1.40001
1.40001
1.40001
1.40001
1.40001
1.40001
1.40001
1.40001
1.40001
1.40001
1.40001
1.40001
1.40001
1.40001
1.40001
1.40001
1.40001
1.40001
1.40001
1.40001
1.40001
1.40001
1.40001
1.40001
1.40001
1.40001
1.40001
1.40001
1.40001
1.40001
1.40003
1.40131
1.40001
1.40001
1.40001
1.40001
1.40001
1.40001
1.40001
1.40001
1.40001
1.40001
1.40001
1.40001
1.40001
1.40001
1.40001
1.40001
1.40001
1.40001
1.40001
1.40001
1.40001
1.40001
1.40001
1.40019
1.40503
1.44898
1.40001
1.40001
1.40001
1.40001
1.40001
1.40001
1.40001
1.40001
1.40001
1.40001
1.40001
1.40001
1.40001
1.40001
1.40001
1.40001
1.40001
1.40001
1.40001
1.40001
1.40001
1.40002
1.40092
1.41583
1.5035
1.70748
1.40002
1.40001
1.40001
1.40001
1.40001
1.40001
1.40001
1.40001
1.40001
1.40001
1.40001
1.40001
1.40001
1.40001
1.40001
1.40001
1.40001
1.40001
1.40001
1.40001
1.40012
1.40365
1.44001
1.58562
1.81218
1.99233
1.40005
1.40004
1.40004
1.40003
1.40002
1.40002
1.40001
1.40001
1.40001
1.40001
1.40001
1.40001
1.40001
1.40001
1.40001
1.40001
1.40001
1.40001
1.40001
1.40061
1.41192
1.48641
1.68206
1.9083
2.01966
2.06052
1.40011
1.40011
1.4001
1.40009
1.40008
1.40007
1.40006
1.40005
1.40004
1.40003
1.40002
1.40001
1.40001
1.40001
1.40001
1.40001
1.40001
1.40007
1.40245
1.43144
1.56046
1.78328
1.97648
2.03786
2.06646
2.09179
1.40023
1.40022
1.4002
1.40019
1.40018
1.40017
1.40015
1.40014
1.40012
1.4001
1.40009
1.40007
1.40005
1.40003
1.40002
1.40001
1.40036
1.40828
1.46953
1.65355
1.87922
2.01433
2.04822
2.07476
2.09157
2.09936
1.40041
1.40039
1.40038
1.40036
1.40034
1.40033
1.40031
1.40029
1.40028
1.40026
1.40024
1.40021
1.40016
1.4001
1.40009
1.40149
1.42304
1.53247
1.75308
1.95356
2.03421
2.05515
2.07817
2.09208
2.09591
2.09389
1.40071
1.40068
1.40065
1.40063
1.4006
1.40058
1.40055
1.40054
1.40053
1.40051
1.40048
1.4004
1.40031
1.40042
1.4051
1.45189
1.61953
1.84482
2.00454
2.04476
2.06003
2.07806
2.09076
2.0936
2.09084
2.09044
1.40117
1.40114
1.4011
1.40106
1.40101
1.40097
1.40094
1.40092
1.4009
1.40084
1.40073
1.40064
1.40125
1.41445
1.50093
1.71395
1.92267
2.03281
2.04709
2.06225
2.07854
2.08864
2.09089
2.08795
2.08877
2.09615
1.40168
1.40172
1.40172
1.4017
1.40166
1.40161
1.40157
1.40151
1.40139
1.40121
1.40115
1.40338
1.43366
1.5744
1.80136
1.98292
2.04056
2.04864
2.06235
2.07794
2.08792
2.08992
2.08639
2.08782
2.09558
2.10559
1.4022
1.40232
1.40243
1.4025
1.40254
1.40253
1.40247
1.40226
1.40197
1.40205
1.40868
1.46866
1.65822
1.89014
2.01035
2.03905
2.05677
2.06751
2.07897
2.0863
2.08826
2.08515
2.08706
2.09528
2.1051
2.11042
1.40288
1.40302
1.40317
1.40336
1.40355
1.40358
1.40338
1.4031
1.4038
1.41952
1.52418
1.74881
1.95032
2.01991
2.04898
2.06366
2.07266
2.08035
2.0847
2.08527
2.08301
2.08635
2.09509
2.1046
2.10958
2.10951
1.40396
1.4041
1.40429
1.40451
1.40463
1.40456
1.40447
1.40682
1.44116
1.59042
1.83932
1.97762
2.03975
2.0621
2.06657
2.07217
2.07804
2.08174
2.08188
2.08191
2.08691
2.09572
2.10432
2.10872
2.10832
2.10802
1.40578
1.40593
1.40611
1.40617
1.40589
1.406
1.41195
1.47308
1.67627
1.89454
2.0135
2.05323
2.06217
2.06596
2.06753
2.07213
2.07721
2.08011
2.08284
2.08868
2.09711
2.10455
2.10805
2.10714
2.10719
2.11229
1.40884
1.40894
1.40878
1.40825
1.40853
1.4217
1.51858
1.75391
1.94915
2.03219
2.0532
2.05864
2.06045
2.06384
2.07009
2.07688
2.08199
2.08587
2.09127
2.09825
2.10458
2.10716
2.10606
2.10676
2.11223
2.11968
1.41371
1.41331
1.41241
1.41336
1.43712
1.58019
1.8215
1.9893
2.03039
2.04703
2.05778
2.06197
2.06611
2.07117
2.0789
2.08567
2.08986
2.09358
2.09894
2.10409
2.10586
2.10527
2.10707
2.11285
2.11988
2.12467
1.42043
1.41918
1.42132
1.46239
1.63738
1.88935
1.99698
2.03876
2.05401
2.05961
2.06493
2.06924
2.07396
2.07984
2.08684
2.09218
2.09495
2.09802
2.10185
2.10419
2.10526
2.1083
2.11408
2.12039
2.12458
2.12485
1.42989
1.43357
1.49101
1.70485
1.91888
2.01893
2.05044
2.05576
2.06076
2.06455
2.06899
2.07452
2.07986
2.08543
2.09038
2.09372
2.09626
2.09971
2.10333
2.10647
2.11053
2.11577
2.12105
2.12438
2.1243
2.124
1.45214
1.52087
1.75262
1.95147
2.02903
2.04662
2.05421
2.05796
2.0616
2.06743
2.07324
2.07904
2.08449
2.08982
2.09383
2.09683
2.10022
2.10429
2.10837
2.11267
2.11744
2.12178
2.12397
2.12359
2.12396
2.12788
1.55033
1.77382
1.97235
2.02595
2.04161
2.05047
2.05611
2.06264
2.0677
2.07408
2.08055
2.08644
2.09136
2.09579
2.09901
2.10189
2.10558
2.10979
2.11404
2.11833
2.12181
2.12327
2.12314
2.12441
2.12882
2.13437
1.77516
1.96317
2.02387
2.04356
2.04935
2.05686
2.06316
2.07
2.07597
2.08199
2.08807
2.09342
2.09745
2.10076
2.10346
2.10634
2.11008
2.11421
2.11806
2.12101
2.12253
2.12333
2.12558
2.13016
2.13516
2.13856
1.93511
2.01346
2.03455
2.04864
2.05693
2.0639
2.06962
2.07646
2.08302
2.08876
2.09392
2.09805
2.10112
2.1039
2.10689
2.11044
2.11472
2.11882
2.12159
2.12302
2.12422
2.12694
2.13152
2.13612
2.13874
2.1385
1.99003
2.02377
2.03874
2.05264
2.06301
2.07053
2.07662
2.08301
2.08951
2.09516
2.09935
2.10225
2.10489
2.10793
2.11161
2.11607
2.12079
2.12406
2.12534
2.12597
2.12816
2.13255
2.13709
2.13915
2.13861
2.13817
2.00833
2.03016
2.04816
2.06159
2.07142
2.07903
2.08599
2.09189
2.09724
2.10176
2.10498
2.10741
2.1104
2.11384
2.11781
2.12255
2.12666
2.1284
2.12842
2.12937
2.13294
2.1376
2.13981
2.1395
2.13928
2.142
2.0301
2.04563
2.06109
2.07139
2.08019
2.08953
2.09688
2.10133
2.10494
2.10828
2.11133
2.11416
2.11708
2.12011
2.12383
2.12802
2.13057
2.13082
2.1309
2.1334
2.13799
2.14095
2.1412
2.14131
2.14371
2.14775
2.05104
2.06272
2.07192
2.08017
2.09005
2.0996
2.10632
2.10931
2.11175
2.115
2.11869
2.12174
2.12388
2.12594
2.12891
2.13179
2.13284
2.13282
2.13453
2.13891
2.14283
2.1437
2.14366
2.14545
2.14911
2.15173
2.07057
2.07819
2.08489
2.09222
2.10059
2.10836
2.11273
2.1149
2.11764
2.12199
2.12635
2.12906
2.13008
2.13113
2.13342
2.13523
2.13549
2.13642
2.14005
2.14472
2.14664
2.14628
2.14687
2.1497
2.15245
2.15244
2.08634
2.09162
2.0964
2.10343
2.10992
2.11351
2.11779
2.12131
2.12471
2.12938
2.13391
2.13584
2.13574
2.13632
2.13843
2.13966
2.1399
2.14194
2.14609
2.14905
2.14898
2.14842
2.14986
2.1526
2.1537
2.15361
2.10276
2.10507
2.10792
2.11213
2.11695
2.12117
2.12382
2.12813
2.13266
2.13666
2.14023
2.14139
2.14107
2.14211
2.1444
2.14531
2.14565
2.14787
2.15082
2.15138
2.15047
2.15075
2.15293
2.15504
2.15598
2.15735
2.11631
2.11667
2.11826
2.12094
2.12335
2.12649
2.13038
2.13433
2.13805
2.14185
2.14459
2.14579
2.14634
2.14832
2.15083
2.15151
2.15165
2.15291
2.15368
2.15294
2.15263
2.15432
2.15682
2.15843
2.15967
2.16144
2.12837
2.12753
2.12741
2.12795
2.12938
2.13179
2.13549
2.13906
2.14208
2.14489
2.14809
2.14996
2.15149
2.15423
2.15688
2.15747
2.15716
2.15695
2.15632
2.15572
2.15684
2.15929
2.16121
2.16216
2.16296
2.1636
2.13888
2.13688
2.13584
2.13526
2.13554
2.13736
2.13951
2.14211
2.14513
2.14855
2.15109
2.15413
2.15648
2.15937
2.16177
2.16222
2.16164
2.16093
2.16044
2.16091
2.16268
2.16444
2.16504
2.16483
2.16451
2.16413
2.14763
2.1446
2.14272
2.14201
2.14187
2.14268
2.1438
2.14517
2.14785
2.1512
2.15424
2.15663
2.16007
2.16332
2.1654
2.16573
2.16539
2.16526
2.16575
2.16698
2.16833
2.1686
2.16755
2.16619
2.16545
2.16597
2.1542
2.15135
2.1491
2.14808
2.14777
2.14787
2.14808
2.14894
2.15092
2.1538
2.15645
2.15882
2.16189
2.16558
2.16778
2.16854
2.16895
2.16986
2.1713
2.17274
2.17293
2.17138
2.16912
2.16778
2.16855
2.17105
2.15872
2.15625
2.15451
2.15371
2.15339
2.15339
2.15329
2.15364
2.15503
2.15668
2.15835
2.16079
2.16393
2.16667
2.16915
2.17089
2.17244
2.17434
2.17632
2.17731
2.17621
2.17358
2.17164
2.17205
2.17421
2.17627
2.15886
2.15915
2.15918
2.15898
2.15896
2.15902
2.15919
2.1595
2.16006
2.1606
2.1613
2.16316
2.166
2.16807
2.16993
2.17272
2.17557
2.17812
2.18005
2.18029
2.17855
2.17639
2.17612
2.17793
2.17965
2.1795
2.15555
2.15944
2.1621
2.16349
2.16424
2.16476
2.16519
2.16559
2.16582
2.16562
2.16566
2.16687
2.16845
2.16997
2.17157
2.17427
2.17772
2.1806
2.18229
2.18212
2.18066
2.18002
2.18154
2.18369
2.18352
2.18049
2.15309
2.16014
2.16514
2.16807
2.16962
2.17063
2.17127
2.17161
2.1717
2.1715
2.17123
2.17167
2.17224
2.17263
2.17395
2.1762
2.17876
2.18141
2.18315
2.18346
2.18313
2.18433
2.18726
2.18811
2.18532
2.1814
2.15812
2.16596
2.17119
2.17417
2.17586
2.17675
2.17737
2.17763
2.1776
2.17752
2.17738
2.1771
2.17664
2.17653
2.17728
2.17849
2.17983
2.18158
2.18352
2.18484
2.18611
2.18882
2.19146
2.19005
2.18634
2.18411
2.16995
2.1753
2.17896
2.18153
2.18287
2.18353
2.18363
2.18365
2.18352
2.18332
2.18314
2.18256
2.18157
2.18099
2.18127
2.18147
2.18173
2.18276
2.18428
2.18627
2.18888
2.19201
2.19297
2.19056
2.18799
2.18818
2.1781
2.18315
2.18598
2.18858
2.19016
2.19068
2.1905
2.18983
2.18934
2.1889
2.18837
2.18766
2.18668
2.18589
2.18533
2.18473
2.18458
2.18503
2.18584
2.18751
2.19041
2.19292
2.19284
2.1911
2.19067
2.19298
2.18528
2.18966
2.19228
2.19509
2.19685
2.19777
2.19752
2.19669
2.19534
2.19439
2.1935
2.19259
2.19169
2.19074
2.18957
2.18824
2.18767
2.18779
2.18792
2.18889
2.1909
2.19239
2.19248
2.19244
2.1943
2.19761
2.19404
2.19778
2.19951
2.20195
2.20364
2.20466
2.20453
2.20364
2.20208
2.20022
2.19891
2.19777
2.19666
2.19535
2.19378
2.19215
2.19105
2.19043
2.19003
2.19049
2.19139
2.19189
2.19252
2.19439
2.1978
2.19997
2.20254
2.20601
2.20749
2.20944
2.21072
2.21153
2.21131
2.21046
2.20887
2.2069
2.20471
2.20308
2.20151
2.19977
2.1979
2.19615
2.1947
2.19326
2.1922
2.19214
2.19225
2.19216
2.19318
2.19605
2.19935
2.19984
2.21132
2.2141
2.21523
2.21683
2.21774
2.21831
2.2179
2.21714
2.21556
2.21362
2.21104
2.20842
2.20629
2.20423
2.20214
2.20019
2.19836
2.19645
2.19478
2.19394
2.19332
2.19292
2.1941
2.19677
2.19873
2.19858
2.2207
2.22288
2.2235
2.22448
2.22473
2.22504
2.22448
2.2237
2.22205
2.22001
2.21724
2.21397
2.21109
2.2088
2.20653
2.20428
2.20201
2.19972
2.19772
2.19614
2.19469
2.19392
2.19493
2.19661
2.19716
2.19721
2.23046
2.23223
2.23238
2.2329
2.23233
2.23222
2.23128
2.23038
2.22852
2.2262
2.22329
2.22002
2.21656
2.2136
2.21095
2.20829
2.20564
2.20304
2.20073
2.19863
2.19649
2.19523
2.19571
2.19626
2.19597
2.19636
2.2407
2.242
2.24151
2.24167
2.24046
2.2399
2.23848
2.23719
2.23505
2.23246
2.22931
2.22595
2.22225
2.21849
2.21525
2.2122
2.20924
2.20645
2.20382
2.20125
2.1987
2.19692
2.19655
2.19615
2.19545
2.19604
2.25141
2.25232
2.25113
2.25075
2.24892
2.24786
2.24592
2.24414
2.24169
2.23887
2.23548
2.23187
2.22792
2.22363
2.21962
2.21623
2.21304
2.20995
2.20692
2.20387
2.20104
2.19895
2.19766
2.19639
2.19533
2.19606
2.26253
2.26293
2.26096
2.25992
2.2574
2.25566
2.25317
2.25088
2.24815
2.24511
2.24154
2.2376
2.23334
2.22888
2.22442
2.22048
2.21687
2.21334
2.20987
2.2064
2.20323
2.20075
2.19874
2.19677
2.1954
2.19616
2.27449
2.27404
2.27125
2.26945
2.26617
2.26367
2.26056
2.25767
2.25451
2.25114
2.24736
2.24314
2.23861
2.23401
2.2294
2.22489
2.22061
2.21632
2.21216
2.20829
2.20492
2.20209
2.19958
2.19712
2.19555
2.19606
2.28765
2.28528
2.281
2.27823
2.27422
2.27105
2.26743
2.26403
2.2605
2.25683
2.25282
2.24836
2.24354
2.23864
2.23366
2.22834
2.22314
2.21837
2.21381
2.20952
2.2056
2.20204
2.19896
2.19636
2.19485
2.19488
2.30085
2.29719
2.2914
2.28751
2.28254
2.27846
2.27409
2.26998
2.26587
2.26167
2.25719
2.25238
2.24726
2.24191
2.23642
2.23071
2.2248
2.21914
2.21382
2.20893
2.20449
2.20041
2.1968
2.19398
2.19234
2.19175
2.31133
2.30666
2.29963
2.29464
2.28878
2.28384
2.27873
2.27396
2.26935
2.2648
2.26003
2.25483
2.24919
2.24311
2.23678
2.23032
2.2237
2.2174
2.21156
2.20601
2.20084
2.19619
2.19212
2.18886
2.18664
2.18532
2.322
2.31578
2.30705
2.3005
2.29318
2.28694
2.28102
2.27547
2.27011
2.26483
2.25946
2.25377
2.24762
2.24091
2.23387
2.22695
2.22017
2.21352
2.20719
2.20098
2.19473
2.18942
2.18476
2.18098
2.17802
2.17593
2.32965
2.32106
2.31051
2.30265
2.29443
2.28708
2.2802
2.27384
2.26776
2.26171
2.25559
2.24925
2.24255
2.2355
2.22846
2.22151
2.21401
2.20633
2.19919
2.19242
2.18621
2.18019
2.17496
2.17047
2.16658
2.16357
2.33676
2.32617
2.3135
2.30367
2.29429
2.28579
2.27805
2.271
2.26439
2.25797
2.25154
2.245
2.23826
2.23121
2.22405
2.21694
2.20913
2.2014
2.19392
2.18707
2.18008
2.17327
2.16732
2.16236
2.15816
2.15475
2.32575
2.31334
2.29995
2.29011
2.28131
2.27328
2.26579
2.25876
2.25203
2.24547
2.23887
2.23222
2.22573
2.21934
2.21295
2.20644
2.20006
2.19386
2.18733
2.18108
2.17434
2.1677
2.16174
2.15636
2.15153
2.1474
2.38419
2.3607
2.34074
2.32394
2.30934
2.29688
2.28612
2.27669
2.26823
2.26042
2.25296
2.24568
2.23848
2.2312
2.22395
2.21615
2.20818
2.20016
2.19194
2.18437
2.17677
2.16956
2.16328
2.15795
2.15334
2.14937
1.40001
1.40001
1.40001
1.40001
1.40001
1.40001
1.40001
1.40001
1.40001
1.40001
1.40001
1.40001
1.40001
1.40001
1.40001
)
;

boundaryField
{
    inlet
    {
        type            calculated;
        value           nonuniform 0();
    }
    outlet
    {
        type            calculated;
        value           nonuniform 0();
    }
    triangle
    {
        type            calculated;
        value           nonuniform List<scalar> 
37
(
2.38419
2.3607
2.34074
2.32394
2.30934
2.29688
2.28612
2.27669
2.26823
2.26042
2.25296
2.38419
2.3607
2.34074
2.32394
2.30934
2.29688
2.28612
2.27669
2.26823
2.26042
2.25296
2.24568
2.23848
2.2312
2.22395
2.21615
2.20818
2.20016
2.19194
2.18437
2.17677
2.16956
2.16328
2.15795
2.15334
2.14937
)
;
    }
    top
    {
        type            symmetryPlane;
    }
    bottom
    {
        type            symmetryPlane;
    }
    defaultFaces
    {
        type            empty;
    }
    procBoundary11to3
    {
        type            processor;
        value           nonuniform List<scalar> 
28
(
1.40001
1.40001
1.40001
1.40001
1.40001
1.40001
1.40001
1.40001
1.40001
1.40001
1.40001
1.40001
1.40001
1.40001
1.40001
1.40001
1.40001
1.40001
1.40001
1.40001
1.40001
1.40001
1.40001
1.40001
1.40001
1.40001
1.40001
1.40001
)
;
    }
    procBoundary11to4
    {
        type            processor;
        value           uniform 1.40001;
    }
    procBoundary11to10
    {
        type            processor;
        value           nonuniform List<scalar> 
122
(
2.43135
1.40001
1.40001
1.40001
1.40001
1.40001
1.40001
1.40001
1.40001
1.40001
1.40001
1.40001
1.40001
1.40001
1.40001
1.40001
1.40001
1.40001
1.40001
1.40001
1.40001
1.40001
1.40001
1.40001
1.40001
1.40001
1.40001
1.40001
1.40001
1.40001
1.40001
1.40001
1.40001
1.40001
1.40001
1.40001
1.40001
1.40001
1.40001
1.40001
1.40001
1.40001
1.40001
1.40001
1.40001
1.40001
1.40001
1.40001
1.40001
1.40001
1.40001
1.40001
1.40001
1.40001
1.40001
1.40001
1.40001
1.40001
1.40001
1.40001
1.40001
1.40001
1.40001
1.40001
1.40001
1.40002
1.40005
1.40012
1.40024
1.40043
1.40073
1.40118
1.40161
1.40209
1.40277
1.40386
1.40567
1.4087
1.41365
1.42101
1.43104
1.44659
1.48247
1.57469
1.72695
1.85446
1.93604
1.98948
2.03051
2.06343
2.08952
2.10773
2.12253
2.13561
2.14647
2.15423
2.15871
2.16172
2.15833
2.1485
2.1436
2.14996
2.16559
2.17699
2.18646
2.19522
2.20391
2.21316
2.22283
2.23287
2.24357
2.25502
2.2674
2.28158
2.2979
2.31381
2.32709
2.34078
2.352
2.36452
2.36844
2.43135
)
;
    }
    procBoundary11to12
    {
        type            processor;
        value           nonuniform List<scalar> 
114
(
1.40001
1.40001
1.40001
1.40001
1.40001
1.40001
1.40001
1.40001
1.40001
1.40001
1.40001
1.40001
1.40001
1.40001
1.40001
1.40001
1.40001
1.40001
1.40001
1.40001
1.40001
1.40001
1.40001
1.40001
1.40001
1.40001
1.40001
1.40001
1.40001
1.40001
1.40001
1.40001
1.40001
1.40001
1.40001
1.40001
1.40001
1.40001
1.40001
1.40001
1.40001
1.40001
1.40001
1.40001
1.40001
1.40001
1.40001
1.40001
1.40001
1.40001
1.40001
1.40001
1.40001
1.40001
1.40001
1.40001
1.40001
1.40001
1.40001
1.40028
1.41988
1.60811
1.93224
2.04832
2.08956
2.10194
2.09847
2.09221
2.09684
2.10628
2.11154
2.11081
2.10893
2.11263
2.11974
2.12483
2.12528
2.12425
2.12734
2.13374
2.13846
2.13881
2.13791
2.14087
2.14659
2.15078
2.15147
2.15159
2.15499
2.15986
2.16298
2.16326
2.16414
2.16825
2.17356
2.1767
2.1771
2.17729
2.1801
2.18515
2.19038
2.19502
2.19731
2.19796
2.19794
2.19789
2.19811
2.19852
2.19876
2.19874
2.1983
2.1973
2.19524
2.19146
)
;
    }
    procBoundary11to18
    {
        type            processor;
        value           nonuniform List<scalar> 4(2.36844 2.36452 2.352 2.34078);
    }
    procBoundary11to19
    {
        type            processor;