/*--------------------------------*- C++ -*----------------------------------*\
  =========                 |
  \\      /  F ield         | OpenFOAM: The Open Source CFD Toolbox
   \\    /   O peration     | Website:  https://openfoam.org
    \\  /    A nd           | Version:  8
     \\/     M anipulation  |
\*---------------------------------------------------------------------------*/
FoamFile
{
    version     2.0;
    format      ascii;
    class       volScalarField;
    location    "0.8";
    object      p;
}
// * * * * * * * * * * * * * * * * * * * * * * * * * * * * * * * * * * * * * //

dimensions      [1 -1 -2 0 0 0 0];

internalField   nonuniform List<scalar> 
2600
(
1.06621
1.01027
1.06877
1.39922
1.91579
2.40175
2.54213
2.55227
2.62986
2.97599
1.07753
1.01017
1.11288
1.45595
1.98562
2.43993
2.55757
2.56113
2.62892
2.96068
1.05693
1.00789
1.16318
1.52594
2.05467
2.45579
2.56357
2.56829
2.62664
2.94598
1.05452
1.01591
1.22593
1.58669
2.09781
2.45111
2.54545
2.55928
2.6293
2.94263
1.04951
1.0152
1.25807
1.62741
2.11421
2.4667
2.55614
2.57208
2.63137
2.93222
1.05236
1.02315
1.28851
1.66394
2.11972
2.48968
2.57343
2.58691
2.63344
2.92568
1.05598
1.02173
1.30446
1.69491
2.13432
2.50143
2.58903
2.57938
2.63851
2.92418
1.06512
1.0288
1.32292
1.71664
2.14168
2.48565
2.57219
2.575
2.63686
2.91943
1.07201
1.03135
1.33795
1.73236
2.17012
2.44829
2.58298
2.58295
2.6363
2.92864
1.0813
1.03521
1.34737
1.73215
2.1504
2.47212
2.6056
2.57697
2.63847
2.93064
1.08141
1.03555
1.34756
1.73174
2.10188
2.52669
2.58224
2.57279
2.63495
2.90937
1.07237
1.03167
1.3393
1.73211
2.11618
2.54416
2.58452
2.57525
2.64098
2.91896
1.06557
1.02932
1.32354
1.71339
2.14024
2.48704
2.58384
2.58517
2.63643
2.92038
1.05653
1.02218
1.30503
1.69189
2.15958
2.47563
2.55809
2.57426
2.63584
2.92174
1.05307
1.02364
1.28831
1.66554
2.13766
2.46467
2.55787
2.57809
2.63115
2.92633
1.05041
1.01584
1.2583
1.63154
2.09787
2.46101
2.5666
2.58001
2.63157
2.93402
1.05557
1.01674
1.22729
1.58717
2.07363
2.47747
2.57728
2.57241
2.63018
2.94211
1.05793
1.00878
1.16444
1.52287
2.05259
2.47266
2.56282
2.5626
2.63068
2.94987
1.07862
1.01114
1.11341
1.45406
1.99157
2.43561
2.54049
2.55434
2.62889
2.96036
1.06723
1.01114
1.06917
1.39875
1.92392
2.39169
2.53841
2.55595
2.62437
2.96873
1.4925
1.04418
1.04991
1.33028
1.82607
2.35835
2.53839
2.5589
2.63178
2.97925
1.9962
1.1364
1.06275
1.26034
1.76198
2.3325
2.52577
2.55041
2.63989
2.99212
2.3722
1.29555
1.08867
1.19877
1.6726
2.29055
2.51113
2.54233
2.63452
2.9966
2.66381
1.50332
1.13107
1.16026
1.55593
2.22245
2.4881
2.53911
2.63632
3.00609
2.8967
1.69337
1.19784
1.16038
1.41712
2.12468
2.45329
2.54572
2.65129
3.02222
3.0912
1.88963
1.29961
1.16283
1.27731
1.98143
2.40615
2.55075
2.64822
3.0387
3.29331
2.04897
1.40191
1.17992
1.16045
1.78258
2.33575
2.5448
2.63806
3.05443
3.48067
2.19886
1.52096
1.21786
1.12335
1.5411
2.22868
2.52502
2.62407
3.06898
3.69197
2.33367
1.63722
1.28511
1.14179
1.28535
2.04819
2.49708
2.60806
3.08354
3.8923
2.46677
1.77117
1.37123
1.19046
1.186
1.80627
2.44534
2.6049
3.10123
4.1004
2.60816
1.91101
1.45071
1.25568
1.21563
1.55925
2.36048
2.60951
3.11779
4.29872
2.75792
2.0538
1.52406
1.35765
1.2874
1.3619
2.1946
2.61195
3.13407
4.49295
2.92765
2.1886
1.58464
1.44749
1.37279
1.31322
1.99827
2.61154
3.14958
4.66524
3.09215
2.31947
1.65002
1.55081
1.45925
1.33211
1.80603
2.58912
3.1674
4.80244
3.25592
2.45049
1.71657
1.64613
1.54576
1.36126
1.63372
2.52936
3.19465
4.94589
3.42623
2.57466
1.81919
1.72983
1.63382
1.4025
1.52269
2.4431
3.22996
5.10253
3.61942
2.70359
1.96764
1.78997
1.71118
1.4485
1.47022
2.33272
3.26748
5.27632
3.82137
2.83532
2.12714
1.85423
1.78457
1.49664
1.45731
2.23874
3.30458
5.33208
3.9979
2.96116
2.27891
1.93707
1.85492
1.54931
1.4633
2.14679
3.33537
5.39024
4.14462
3.09231
2.43059
2.03298
1.93263
1.60689
1.47411
2.06484
3.35322
7.49279
7.62467
7.34332
7.1488
7.01461
6.91611
6.79078
6.57229
6.17569
5.604
6.68597
7.12877
6.94009
6.90875
6.86721
6.79496
6.64796
6.39023
5.95177
5.2251
6.28662
7.07884
7.02445
7.04444
6.97629
6.86577
6.67591
6.39271
5.94935
5.17672
5.72293
6.92229
6.97809
6.98844
6.88447
6.77076
6.57492
6.302
5.85943
5.09969
4.05049
6.74137
7.14519
7.0525
6.9374
6.79332
6.55813
6.28068
5.80507
5.09002
2.46998
4.88203
7.31546
7.21779
6.99706
6.77094
6.49689
6.22797
5.68303
5.12978
1.69543
2.4554
5.87127
7.23422
7.01714
6.77285
6.51311
6.22579
5.67292
5.2066
1.46809
1.51977
3.24687
6.52496
6.94956
6.70492
6.47108
6.20538
5.71301
5.25335
1.3573
1.36723
1.52562
4.47703
6.81115
6.77527
6.51165
6.22602
5.75631
5.31471
1.2918
1.30841
1.32286
1.92375
5.70586
6.76956
6.60417
6.27891
5.82442
5.39282
1.22608
1.24359
1.26256
1.29364
3.239
6.4657
6.59475
6.34009
5.8952
5.47659
1.16561
1.17463
1.18846
1.20061
1.46401
4.91755
6.50924
6.30295
5.94178
5.56401
1.13462
1.14364
1.15185
1.16338
1.17972
2.45595
5.95872
6.23149
5.98166
5.64946
1.10109
1.11028
1.12196
1.13436
1.14427
1.28095
4.37385
6.13815
6.05096
5.76201
1.07234
1.07815
1.08734
1.09748
1.11056
1.12457
2.1962
5.41235
6.04821
5.84028
1.05624
1.06005
1.06448
1.07158
1.08114
1.09076
1.22006
4.18898
6.00384
5.94892
1.04306
1.04639
1.04969
1.0548
1.06037
1.06877
1.08275
2.40558
5.44538
6.01166
1.03213
1.03542
1.0395
1.04384
1.04877
1.05512
1.06207
1.30783
4.55709
6.09617
1.02331
1.02577
1.02957
1.03331
1.03858
1.04349
1.04922
1.07035
3.15583
5.93966
1.01668
1.01849
1.02125
1.02436
1.02872
1.03302
1.03851
1.04706
1.77417
5.40837
1
1
1
1
1
1
1
1
0.999951
2.25873
1
1
1
1
1
1
1
1
0.999947
2.17281
1
1
1
1
1
1
1
1
0.999946
2.02583
1
1
1
1
1
1
1
1
0.999947
1.8295
1
1
1
1
1
1
1
1
0.999948
1.63327
1
1
1
1
1
1
1
1
0.99995
1.48063
1
1
1
1
1
1
1
1
0.999951
1.37449
1
1
1
1
1
1
1
1
0.999952
1.29398
1
1
1
1
1
1
1
1
0.999954
1.23738
1
1
1
1
1
1
1
1
0.999956
1.19043
1
1
1
1
1
1
1
1
0.999958
1.13943
1
1
1
1
1
1
1
1
0.999959
1.1095
1
1
1
1
1
1
1
1
0.999961
1.08729
1
1
1
1
1
1
1
1
0.999963
1.0603
1
1
1
1
1
1
1
1
0.999965
1.04468
1
1
1
1
1
1
1
1
0.999968
1.03632
1
1
1
1
1
1
1
1
0.99997
1.02707
1
1
1
1
1
1
1
1
0.999972
1.01876
1
1
1
1
1
1
1
1
0.999974
1.01351
1
1
1
1
1
1
1
1
0.999976
1.0096
1
1
1
1
1
1
1
1
0.999976
1.00961
1
1
1
1
1
1
1
1
0.999974
1.01352
1
1
1
1
1
1
1
1
0.999972
1.01877
1
1
1
1
1
1
1
1
0.999969
1.0271
1
1
1
1
1
1
1
1
0.999967
1.03636
1
1
1
1
1
1
1
1
0.999965
1.04472
1
1
1
1
1
1
1
1
0.999963
1.06035
1
1
1
1
1
1
1
1
0.999961
1.08734
1
1
1
1
1
1
1
1
0.99996
1.10954
1
1
1
1
1
1
1
1
0.999958
1.13951
1
1
1
1
1
1
1
1
0.999956
1.1905
1
1
1
1
1
1
1
1
0.999954
1.23741
1
1
1
1
1
1
1
1
0.999953
1.29405
1
1
1
1
1
1
1
1
0.999951
1.37458
1
1
1
1
1
1
1
1
0.99995
1.48075
1
1
1
1
1
1
1
1
0.999948
1.63343
1
1
1
1
1
1
1
1
0.999947
1.82964
1
1
1
1
1
1
1
1
0.999946
2.02595
1
1
1
1
1
1
1
1
0.999947
2.1729
1
1
1
1
1
1
1
1
0.999951
2.25879
1.01669
1.0185
1.02127
1.02438
1.02874
1.03305
1.03855
1.04708
1.76994
5.40445
1.02333
1.02578
1.02959
1.03333
1.03861
1.04353
1.04927
1.07032
3.14957
5.93652
1.03216
1.03545
1.03954
1.04388
1.04882
1.05518
1.06214
1.30669
4.55104
6.09452
1.04311
1.04644
1.04975
1.05486
1.06044
1.06884
1.08281
2.40196
5.44086
6.01034
1.0563
1.06012
1.06454
1.07164
1.0812
1.09083
1.21983
4.18542
6.00088
5.94699
1.0724
1.07821
1.08741
1.09755
1.11064
1.12466
2.19481
5.40931
6.04604
5.83827
1.10117
1.11035
1.12203
1.13444
1.14436
1.28116
4.37219
6.13581
6.04874
5.75988
1.13469
1.14371
1.15192
1.16347
1.17985
2.45654
5.95785
6.22951
5.97956
5.64698
1.16569
1.17474
1.18862
1.20079
1.46503
4.91777
6.5075
6.30121
5.93989
5.56149
1.22622
1.24375
1.26273
1.29397
3.24247
6.46485
6.59272
6.33825
5.89353
5.47446
1.29189
1.30849
1.32294
1.92614
5.70804
6.76773
6.60223
6.27699
5.82267
5.39077
1.35738
1.36735
1.52678
4.48112
6.81088
6.7737
6.51009
6.22414
5.75431
5.31262
1.46827
1.52018
3.25195
6.52598
6.94788
6.70333
6.46965
6.20383
5.71123
5.25145
1.69586
2.45791
5.87338
7.23213
7.01538
6.77108
6.5115
6.22435
5.67126
5.20489
2.47106
4.88443
7.31418
7.21664
6.99586
6.76971
6.49559
6.22678
5.68158
5.12828
4.05178
6.74125
7.1449
7.05175
6.93626
6.79215
6.55696
6.27957
5.80382
5.08879
5.72306
6.92202
6.97718
6.9874
6.8835
6.76976
6.57397
6.30109
5.85853
5.09866
6.28679
7.07862
7.02369
7.04359
6.97532
6.86474
6.6749
6.39176
5.94854
5.17577
6.68603
7.12863
6.93956
6.90802
6.86623
6.79388
6.64676
6.38923
5.95093
5.22413
7.49297
7.62462
7.34309
7.14838
7.01394
6.91525
6.78992
6.57138
6.17484
5.60289
5.39019
4.1449
3.09214
2.43078
2.03309
1.93253
1.60675
1.47403
2.06497
3.35299
5.33163
3.9977
2.96099
2.27917
1.93714
1.85482
1.54923
1.4633
2.14668
3.3349
5.27606
3.82116
2.83519
2.12736
1.85423
1.78448
1.49655
1.45733
2.23837
3.3039
5.10222
3.61936
2.70341
1.96789
1.78986
1.7111
1.44837
1.47035
2.33207
3.26681
4.94522
3.42592
2.57433
1.81923
1.72972
1.63384
1.40235
1.52262
2.44335
3.22975
4.80132
3.25525
2.45006
1.71637
1.64612
1.54581
1.36106
1.63352
2.52983
3.195
4.66399
3.09132
2.31895
1.64975
1.55082
1.45929
1.33199
1.80567
2.58933
3.16781
4.4916
2.92671
2.18815
1.58436
1.44753
1.37273
1.31314
1.9978
2.61122
3.14935
4.29723
2.75691
2.05349
1.52382
1.35771
1.28746
1.36164
2.19413
2.61111
3.13324
4.09892
2.60714
1.9109
1.45054
1.25571
1.21571
1.55882
2.36047
2.60888
3.11767
3.89082
2.46581
1.77107
1.37119
1.19051
1.18591
1.8061
2.44585
2.60599
3.1022
3.69047
2.33292
1.63702
1.28509
1.14163
1.28478
2.04826
2.49822
2.61003
3.08557
3.47929
2.1983
1.52055
1.21801
1.12326
1.54002
2.22885
2.52654
2.62521
3.07037
3.29203
2.04853
1.40144
1.17999
1.16011
1.78165
2.33588
2.54652
2.63743
3.05252
3.09003
1.88934
1.29911
1.16253
1.27684
1.9818
2.40617
2.55247
2.64643
3.03664
2.89555
1.69319
1.19739
1.16028
1.41698
2.12578
2.4535
2.54454
2.64914
3.02293
2.66267
1.50304
1.13087
1.16021
1.55735
2.2232
2.48769
2.536
2.63772
3.00941
2.37109
1.29516
1.08838
1.19855
1.67627
2.28973
2.51081
2.54248
2.63587
2.99754
1.9951
1.13578
1.0624
1.25962
1.7656
2.33035
2.5246
2.55295
2.63756
2.98761
1.49156
1.04333
1.04948
1.3294
1.8274
2.35948
2.53406
2.55689
2.63129
2.97869
1.00324
1.00413
3.11733
10.3017
9.23823
7.51379
5.84263
4.56958
3.54467
2.61166
1.00224
1.00435
2.62177
9.20358
9.0764
7.41498
5.8239
4.56182
3.53688
2.65875
1.00199
1.01772
2.26198
8.31696
8.82406
7.2226
5.78962
4.54245
3.52412
2.61914
1.00177
1.1096
2.87569
6.99334
8.30711
6.92538
5.68801
4.48661
3.50344
2.61013
1.00089
1.3401
3.5062
5.75794
7.59834
6.69805
5.54296
4.40114
3.46112
2.59122
0.998573
1.68884
4.09142
4.79877
6.45418
6.39059
5.32877
4.29062
3.42112
2.57783
0.99485
2.12772
4.47619
4.45891
5.30894
5.94988
5.04782
4.18054
3.37031
2.5583
0.988221
2.57367
4.70421
4.38109
4.46986
5.36405
4.77142
4.07106
3.30234
2.52975
0.976658
3.0421
4.8238
4.34556
3.98794
4.72148
4.56487
3.96116
3.23241
2.50795
1.00186
3.54527
4.93874
4.3414
3.74961
4.15339
4.37559
3.83068
3.15197
2.48531
1.17577
4.03365
4.85516
4.24872
3.59374
3.68104
4.14377
3.65235
3.04324
2.47201
1.43016
4.38294
4.64613
4.11047
3.45876
3.30509
3.82841
3.44557
2.93986
2.47477
1.87577
4.67611
4.50347
3.94492
3.34302
3.01913
3.42935
3.27059
2.86743
2.49931
2.43891
4.80449
4.40118
3.78647
3.24315
2.82472
2.98272
3.05579
2.72495
2.55758
3.01208
4.87363
4.348
3.65123
3.14243
2.6695
2.59111
2.79005
2.54163
2.64797
3.48346
4.92293
4.28295
3.5165
3.00998
2.54074
2.30388
2.44123
2.37238
2.78735
4.06335
4.96618
4.17691
3.3653
2.8296
2.43363
2.12131
2.06018
2.20872
2.95669
4.78213
4.85032
3.95804
3.17724
2.62339
2.32287
1.97356
1.76591
2.06901
3.11627
5.28991
4.65268
3.70468
2.92939
2.41319
2.19532
1.83137
1.61397
1.94154
3.25546
5.47935
4.44375
3.33385
2.63929
2.24953
2.07146
1.69765
1.52443
1.97993
3.34478
5.47968
4.44331
3.33382
2.63931
2.24961
2.0715
1.69773
1.52457
1.98
3.34486
5.29141
4.65246
3.70436
2.92923
2.41314
2.19532
1.83148
1.61407
1.94172
3.25573
4.78451
4.84999
3.95752
3.17711
2.62326
2.3229
1.97366
1.76602
2.06914
3.11647
4.06556
4.96619
4.17663
3.36515
2.82953
2.43368
2.1214
2.06029
2.20881
2.95675
3.48528
4.9232
4.28297
3.51645
3.01002
2.54084
2.30401
2.44137
2.37244
2.78736
3.014
4.87391
4.34799
3.6512
3.14253
2.66963
2.59126
2.79017
2.54169
2.64798
2.44094
4.80516
4.40123
3.78644
3.24329
2.82488
2.98294
3.0559
2.72499
2.55757
1.87736
4.67706
4.50347
3.94485
3.34314
3.0193
3.42962
3.27073
2.86744
2.49929
1.43137
4.38412
4.64598
4.1104
3.45887
3.3053
3.82868
3.44574
2.93986
2.47474
1.1765
4.03513
4.8551
4.24873
3.59387
3.68132
4.14401
3.65251
3.04324
2.47198
1.00211
3.54652
4.93932
4.34162
3.74977
4.15374
4.37582
3.83077
3.15195
2.48529
0.97665
3.04341
4.82431
4.3458
3.98813
4.7219
4.56509
3.9612
3.23238
2.50794
0.98823
2.57496
4.70487
4.38134
4.4701
5.36451
4.77166
4.07106
3.30227
2.52972
0.994855
2.12881
4.47699
4.45926
5.30936
5.95029
5.04804
4.18052
3.37024
2.55828
0.998576
1.68953
4.09229
4.79931
6.4549
6.39095
5.32894
4.29057
3.42104
2.57782
1.00089
1.3404
3.5069
5.75843
7.59919
6.6983
5.543
4.40107
3.46106
2.59121
1.00177
1.10968
2.87614
6.99373
8.30765
6.92557
5.68794
4.4865
3.5034
2.61013
1.00199
1.01773
2.26216
8.31723
8.82434
7.22254
5.78946
4.54234
3.52409
2.61915
1.00224
1.00435
2.62181
9.20409
9.07638
7.41475
5.82366
4.56171
3.53687
2.65876
1.00324
1.00413
3.11722
10.3021
9.2384
7.51346
5.84232
4.56948
3.54467
2.61168
1.01098
1.01229
1.01402
1.0164
1.0192
1.02295
1.02762
1.03191
1.12686
3.89522
1.00664
1.00739
1.00829
1.00968
1.0112
1.01363
1.01634
1.02028
1.02322
1.89741
1.00408
1.00449
1.00501
1.00572
1.00659
1.00785
1.00936
1.01214
1.01358
1.10513
1.00246
1.00272
1.00308
1.00347
1.004
1.00462
1.00551
1.00678
1.00829
1.01044
1.00149
1.00165
1.00188
1.00213
1.00245
1.00282
1.00333
1.00391
1.00511
1.00568
1.00094
1.00104
1.00118
1.00135
1.00156
1.00179
1.0021
1.00244
1.0031
1.00356
1.00062
1.00069
1.00078
1.0009
1.00104
1.0012
1.00142
1.00164
1.00203
1.00233
1.00043
1.00048
1.00055
1.00063
1.00074
1.00086
1.00103
1.00121
1.00148
1.00169
1.00033
1.00037
1.00042
1.00049
1.00057
1.00068
1.00082
1.00097
1.00122
1.0014
1.00028
1.00031
1.00035
1.00041
1.00048
1.00057
1.0007
1.00083
1.00108
1.00126
1.00025
1.00028
1.00033
1.00038
1.00045
1.00053
1.00064
1.00078
1.00099
1.00121
1.00024
1.00027
1.00031
1.00036
1.00042
1.00051
1.00062
1.00077
1.00094
1.0014
1.00023
1.00026
1.0003
1.00035
1.00041
1.00049
1.0006
1.00076
1.00092
1.00142
1.00025
1.00028
1.00033
1.00038
1.00045
1.00054
1.00066
1.00082
1.001
1.00147
1.00029
1.00032
1.00037
1.00043
1.0005
1.00059
1.00071
1.00086
1.00103
1.00148
1.00032
1.00036
1.00041
1.00046
1.00054
1.00062
1.00074
1.00088
1.00106
1.00144
1.00036
1.0004
1.00044
1.00049
1.00056
1.00064
1.00075
1.00089
1.00107
1.00137
1.00038
1.00041
1.00045
1.00051
1.00058
1.00067
1.00077
1.00093
1.00111
1.00141
1.00037
1.00041
1.00046
1.00053
1.0006
1.00071
1.00083
1.00101
1.00119
1.00151
1.00034
1.00038
1.00044
1.00051
1.00061
1.00072
1.00088
1.00105
1.00131
1.00158
1
1
1
1
1
1
1
1
0.999979
1.00631
1
1
1
1
1
1
1
1
0.999982
1.00394
1
1
1
1
1
1
1
1
0.999986
1.00242
1
1
1
1
1
1
1
1
0.999989
1.00142
1
1
1
1
1
1
1
1
0.999991
1.00086
1
1
1
1
1
1
1
1
0.999993
1.00054
1
1
1
1
1
1
1
1
0.999995
1.00035
1
1
1
1
1
1
1
1
0.999997
1.00025
1
1
1
1
1
1
1
1
0.999998
1.00019
1
1
1
1
1
1
1
1
0.999999
1.00016
1
1
1
1
1
1
1
1
1
1.00014
1
1
1
1
1
1
1
1
1
1.00014
1
1
1
1
1
1
1
1
1
1.00014
1
1
1
1
1
1
1
1
1
1.00015
1
1
1
1
1
1
1
1
1
1.00017
1
1
1
1
1
1
1
1
1
1.00018
1
1
1
1
1
1
1
1
1
1.00022
1
1
1
1
1
1
1
1
1
1.00023
1
1
1
1
1
1
1
1
1
1.00022
1
1
1
1
1
1
1
1
1
1.00019
1
1
1
1
1
1
1
1
1
1.00019
1
1
1
1
1
1
1
1
1
1.00022
1
1
1
1
1
1
1
1
1
1.00023
1
1
1
1
1
1
1
1
1
1.00022
1
1
1
1
1
1
1
1
1
1.00018
1
1
1
1
1
1
1
1
1
1.00017
1
1
1
1
1
1
1
1
1
1.00015
1
1
1
1
1
1
1
1
1
1.00013
1
1
1
1
1
1
1
1
1
1.00014
1
1
1
1
1
1
1
1
1
1.00014
1
1
1
1
1
1
1
1
0.999999
1.00016
1
1
1
1
1
1
1
1
0.999998
1.00019
1
1
1
1
1
1
1
1
0.999997
1.00025
1
1
1
1
1
1
1
1
0.999995
1.00035
1
1
1
1
1
1
1
1
0.999994
1.00054
1
1
1
1
1
1
1
1
0.999991
1.00086
1
1
1
1
1
1
1
1
0.999989
1.00142
1
1
1
1
1
1
1
1
0.999986
1.00242
1
1
1
1
1
1
1
1
0.999983
1.00394
1
1
1
1
1
1
1
1
0.999979
1.00631
1.00034
1.00038
1.00044
1.00051
1.00061
1.00072
1.00088
1.00105
1.00131
1.00158
1.00037
1.00041
1.00046
1.00053
1.0006
1.00071
1.00083
1.00101
1.00119
1.00151
1.00038
1.00041
1.00045
1.00051
1.00058
1.00067
1.00077
1.00093
1.00111
1.00141
1.00036
1.0004
1.00044
1.00049
1.00056
1.00064
1.00075
1.00089
1.00107
1.00137
1.00032
1.00036
1.00041
1.00046
1.00054
1.00062
1.00074
1.00088
1.00106
1.00144
1.00029
1.00032
1.00037
1.00043
1.0005
1.00059
1.00071
1.00086
1.00103
1.00148
1.00025
1.00028
1.00033
1.00038
1.00045
1.00054
1.00066
1.00082
1.001
1.00147
1.00023
1.00026
1.0003
1.00035
1.00041
1.00049
1.0006
1.00076
1.00092
1.00142
1.00024
1.00027
1.00031
1.00036
1.00042
1.00051
1.00062
1.00077
1.00094
1.0014
1.00025
1.00028
1.00033
1.00038
1.00045
1.00053
1.00064
1.00078
1.00099
1.00122
1.00028
1.00031
1.00035
1.00041
1.00048
1.00057
1.0007
1.00083
1.00108
1.00126
1.00033
1.00037
1.00042
1.00049
1.00057
1.00068
1.00082
1.00097
1.00122
1.0014
1.00043
1.00048
1.00055
1.00063
1.00074
1.00086
1.00103
1.00121
1.00149
1.00169
1.00062
1.00069
1.00078
1.0009
1.00104
1.0012
1.00142
1.00164
1.00203
1.00233
1.00094
1.00104
1.00118
1.00135
1.00156
1.00179
1.00211
1.00244
1.0031
1.00356
1.00149
1.00165
1.00188
1.00213
1.00246
1.00282
1.00333
1.00392
1.00511
1.00568
1.00246
1.00272
1.00308
1.00347
1.004
1.00462
1.00551
1.00678
1.00829
1.01042
1.00408
1.00449
1.00502
1.00572
1.00659
1.00786
1.00936
1.01214
1.01359
1.10422
1.00664
1.00739
1.0083
1.00968
1.01121
1.01363
1.01634
1.02029
1.02322
1.89228
1.01098
1.0123
1.01403
1.01641
1.01921
1.02296
1.02764
1.03193
1.12603
3.88894
)
;

boundaryField
{
    inlet
    {
        type            fixedValue;
        value           uniform 1;
    }
    outlet
    {
        type            zeroGradient;
    }
    triangle
    {
        type            zeroGradient;
    }
    top
    {
        type            symmetryPlane;
    }
    bottom
    {
        type            symmetryPlane;
    }
    defaultFaces
    {
        type            empty;
    }
}


// ************************************************************************* //
