/*--------------------------------*- C++ -*----------------------------------*\
  =========                 |
  \\      /  F ield         | OpenFOAM: The Open Source CFD Toolbox
   \\    /   O peration     | Website:  https://openfoam.org
    \\  /    A nd           | Version:  7
     \\/     M anipulation  |
\*---------------------------------------------------------------------------*/
FoamFile
{
    version     2.0;
    format      ascii;
    class       volScalarField;
    location    "0.8";
    object      p;
}
// * * * * * * * * * * * * * * * * * * * * * * * * * * * * * * * * * * * * * //

dimensions      [1 -1 -2 0 0 0 0];

internalField   nonuniform List<scalar> 
2600
(
1.0662
1.01041
1.06882
1.39914
1.92135
2.39277
2.54187
2.55674
2.62507
2.97052
1.07755
1.01028
1.11297
1.45493
1.99274
2.42839
2.53932
2.55507
2.62668
2.95868
1.05695
1.008
1.16371
1.52369
2.05795
2.46344
2.55461
2.55983
2.62909
2.94842
1.05458
1.01611
1.22674
1.58571
2.08206
2.48018
2.57483
2.57073
2.63051
2.9416
1.04957
1.01539
1.25827
1.6298
2.09506
2.47225
2.57443
2.58202
2.63259
2.93338
1.05237
1.02316
1.28833
1.66631
2.12536
2.46469
2.56163
2.57881
2.63187
2.92601
1.05594
1.02164
1.30441
1.69305
2.16563
2.46993
2.56398
2.57902
2.6366
2.92362
1.06509
1.02878
1.32331
1.71511
2.15004
2.49116
2.58024
2.5813
2.63666
2.92436
1.07204
1.0315
1.33891
1.73179
2.11998
2.5304
2.56615
2.56968
2.63794
2.91779
1.08131
1.03538
1.34775
1.7302
2.11773
2.50032
2.57631
2.57187
2.63344
2.91856
1.08135
1.03531
1.3471
1.73332
2.13698
2.494
2.61051
2.57773
2.63974
2.92089
1.0723
1.03142
1.3383
1.73255
2.16356
2.4633
2.6033
2.58809
2.63932
2.92897
1.06557
1.0292
1.32297
1.7148
2.13307
2.48782
2.57405
2.57834
2.63623
2.91733
1.05654
1.02217
1.30502
1.69356
2.12929
2.50891
2.58195
2.5751
2.63827
2.92262
1.05301
1.02355
1.28857
1.66341
2.13319
2.48488
2.56974
2.58585
2.63272
2.92523
1.05031
1.01559
1.2581
1.62911
2.11875
2.45292
2.54758
2.56961
2.62989
2.93216
1.05548
1.01649
1.22639
1.58804
2.08978
2.45038
2.54857
2.56108
2.62898
2.94354
1.05789
1.0086
1.16377
1.52515
2.04759
2.46848
2.57367
2.57202
2.6285
2.948
1.07859
1.01098
1.11325
1.4552
1.98303
2.44538
2.5577
2.55954
2.63101
2.962
1.06722
1.01095
1.06909
1.39902
1.91797
2.39903
2.53682
2.55034
2.62887
2.97367
1.49245
1.04408
1.04982
1.32988
1.82784
2.3569
2.53225
2.55741
2.62988
2.97717
1.99612
1.13642
1.06268
1.26002
1.76484
2.32945
2.5259
2.55344
2.6383
2.98893
2.37214
1.29558
1.08857
1.19872
1.67483
2.28979
2.51166
2.54226
2.6369
2.99864
2.66374
1.50336
1.13101
1.16036
1.55659
2.22325
2.48758
2.53592
2.63738
3.00924
2.89666
1.6934
1.19767
1.16049
1.41707
2.12561
2.45309
2.54482
2.64827
3.02237
3.09117
1.88963
1.29943
1.1629
1.27706
1.98146
2.40589
2.55237
2.64646
3.0364
3.29326
2.04896
1.40175
1.18004
1.16016
1.78159
2.33581
2.54623
2.63771
3.05292
3.48061
2.19884
1.52084
1.21795
1.12337
1.54025
2.22894
2.52629
2.62555
3.07081
3.69189
2.33362
1.63716
1.28512
1.14175
1.28495
2.0483
2.49809
2.61018
3.08572
3.89219
2.46672
1.77111
1.3712
1.19055
1.18592
1.80607
2.44576
2.60604
3.10219
4.10026
2.6081
1.91096
1.45064
1.25573
1.21565
1.5589
2.3605
2.60869
3.11757
4.29855
2.75784
2.05374
1.524
1.35769
1.2874
1.36183
2.19424
2.61109
3.13322
4.49278
2.92756
2.18851
1.5846
1.44752
1.37272
1.31318
1.998
2.61139
3.14949
4.66508
3.09206
2.31936
1.64999
1.55082
1.45926
1.33203
1.80582
2.58956
3.16796
4.80227
3.25584
2.45036
1.71655
1.64614
1.54577
1.3611
1.63368
2.53005
3.19504
4.94577
3.42616
2.57455
1.81918
1.72983
1.63385
1.4024
1.52276
2.4435
3.22968
5.10247
3.61938
2.70349
1.96763
1.78998
1.7112
1.44844
1.47045
2.33198
3.26668
5.27625
3.82132
2.83524
2.12712
1.85424
1.78457
1.49664
1.45741
2.23836
3.3038
5.332
3.99783
2.96108
2.2789
1.93709
1.85491
1.54936
1.46334
2.14676
3.33486
5.39016
4.14459
3.09223
2.43058
2.03299
1.93264
1.60689
1.47409
2.06511
3.35301
7.49281
7.62466
7.3433
7.14878
7.0146
6.91612
6.79082
6.57236
6.17579
5.6041
6.68597
7.12876
6.94006
6.90873
6.86719
6.79496
6.64802
6.39031
5.95185
5.22521
6.28662
7.07881
7.0244
7.04442
6.97628
6.86579
6.67597
6.3928
5.94946
5.17684
5.72292
6.92225
6.97805
6.98841
6.88445
6.77078
6.57497
6.30209
5.85953
5.0998
4.05046
6.74133
7.14516
7.05247
6.93739
6.79332
6.55818
6.28077
5.80515
5.09012
2.46997
4.88199
7.31538
7.21777
6.99706
6.77095
6.49694
6.22803
5.68309
5.12986
1.69543
2.45539
5.87123
7.23415
7.01708
6.77278
6.5131
6.22581
5.67301
5.20661
1.4681
1.51978
3.24694
6.525
6.94957
6.70488
6.47105
6.20536
5.71308
5.25333
1.3573
1.36724
1.52564
4.47723
6.81122
6.77525
6.51164
6.22597
5.75631
5.31466
1.29181
1.30842
1.32286
1.92388
5.70615
6.76948
6.60408
6.27886
5.82442
5.39276
1.22609
1.2436
1.26258
1.29367
3.23944
6.46577
6.59465
6.33998
5.89515
5.47647
1.16561
1.17463
1.18847
1.20062
1.46415
4.91784
6.50915
6.30282
5.94161
5.56378
1.13462
1.14365
1.15185
1.16338
1.17973
2.45631
5.95886
6.23131
5.98143
5.64919
1.1011
1.11029
1.12197
1.13437
1.14427
1.28104
4.37407
6.13794
6.0507
5.76174
1.07234
1.07815
1.08735
1.09749
1.11057
1.12458
2.19646
5.41223
6.04795
5.84002
1.05624
1.06006
1.06448
1.07159
1.08115
1.09077
1.22014
4.18907
6.00352
5.94865
1.04307
1.04639
1.0497
1.05481
1.06038
1.06878
1.08276
2.40567
5.44512
6.01149
1.03214
1.03543
1.0395
1.04384
1.04877
1.05513
1.06208
1.30785
4.55675
6.09593
1.02332
1.02577
1.02957
1.03331
1.03858
1.0435
1.04923
1.07036
3.1555
5.93938
1.01669
1.01849
1.02126
1.02437
1.02873
1.03303
1.03852
1.04707
1.77396
5.40801
1
1
1
1
1
1
1
1
0.999951
2.25873
1
1
1
1
1
1
1
1
0.999947
2.17282
1
1
1
1
1
1
1
1
0.999946
2.02584
1
1
1
1
1
1
1
1
0.999947
1.82951
1
1
1
1
1
1
1
1
0.999948
1.63328
1
1
1
1
1
1
1
1
0.99995
1.48064
1
1
1
1
1
1
1
1
0.999951
1.37449
1
1
1
1
1
1
1
1
0.999952
1.29398
1
1
1
1
1
1
1
1
0.999954
1.23738
1
1
1
1
1
1
1
1
0.999956
1.19043
1
1
1
1
1
1
1
1
0.999958
1.13943
1
1
1
1
1
1
1
1
0.999959
1.1095
1
1
1
1
1
1
1
1
0.999961
1.08729
1
1
1
1
1
1
1
1
0.999963
1.06031
1
1
1
1
1
1
1
1
0.999965
1.04468
1
1
1
1
1
1
1
1
0.999968
1.03633
1
1
1
1
1
1
1
1
0.99997
1.02708
1
1
1
1
1
1
1
1
0.999972
1.01876
1
1
1
1
1
1
1
1
0.999974
1.01351
1
1
1
1
1
1
1
1
0.999976
1.00961
1
1
1
1
1
1
1
1
0.999976
1.00961
1
1
1
1
1
1
1
1
0.999974
1.01352
1
1
1
1
1
1
1
1
0.999972
1.01877
1
1
1
1
1
1
1
1
0.999969
1.0271
1
1
1
1
1
1
1
1
0.999967
1.03636
1
1
1
1
1
1
1
1
0.999965
1.04472
1
1
1
1
1
1
1
1
0.999963
1.06035
1
1
1
1
1
1
1
1
0.999961
1.08734
1
1
1
1
1
1
1
1
0.99996
1.10954
1
1
1
1
1
1
1
1
0.999958
1.13951
1
1
1
1
1
1
1
1
0.999956
1.1905
1
1
1
1
1
1
1
1
0.999954
1.23741
1
1
1
1
1
1
1
1
0.999953
1.29405
1
1
1
1
1
1
1
1
0.999951
1.37459
1
1
1
1
1
1
1
1
0.99995
1.48076
1
1
1
1
1
1
1
1
0.999948
1.63343
1
1
1
1
1
1
1
1
0.999947
1.82965
1
1
1
1
1
1
1
1
0.999946
2.02596
1
1
1
1
1
1
1
1
0.999947
2.17291
1
1
1
1
1
1
1
1
0.999951
2.2588
1.01669
1.0185
1.02127
1.02438
1.02874
1.03305
1.03854
1.04708
1.77029
5.40484
1.02333
1.02578
1.02959
1.03333
1.03861
1.04353
1.04927
1.07032
3.1501
5.93682
1.03216
1.03545
1.03953
1.04388
1.04882
1.05518
1.06213
1.30679
4.55153
6.09471
1.04311
1.04644
1.04975
1.05486
1.06044
1.06884
1.08281
2.40228
5.44125
6.01049
1.0563
1.06011
1.06454
1.07164
1.0812
1.09083
1.21987
4.18573
6.00112
5.94717
1.0724
1.07821
1.08741
1.09755
1.11064
1.12465
2.19502
5.40953
6.04622
5.83843
1.10117
1.11035
1.12203
1.13444
1.14436
1.2812
4.37243
6.13593
6.04888
5.76004
1.13468
1.14371
1.15192
1.16347
1.17985
2.45675
5.95791
6.22959
5.97967
5.64712
1.16569
1.17474
1.18862
1.20078
1.46508
4.91803
6.50756
6.30125
5.93996
5.5616
1.22622
1.24375
1.26273
1.29398
3.24267
6.46501
6.5928
6.33831
5.89358
5.47455
1.29189
1.30849
1.32294
1.92621
5.70822
6.76782
6.60229
6.27704
5.82271
5.39084
1.35738
1.36734
1.5268
4.48131
6.81097
6.77378
6.51015
6.2242
5.75436
5.31268
1.46827
1.52019
3.2521
6.52611
6.94794
6.7034
6.46972
6.20389
5.71126
5.2515
1.69587
2.45798
5.87351
7.23221
7.01544
6.77116
6.51156
6.22441
5.6713
5.20493
2.47109
4.88455
7.31425
7.21671
6.99592
6.76977
6.49565
6.22683
5.68162
5.12831
4.05184
6.74132
7.14497
7.05182
6.93633
6.79222
6.55702
6.27962
5.80386
5.08882
5.7231
6.92207
6.97724
6.98747
6.88356
6.76983
6.57403
6.30113
5.85857
5.09868
6.28682
7.07866
7.02374
7.04365
6.97538
6.8648
6.67495
6.3918
5.94858
5.1758
6.68608
7.12867
6.93961
6.90807
6.86629
6.79394
6.64682
6.38928
5.95097
5.22417
7.49302
7.62466
7.34314
7.14843
7.01399
6.9153
6.78998
6.57143
6.17489
5.60293
5.39022
4.14486
3.09218
2.43077
2.03309
1.93253
1.60676
1.47405
2.06468
3.35311
5.33168
3.99772
2.96103
2.27916
1.93713
1.85484
1.54918
1.46325
2.14667
3.33532
5.2761
3.82116
2.83522
2.12736
1.85421
1.78449
1.49655
1.45723
2.23869
3.30463
5.10225
3.61934
2.70344
1.96788
1.78985
1.71109
1.44844
1.47011
2.33275
3.26761
4.94526
3.42591
2.57437
1.81923
1.72972
1.63382
1.40248
1.52256
2.44304
3.23009
4.80139
3.25527
2.45009
1.71639
1.64612
1.5458
1.36125
1.63363
2.52931
3.1947
4.66406
3.09135
2.31898
1.64978
1.55082
1.45928
1.33211
1.80603
2.58905
3.16733
4.49167
2.92674
2.18817
1.58442
1.44751
1.37281
1.31321
1.99817
2.61142
3.14947
4.29729
2.75696
2.0535
1.52389
1.35768
1.28747
1.36174
2.19446
2.61183
3.13405
4.09898
2.60719
1.91091
1.45063
1.25567
1.21569
1.55911
2.36026
2.60935
3.11784
3.89088
2.46587
1.7711
1.37124
1.19044
1.18601
1.80612
2.44515
2.60471
3.10125
3.69053
2.33298
1.63708
1.28511
1.14167
1.28521
2.04819
2.49706
2.60779
3.08338
3.47935
2.19834
1.52067
1.21791
1.12324
1.54119
2.22887
2.52527
2.62374
3.06859
3.29209
2.04857
1.4016
1.17986
1.16042
1.78306
2.33607
2.54521
2.63789
3.05428
3.0901
1.88937
1.2993
1.16245
1.27723
1.98194
2.40655
2.55117
2.64839
3.03914
2.89563
1.69318
1.19754
1.16013
1.4172
2.12485
2.45361
2.54537
2.65189
3.02292
2.66276
1.50307
1.1309
1.16007
1.55682
2.22249
2.48787
2.53852
2.63634
3.00619
2.37117
1.29522
1.08845
1.19861
1.67415
2.29085
2.51027
2.54249
2.6332
2.99565
1.99517
1.13588
1.06247
1.26003
1.76282
2.33385
2.52516
2.55046
2.63911
2.99124
1.49159
1.04347
1.04958
1.32997
1.82554
2.36166
2.54009
2.5584
2.63333
2.98119
1.00324
1.00413
3.11739
10.3021
9.2385
7.5138
5.84255
4.56953
3.54466
2.61167
1.00224
1.00435
2.62181
9.20381
9.07646
7.41498
5.82385
4.56178
3.53687
2.65875
1.00199
1.01772
2.26203
8.31698
8.82413
7.22262
5.7896
4.54242
3.52411
2.61914
1.00177
1.10963
2.87578
6.99327
8.30715
6.92543
5.68802
4.48659
3.50343
2.61013
1.00089
1.34015
3.50628
5.75791
7.59841
6.69811
5.543
4.40113
3.46111
2.59122
0.998573
1.68893
4.09149
4.79876
6.45422
6.39066
5.32883
4.29062
3.4211
2.57782
0.99485
2.12786
4.47623
4.45891
5.30896
5.94995
5.04788
4.18055
3.3703
2.55829
0.988221
2.57381
4.70424
4.38107
4.46986
5.3641
4.77147
4.07108
3.30233
2.52974
0.976655
3.04223
4.8238
4.34555
3.98793
4.72151
4.56492
3.96118
3.23241
2.50795
1.00188
3.54537
4.93875
4.34138
3.7496
4.15342
4.37563
3.83071
3.15197
2.48531
1.17584
4.03378
4.8551
4.24868
3.59374
3.68106
4.1438
3.65239
3.04325
2.472
1.43027
4.38304
4.64608
4.11042
3.45875
3.3051
3.82845
3.4456
2.93987
2.47476
1.87589
4.67618
4.50344
3.94488
3.34302
3.01914
3.42938
3.27061
2.86744
2.49931
2.43907
4.80454
4.40116
3.78645
3.24316
2.82473
2.98274
3.0558
2.72496
2.55759
3.01224
4.87365
4.348
3.65122
3.14243
2.6695
2.59112
2.79007
2.54164
2.64798
3.48361
4.92297
4.28297
3.5165
3.00997
2.54074
2.30388
2.44125
2.37239
2.78736
4.06355
4.9662
4.1769
3.3653
2.82958
2.43362
2.12131
2.06018
2.20873
2.95675
4.78235
4.85031
3.95801
3.17724
2.62336
2.32286
1.97356
1.76592
2.06905
3.11645
5.29007
4.65267
3.70468
2.9294
2.4132
2.19532
1.83136
1.61399
1.94167
3.25568
5.47941
4.44371
3.33385
2.6393
2.24959
2.07146
1.69764
1.52444
1.97985
3.34476
5.47958
4.44331
3.33379
2.63929
2.24959
2.07151
1.69774
1.52455
1.98008
3.34483
5.29127
4.65245
3.70435
2.92921
2.41314
2.19533
1.83148
1.61404
1.94159
3.25552
4.78433
4.85
3.95754
3.17709
2.62327
2.32291
1.97366
1.76601
2.0691
3.11631
4.0654
4.96617
4.17663
3.36513
2.82954
2.43369
2.12141
2.06028
2.20879
2.95671
3.48516
4.92316
4.28294
3.51644
3.01002
2.54084
2.30401
2.44135
2.37243
2.78736
3.01387
4.87388
4.34799
3.6512
3.14253
2.66963
2.59126
2.79016
2.54168
2.64797
2.4408
4.80511
4.40123
3.78646
3.24329
2.82488
2.98292
3.05589
2.72498
2.55756
1.87726
4.67701
4.5035
3.94488
3.34315
3.0193
3.4296
3.27071
2.86743
2.49929
1.43128
4.38405
4.64604
4.11044
3.45888
3.30529
3.82865
3.44571
2.93985
2.47474
1.17644
4.03501
4.85516
4.24876
3.59387
3.68129
4.14398
3.65248
3.04323
2.47198
1.00209
3.54643
4.93931
4.34163
3.74976
4.15372
4.3758
3.83075
3.15194
2.48529
0.976653
3.0433
4.8243
4.3458
3.98812
4.72188
4.56506
3.96118
3.23238
2.50794
0.98823
2.57483
4.70483
4.38133
4.4701
5.36449
4.77163
4.07105
3.30227
2.52973
0.994855
2.12869
4.47693
4.45925
5.30936
5.95026
5.04801
4.18051
3.37025
2.55828
0.998576
1.68945
4.09221
4.7993
6.45488
6.39091
5.3289
4.29057
3.42105
2.57782
1.00089
1.34036
3.50682
5.75845
7.59914
6.69826
5.54298
4.40107
3.46107
2.59122
1.00177
1.10966
2.87606
6.99375
8.3076
6.92553
5.68793
4.48651
3.50341
2.61013
1.00199
1.01772
2.26213
8.31721
8.82428
7.22252
5.78947
4.54235
3.5241
2.61915
1.00224
1.00435
2.6218
9.20398
9.07633
7.41474
5.82368
4.56173
3.53688
2.65876
1.00324
1.00413
3.11719
10.302
9.23824
7.51344
5.84236
4.5695
3.54467
2.61167
1.01098
1.0123
1.01402
1.01641
1.0192
1.02295
1.02762
1.03191
1.12682
3.89475
1.00664
1.00739
1.0083
1.00968
1.01121
1.01363
1.01634
1.02028
1.02322
1.89708
1.00408
1.00449
1.00501
1.00572
1.00659
1.00785
1.00936
1.01214
1.01359
1.10507
1.00246
1.00272
1.00308
1.00347
1.004
1.00462
1.00551
1.00678
1.00829
1.01044
1.00149
1.00165
1.00188
1.00213
1.00245
1.00282
1.00333
1.00392
1.00511
1.00568
1.00094
1.00104
1.00118
1.00135
1.00156
1.00179
1.0021
1.00244
1.0031
1.00356
1.00062
1.00069
1.00078
1.0009
1.00104
1.0012
1.00142
1.00164
1.00203
1.00233
1.00043
1.00048
1.00055
1.00063
1.00074
1.00086
1.00103
1.00121
1.00148
1.00169
1.00033
1.00037
1.00042
1.00049
1.00057
1.00068
1.00082
1.00097
1.00122
1.0014
1.00028
1.00031
1.00035
1.00041
1.00048
1.00057
1.0007
1.00083
1.00108
1.00126
1.00025
1.00028
1.00033
1.00038
1.00045
1.00053
1.00064
1.00078
1.00099
1.00121
1.00024
1.00027
1.00031
1.00036
1.00042
1.00051
1.00062
1.00077
1.00094
1.0014
1.00023
1.00026
1.0003
1.00035
1.00041
1.00049
1.0006
1.00076
1.00092
1.00142
1.00025
1.00028
1.00033
1.00038
1.00045
1.00054
1.00066
1.00082
1.001
1.00147
1.00029
1.00032
1.00037
1.00043
1.0005
1.00059
1.00071
1.00086
1.00103
1.00148
1.00032
1.00036
1.00041
1.00046
1.00054
1.00062
1.00074
1.00088
1.00106
1.00144
1.00036
1.0004
1.00044
1.00049
1.00056
1.00064
1.00075
1.00089
1.00107
1.00137
1.00038
1.00041
1.00045
1.00051
1.00058
1.00067
1.00077
1.00093
1.00111
1.00141
1.00037
1.00041
1.00046
1.00053
1.0006
1.00071
1.00083
1.00101
1.00119
1.00151
1.00034
1.00038
1.00044
1.00051
1.00061
1.00072
1.00088
1.00105
1.00131
1.00158
1
1
1
1
1
1
1
1
0.999979
1.00631
1
1
1
1
1
1
1
1
0.999982
1.00394
1
1
1
1
1
1
1
1
0.999986
1.00242
1
1
1
1
1
1
1
1
0.999989
1.00142
1
1
1
1
1
1
1
1
0.999991
1.00086
1
1
1
1
1
1
1
1
0.999993
1.00054
1
1
1
1
1
1
1
1
0.999995
1.00035
1
1
1
1
1
1
1
1
0.999997
1.00025
1
1
1
1
1
1
1
1
0.999998
1.00019
1
1
1
1
1
1
1
1
0.999999
1.00016
1
1
1
1
1
1
1
1
1
1.00014
1
1
1
1
1
1
1
1
1
1.00014
1
1
1
1
1
1
1
1
1
1.00014
1
1
1
1
1
1
1
1
1
1.00015
1
1
1
1
1
1
1
1
1
1.00017
1
1
1
1
1
1
1
1
1
1.00018
1
1
1
1
1
1
1
1
1
1.00022
1
1
1
1
1
1
1
1
1
1.00023
1
1
1
1
1
1
1
1
1
1.00022
1
1
1
1
1
1
1
1
1
1.00019
1
1
1
1
1
1
1
1
1
1.00019
1
1
1
1
1
1
1
1
1
1.00022
1
1
1
1
1
1
1
1
1
1.00023
1
1
1
1
1
1
1
1
1
1.00022
1
1
1
1
1
1
1
1
1
1.00018
1
1
1
1
1
1
1
1
1
1.00017
1
1
1
1
1
1
1
1
1
1.00015
1
1
1
1
1
1
1
1
1
1.00013
1
1
1
1
1
1
1
1
1
1.00014
1
1
1
1
1
1
1
1
1
1.00014
1
1
1
1
1
1
1
1
0.999999
1.00016
1
1
1
1
1
1
1
1
0.999998
1.00019
1
1
1
1
1
1
1
1
0.999997
1.00025
1
1
1
1
1
1
1
1
0.999995
1.00035
1
1
1
1
1
1
1
1
0.999994
1.00054
1
1
1
1
1
1
1
1
0.999991
1.00086
1
1
1
1
1
1
1
1
0.999989
1.00142
1
1
1
1
1
1
1
1
0.999986
1.00242
1
1
1
1
1
1
1
1
0.999983
1.00394
1
1
1
1
1
1
1
1
0.999979
1.00631
1.00034
1.00038
1.00044
1.00051
1.00061
1.00072
1.00088
1.00105
1.00131
1.00158
1.00037
1.00041
1.00046
1.00053
1.0006
1.00071
1.00083
1.00101
1.00119
1.00151
1.00038
1.00041
1.00045
1.00051
1.00058
1.00067
1.00077
1.00093
1.00111
1.00141
1.00036
1.0004
1.00044
1.00049
1.00056
1.00064
1.00075
1.00089
1.00107
1.00137
1.00032
1.00036
1.00041
1.00046
1.00054
1.00062
1.00074
1.00088
1.00106
1.00144
1.00029
1.00032
1.00037
1.00043
1.0005
1.00059
1.00071
1.00086
1.00103
1.00148
1.00025
1.00028
1.00033
1.00038
1.00045
1.00054
1.00066
1.00082
1.001
1.00147
1.00023
1.00026
1.0003
1.00035
1.00041
1.00049
1.0006
1.00076
1.00092
1.00142
1.00024
1.00027
1.00031
1.00036
1.00042
1.00051
1.00062
1.00077
1.00094
1.0014
1.00025
1.00028
1.00033
1.00038
1.00045
1.00053
1.00064
1.00078
1.00099
1.00122
1.00028
1.00031
1.00035
1.00041
1.00048
1.00057
1.0007
1.00083
1.00108
1.00126
1.00033
1.00037
1.00042
1.00049
1.00057
1.00068
1.00082
1.00097
1.00122
1.0014
1.00043
1.00048
1.00055
1.00063
1.00074
1.00086
1.00103
1.00121
1.00149
1.00169
1.00062
1.00069
1.00078
1.0009
1.00104
1.0012
1.00142
1.00164
1.00203
1.00233
1.00094
1.00104
1.00118
1.00135
1.00156
1.00179
1.00211
1.00244
1.0031
1.00356
1.00149
1.00165
1.00188
1.00213
1.00246
1.00282
1.00333
1.00392
1.00511
1.00568
1.00246
1.00272
1.00308
1.00347
1.004
1.00462
1.00551
1.00678
1.00829
1.01042
1.00408
1.00449
1.00502
1.00572
1.00659
1.00786
1.00936
1.01214
1.01359
1.1043
1.00664
1.00739
1.0083
1.00968
1.01121
1.01363
1.01634
1.02029
1.02322
1.89271
1.01098
1.0123
1.01403
1.01641
1.01921
1.02296
1.02764
1.03193
1.1261
3.8895
)
;

boundaryField
{
    inlet
    {
        type            fixedValue;
        value           uniform 1;
    }
    outlet
    {
        type            zeroGradient;
    }
    triangle
    {
        type            zeroGradient;
    }
    top
    {
        type            symmetryPlane;
    }
    bottom
    {
        type            symmetryPlane;
    }
    defaultFaces
    {
        type            empty;
    }
}


// ************************************************************************* //
