/*--------------------------------*- C++ -*----------------------------------*\
  =========                 |
  \\      /  F ield         | OpenFOAM: The Open Source CFD Toolbox
   \\    /   O peration     | Website:  https://openfoam.org
    \\  /    A nd           | Version:  8
     \\/     M anipulation  |
\*---------------------------------------------------------------------------*/
FoamFile
{
    version     2.0;
    format      ascii;
    class       volScalarField;
    location    "0.8";
    object      rho;
}
// * * * * * * * * * * * * * * * * * * * * * * * * * * * * * * * * * * * * * //

dimensions      [1 -3 0 0 0 0 0];

internalField   nonuniform List<scalar> 
2600
(
0.810554
0.807067
0.895356
1.15521
1.59611
2.10688
2.37011
2.40652
2.4587
2.68297
0.864064
0.801752
0.895743
1.15669
1.59814
2.09558
2.33935
2.35214
2.38481
2.61388
0.914259
0.810685
0.90054
1.16045
1.59363
2.06092
2.27604
2.26888
2.27729
2.5168
0.958121
0.846048
0.925425
1.1669
1.5823
2.00658
2.16799
2.14866
2.15353
2.41254
0.975117
0.885917
0.958594
1.18292
1.57274
1.95411
2.05618
2.03053
2.04175
2.31861
0.982973
0.918176
1.004
1.21363
1.56464
1.88843
1.94614
1.93137
1.96982
2.26732
0.986362
0.925576
1.03791
1.24544
1.55137
1.80721
1.85797
1.86199
1.94548
2.25524
0.990451
0.929079
1.05964
1.26592
1.52229
1.7299
1.79475
1.83333
1.94345
2.25636
0.991713
0.927408
1.07218
1.27667
1.51208
1.67772
1.7791
1.83158
1.94809
2.26932
0.996339
0.928192
1.07891
1.27652
1.49207
1.6793
1.78384
1.82803
1.95414
2.27638
0.996409
0.928385
1.07898
1.27629
1.46737
1.70681
1.7724
1.82618
1.95244
2.26483
0.99193
0.92757
1.07287
1.27643
1.48645
1.72624
1.77932
1.82812
1.95081
2.26407
0.990688
0.929368
1.06
1.26406
1.52514
1.73194
1.80095
1.83816
1.94333
2.25655
0.986664
0.925835
1.0384
1.24409
1.5654
1.79525
1.84307
1.85865
1.94399
2.25367
0.983407
0.918579
1.00414
1.21475
1.57354
1.8754
1.93746
1.92591
1.96849
2.2676
0.975726
0.886558
0.95889
1.18504
1.56373
1.95033
2.06109
2.03446
2.0418
2.31931
0.958884
0.846809
0.926184
1.16716
1.56902
2.02084
2.18666
2.15631
2.15386
2.4117
0.915036
0.811388
0.901226
1.15885
1.59206
2.06978
2.27574
2.26553
2.27945
2.51878
0.864911
0.802451
0.896127
1.15553
1.60099
2.09237
2.32839
2.34772
2.38486
2.61348
0.811322
0.807694
0.895694
1.15484
1.60059
2.10045
2.36747
2.40895
2.45519
2.67843
1.06354
0.853545
0.911179
1.13889
1.56968
2.10739
2.39546
2.45433
2.51005
2.72203
1.40396
0.943227
0.940219
1.11472
1.55076
2.11548
2.40982
2.48212
2.55135
2.75203
1.67618
1.07979
0.967159
1.0932
1.51349
2.11129
2.41639
2.49996
2.57025
2.76465
1.90101
1.24224
1.00783
1.0824
1.45912
2.08294
2.4121
2.51337
2.58512
2.77514
2.09755
1.39044
1.0694
1.09457
1.38559
2.02115
2.39815
2.52909
2.60276
2.78646
2.27974
1.54426
1.15874
1.10484
1.30228
1.9247
2.3734
2.54188
2.60441
2.79397
2.47342
1.67877
1.24902
1.12555
1.22733
1.79776
2.33271
2.54778
2.59848
2.79816
2.66483
1.80961
1.34932
1.16442
1.20426
1.64243
2.26772
2.54558
2.58592
2.80045
2.87292
1.93615
1.44852
1.22762
1.22261
1.46433
2.13881
2.53324
2.56874
2.80374
3.07234
2.06823
1.56379
1.30738
1.27373
1.39197
1.9566
2.49431
2.55604
2.81236
3.26256
2.21012
1.68909
1.38429
1.34325
1.42634
1.76909
2.42261
2.54749
2.82439
3.42876
2.35793
1.82321
1.4609
1.44298
1.48915
1.61599
2.28742
2.54312
2.8388
3.57628
2.51508
1.95758
1.53483
1.53409
1.56504
1.58042
2.13546
2.54223
2.85295
3.69913
2.66333
2.09195
1.61598
1.63539
1.64295
1.59634
1.99028
2.5284
2.86796
3.78836
2.80209
2.2244
1.69713
1.73019
1.72014
1.61912
1.85241
2.48778
2.88818
3.8694
2.93813
2.34607
1.80363
1.81533
1.79522
1.65104
1.7594
2.42792
2.91387
3.94859
3.07864
2.4638
1.94591
1.87924
1.85721
1.68528
1.71608
2.35498
2.94338
4.02925
3.21477
2.57819
2.09497
1.94021
1.91209
1.71993
1.70705
2.29657
2.97443
4.03032
3.32405
2.68012
2.23038
2.00844
1.96111
1.75943
1.71107
2.23844
2.99917
4.03217
3.39975
2.77309
2.35037
2.07796
2.01188
1.80222
1.71945
2.18214
3.01034
3.84717
3.89902
3.79975
3.73551
3.69299
3.66039
3.61317
3.52644
3.36787
3.12561
3.64741
3.79466
3.71927
3.70201
3.68333
3.65274
3.59174
3.48576
3.30762
3.02489
3.70601
3.98758
3.93777
3.91679
3.86519
3.79962
3.70623
3.57789
3.38819
3.11044
3.77242
4.25224
4.19674
4.14425
4.05264
3.95994
3.84309
3.69657
3.48422
3.19927
3.21838
4.54343
4.58778
4.47735
4.35304
4.22111
4.0588
3.88794
3.63005
3.33214
2.45295
3.846
5.00292
4.84149
4.6537
4.47201
4.27167
4.07858
3.75604
3.49676
1.96319
2.50896
4.50033
5.03442
4.86735
4.68986
4.49924
4.28526
3.93145
3.68239
1.79846
1.84297
3.02953
4.80944
4.90799
4.77698
4.63007
4.44085
4.11154
3.84696
1.7138
1.72353
1.85229
3.67466
4.86917
4.85473
4.71966
4.54558
4.24734
3.99592
1.66451
1.68
1.69366
2.14812
4.31713
4.86604
4.77972
4.60232
4.34114
4.10585
1.6098
1.62626
1.64447
1.67256
2.95763
4.67483
4.75899
4.63135
4.39804
4.18117
1.55648
1.56514
1.57845
1.5901
1.80573
3.80578
4.68796
4.60033
4.42372
4.23455
1.52925
1.53795
1.54586
1.55705
1.57225
2.47904
4.37935
4.55721
4.43219
4.27256
1.49821
1.50713
1.51847
1.53048
1.54008
1.65899
3.48739
4.46847
4.44174
4.31656
1.47085
1.47654
1.48554
1.49541
1.50824
1.52141
2.30927
4.07238
4.43311
4.33769
1.45541
1.45915
1.4635
1.47047
1.47983
1.48924
1.6044
3.36137
4.37438
4.36707
1.44261
1.44589
1.44915
1.45418
1.45965
1.46797
1.48096
2.41143
4.06399
4.39472
1.4319
1.43515
1.43918
1.44347
1.44833
1.45461
1.46136
1.67571
3.5597
4.41213
1.4232
1.42563
1.4294
1.4331
1.43831
1.44317
1.44885
1.46812
2.78499
4.2926
1.41662
1.41842
1.42117
1.42426
1.42858
1.43284
1.43829
1.44653
2.00713
4.00807
1.40001
1.40001
1.40001
1.40001
1.40001
1.40001
1.40001
1.40001
1.39995
1.90502
1.40001
1.40001
1.40001
1.40001
1.40001
1.40001
1.40001
1.40001
1.39995
1.88538
1.40001
1.40001
1.40001
1.40001
1.40001
1.40001
1.40001
1.40001
1.39995
1.87058
1.40001
1.40001
1.40001
1.40001
1.40001
1.40001
1.40001
1.40001
1.39995
1.85606
1.40001
1.40001
1.40001
1.40001
1.40001
1.40001
1.40001
1.40001
1.39995
1.81723
1.40001
1.40001
1.40001
1.40001
1.40001
1.40001
1.40001
1.40001
1.39995
1.76179
1.40001
1.40001
1.40001
1.40001
1.40001
1.40001
1.40001
1.40001
1.39996
1.70559
1.40001
1.40001
1.40001
1.40001
1.40001
1.40001
1.40001
1.40001
1.39996
1.65195
1.40001
1.40001
1.40001
1.40001
1.40001
1.40001
1.40001
1.40001
1.39996
1.61079
1.40001
1.40001
1.40001
1.40001
1.40001
1.40001
1.40001
1.40001
1.39996
1.57422
1.40001
1.40001
1.40001
1.40001
1.40001
1.40001
1.40001
1.40001
1.39996
1.53024
1.40001
1.40001
1.40001
1.40001
1.40001
1.40001
1.40001
1.40001
1.39996
1.50406
1.40001
1.40001
1.40001
1.40001
1.40001
1.40001
1.40001
1.40001
1.39997
1.48426
1.40001
1.40001
1.40001
1.40001
1.40001
1.40001
1.40001
1.40001
1.39997
1.45883
1.40001
1.40001
1.40001
1.40001
1.40001
1.40001
1.40001
1.40001
1.39997
1.44391
1.40001
1.40001
1.40001
1.40001
1.40001
1.40001
1.40001
1.40001
1.39997
1.43589
1.40001
1.40001
1.40001
1.40001
1.40001
1.40001
1.40001
1.40001
1.39997
1.42686
1.40001
1.40001
1.40001
1.40001
1.40001
1.40001
1.40001
1.40001
1.39998
1.41866
1.40001
1.40001
1.40001
1.40001
1.40001
1.40001
1.40001
1.40001
1.39998
1.41347
1.40001
1.40001
1.40001
1.40001
1.40001
1.40001
1.40001
1.40001
1.39998
1.40958
1.40001
1.40001
1.40001
1.40001
1.40001
1.40001
1.40001
1.40001
1.39998
1.40959
1.40001
1.40001
1.40001
1.40001
1.40001
1.40001
1.40001
1.40001
1.39998
1.41348
1.40001
1.40001
1.40001
1.40001
1.40001
1.40001
1.40001
1.40001
1.39998
1.41867
1.40001
1.40001
1.40001
1.40001
1.40001
1.40001
1.40001
1.40001
1.39997
1.42688
1.40001
1.40001
1.40001
1.40001
1.40001
1.40001
1.40001
1.40001
1.39997
1.43593
1.40001
1.40001
1.40001
1.40001
1.40001
1.40001
1.40001
1.40001
1.39997
1.44394
1.40001
1.40001
1.40001
1.40001
1.40001
1.40001
1.40001
1.40001
1.39997
1.45887
1.40001
1.40001
1.40001
1.40001
1.40001
1.40001
1.40001
1.40001
1.39997
1.48431
1.40001
1.40001
1.40001
1.40001
1.40001
1.40001
1.40001
1.40001
1.39996
1.50409
1.40001
1.40001
1.40001
1.40001
1.40001
1.40001
1.40001
1.40001
1.39996
1.53031
1.40001
1.40001
1.40001
1.40001
1.40001
1.40001
1.40001
1.40001
1.39996
1.57428
1.40001
1.40001
1.40001
1.40001
1.40001
1.40001
1.40001
1.40001
1.39996
1.61079
1.40001
1.40001
1.40001
1.40001
1.40001
1.40001
1.40001
1.40001
1.39996
1.65198
1.40001
1.40001
1.40001
1.40001
1.40001
1.40001
1.40001
1.40001
1.39996
1.70564
1.40001
1.40001
1.40001
1.40001
1.40001
1.40001
1.40001
1.40001
1.39995
1.76186
1.40001
1.40001
1.40001
1.40001
1.40001
1.40001
1.40001
1.40001
1.39995
1.8173
1.40001
1.40001
1.40001
1.40001
1.40001
1.40001
1.40001
1.40001
1.39995
1.85609
1.40001
1.40001
1.40001
1.40001
1.40001
1.40001
1.40001
1.40001
1.39995
1.8706
1.40001
1.40001
1.40001
1.40001
1.40001
1.40001
1.40001
1.40001
1.39995
1.88539
1.40001
1.40001
1.40001
1.40001
1.40001
1.40001
1.40001
1.40001
1.39995
1.90503
1.41663
1.41843
1.42118
1.42427
1.4286
1.43286
1.43832
1.44655
2.00445
4.00631
1.42321
1.42564
1.42942
1.43313
1.43835
1.44321
1.4489
1.4681
2.78187
4.29149
1.43192
1.43518
1.43922
1.44351
1.44838
1.45467
1.46142
1.67479
3.55643
4.41157
1.44266
1.44594
1.4492
1.45424
1.45971
1.46804
1.48102
2.4095
4.06197
4.39443
1.45547
1.45921
1.46356
1.47053
1.47989
1.48931
1.60421
3.35978
4.37324
4.36645
1.47091
1.4766
1.48561
1.49548
1.50832
1.5215
2.30853
4.07119
4.43238
4.33702
1.49828
1.5072
1.51854
1.53056
1.54017
1.65918
3.48695
4.46768
4.44097
4.31578
1.52931
1.53801
1.54593
1.55714
1.57237
2.47949
4.37929
4.55654
4.43139
4.27149
1.55655
1.56523
1.57859
1.59026
1.80652
3.8063
4.6874
4.5997
4.4229
4.23331
1.60992
1.62639
1.64461
1.67284
2.95965
4.67463
4.75809
4.63051
4.39725
4.18008
1.66456
1.68005
1.69371
2.14982
4.31873
4.8653
4.77879
4.60131
4.3401
4.10459
1.71384
1.72359
1.85316
3.67682
4.86916
4.85411
4.71888
4.54438
4.24588
3.99431
1.79857
1.84327
3.03254
4.80939
4.90706
4.77623
4.62916
4.43961
4.11001
3.84523
1.96347
2.51062
4.50155
5.03293
4.86623
4.68883
4.4982
4.284
3.92996
3.68071
2.45357
3.84715
5.0021
4.84068
4.65289
4.47124
4.2708
4.07754
3.75476
3.49524
3.21895
4.54315
4.58749
4.47691
4.35243
4.2205
4.05808
3.88715
3.62903
3.33087
3.77231
4.25194
4.19629
4.14381
4.05226
3.95952
3.84258
3.69601
3.48351
3.19826
3.70595
3.98733
3.93744
3.91648
3.86484
3.79919
3.70574
3.57735
3.38761
3.10964
3.64732
3.7945
3.71899
3.70168
3.68291
3.65225
3.59116
3.4852
3.30706
3.02421
3.84712
3.8989
3.79957
3.73527
3.69265
3.65996
3.6127
3.52592
3.36731
3.12493
4.03243
3.40015
2.77324
2.35071
2.07812
2.01181
1.80209
1.71939
2.18224
3.0102
4.03038
3.32422
2.68032
2.23086
2.00861
1.96105
1.75935
1.71106
2.23835
2.99889
4.02949
3.21494
2.57843
2.09549
1.94037
1.91205
1.71983
1.70706
2.2963
2.97401
3.94877
3.07886
2.46398
1.94647
1.87935
1.8572
1.68515
1.71617
2.35454
2.94295
3.86929
2.93814
2.34619
1.80401
1.81548
1.79531
1.65089
1.75933
2.42812
2.91374
3.78792
2.8018
2.22448
1.69732
1.73043
1.72027
1.61894
1.85224
2.48813
2.88841
3.6985
2.66287
2.09195
1.61614
1.63564
1.64308
1.59624
1.98999
2.5286
2.86827
3.57544
2.51445
1.95756
1.53496
1.53435
1.56509
1.58035
2.13511
2.54207
2.85285
3.42771
2.35714
1.82317
1.46101
1.44326
1.48932
1.61578
2.28709
2.54258
2.83825
3.26134
2.20919
1.68905
1.38438
1.3435
1.42653
1.76875
2.42257
2.54706
2.82426
3.07094
2.06725
1.56365
1.30749
1.27396
1.39204
1.95646
2.4946
2.55676
2.81302
2.87139
1.93522
1.44824
1.22771
1.22264
1.46401
2.13886
2.53397
2.57017
2.80518
2.66332
1.80877
1.34883
1.16459
1.20433
1.64176
2.26791
2.54661
2.5868
2.80152
2.47199
1.678
1.24846
1.12565
1.22721
1.7973
2.33289
2.54893
2.59794
2.79702
2.27845
1.54362
1.15813
1.10467
1.30209
1.92513
2.37356
2.54313
2.60301
2.7925
2.09641
1.38992
1.06887
1.09448
1.38568
2.02211
2.39845
2.52838
2.60114
2.78656
1.90003
1.24174
1.00752
1.08233
1.46027
2.08377
2.41201
2.51131
2.58608
2.77701
1.67534
1.07928
0.966819
1.09301
1.51607
2.11101
2.41639
2.50017
2.5712
2.76495
1.4032
0.942614
0.939842
1.11427
1.55327
2.11425
2.40926
2.48385
2.54959
2.74854
1.06288
0.852873
0.910783
1.13837
1.57082
2.10822
2.39283
2.45292
2.50954
2.7212
1.40324
1.40412
2.97145
6.65195
6.2575
5.55646
4.72698
3.96294
3.26926
2.57731
1.40223
1.40438
2.5806
6.05026
6.16367
5.51273
4.71779
3.9569
3.26237
2.61001
1.40199
1.41839
2.28866
5.46396
6.03354
5.41812
4.69451
3.94011
3.25033
2.58086
1.40177
1.5122
2.65243
4.77477
5.78939
5.23623
4.61876
3.8975
3.23296
2.5724
1.40089
1.72423
2.98789
4.1713
5.38716
5.05297
4.50814
3.83587
3.20145
2.55788
1.39856
1.96151
3.26151
3.64821
4.68844
4.83163
4.3585
3.75642
3.17042
2.54775
1.39477
2.18917
3.42704
3.42781
4.00438
4.56388
4.15821
3.66997
3.13103
2.53355
1.38782
2.41051
3.52088
3.34886
3.52371
4.20608
3.95208
3.5815
3.08072
2.51356
1.37567
2.66923
3.56959
3.30989
3.21352
3.78931
3.79351
3.49821
3.02991
2.49813
1.4021
2.97321
3.62024
3.29702
3.02966
3.42037
3.67991
3.40271
2.96883
2.47982
1.58953
3.27222
3.5491
3.22857
2.91033
3.13616
3.5427
3.27356
2.88558
2.4665
1.80602
3.38852
3.41694
3.14085
2.8222
2.90038
3.3366
3.12869
2.80717
2.4659
2.04506
3.44882
3.33624
3.04656
2.75744
2.69462
3.07092
3.01104
2.75382
2.47857
2.28557
3.48754
3.28373
2.96318
2.70188
2.53823
2.78453
2.87682
2.65199
2.51268
2.53405
3.5362
3.27224
2.89716
2.64553
2.42558
2.53185
2.70305
2.51928
2.57102
2.77025
3.60004
3.26376
2.83918
2.57604
2.34714
2.33189
2.45819
2.39991
2.65911
3.12127
3.66717
3.24244
2.78354
2.48519
2.29016
2.18875
2.1819
2.28357
2.76448
3.58368
3.64563
3.16732
2.71867
2.38432
2.23199
2.07463
1.95609
2.18149
2.86041
3.91849
3.58728
3.07645
2.62013
2.28326
2.16349
1.96837
1.83531
2.08707
2.94135
4.04674
3.52739
2.90432
2.47809
2.21103
2.0974
1.86944
1.76183
2.11825
3.00028
4.04674
3.52693
2.90412
2.47799
2.21105
2.09743
1.86951
1.76195
2.1183
3.00034
3.91904
3.58699
3.07617
2.61999
2.28321
2.1635
1.96846
1.83539
2.08721
2.94152
3.58503
3.64536
3.16698
2.71857
2.38423
2.23203
2.0747
1.95617
2.18159
2.86054
3.12258
3.66715
3.24223
2.78341
2.48514
2.29021
2.18882
2.18197
2.28363
2.76452
2.77124
3.60014
3.2637
2.8391
2.57605
2.34721
2.33199
2.45828
2.39996
2.65912
2.53493
3.53631
3.27218
2.89708
2.64558
2.42567
2.53196
2.70313
2.51933
2.57103
2.28641
3.48773
3.28368
2.96312
2.70195
2.53834
2.78468
2.8769
2.65202
2.51268
2.04569
3.44903
3.33612
3.0465
2.75752
2.69474
3.07109
3.01112
2.75382
2.47856
1.80684
3.38873
3.41676
3.14077
2.82227
2.90052
3.33676
3.12879
2.80716
2.46588
1.59029
3.27288
3.54897
3.22852
2.9104
3.13632
3.54284
3.27366
2.88558
2.46648
1.40236
2.97392
3.62047
3.29708
3.02975
3.42057
3.68004
3.40278
2.96883
2.47981
1.37566
2.66993
3.56978
3.30997
3.21363
3.78955
3.79363
3.49824
3.0299
2.49812
1.38783
2.41116
3.52118
3.34897
3.52384
4.20633
3.95222
3.5815
3.08068
2.51354
1.39477
2.18974
3.42741
3.42798
4.00461
4.56408
4.15834
3.66997
3.13098
2.53353
1.39857
1.96195
3.26194
3.6485
4.68884
4.83181
4.3586
3.75639
3.17037
2.54775
1.40089
1.72448
2.98828
4.17157
5.38759
5.05311
4.50817
3.83583
3.20141
2.55787
1.40177
1.51227
2.6527
4.77498
5.78966
5.23634
4.61873
3.89743
3.23292
2.5724
1.40199
1.41839
2.28876
5.46409
6.03368
5.4181
4.69443
3.94004
3.2503
2.58085
1.40223
1.40438
2.58061
6.0505
6.16367
5.51263
4.71766
3.95683
3.26236
2.61001
1.40324
1.40412
2.97141
6.65215
6.25761
5.55631
4.72681
3.96288
3.26925
2.57731
1.41095
1.41227
1.41399
1.41636
1.41914
1.42286
1.4275
1.43176
1.51696
3.1244
1.40663
1.40738
1.40828
1.40966
1.41119
1.4136
1.4163
1.42024
1.4231
2.023
1.40408
1.40449
1.40501
1.40572
1.40658
1.40785
1.40935
1.41212
1.41357
1.49203
1.40247
1.40273
1.40308
1.40348
1.404
1.40462
1.40551
1.40678
1.40829
1.41033
1.4015
1.40166
1.40188
1.40214
1.40246
1.40282
1.40333
1.40392
1.40511
1.40568
1.40094
1.40105
1.40119
1.40135
1.40156
1.4018
1.40211
1.40244
1.4031
1.40356
1.40062
1.40069
1.40079
1.4009
1.40104
1.40121
1.40142
1.40164
1.40203
1.40233
1.40044
1.40048
1.40055
1.40064
1.40074
1.40087
1.40103
1.40121
1.40149
1.40169
1.40034
1.40038
1.40043
1.40049
1.40058
1.40068
1.40082
1.40097
1.40123
1.4014
1.40028
1.40031
1.40036
1.40041
1.40049
1.40057
1.4007
1.40084
1.40108
1.40126
1.40026
1.40029
1.40033
1.40038
1.40045
1.40053
1.40065
1.40078
1.40099
1.40122
1.40024
1.40027
1.40031
1.40036
1.40043
1.40052
1.40062
1.40078
1.40094
1.4014
1.40024
1.40027
1.4003
1.40035
1.40041
1.4005
1.4006
1.40076
1.40093
1.40143
1.40026
1.40029
1.40033
1.40038
1.40046
1.40055
1.40067
1.40082
1.401
1.40148
1.40029
1.40033
1.40037
1.40043
1.40051
1.4006
1.40072
1.40086
1.40104
1.40148
1.40033
1.40036
1.40041
1.40047
1.40054
1.40063
1.40074
1.40088
1.40106
1.40144
1.40037
1.4004
1.40044
1.4005
1.40056
1.40064
1.40075
1.40089
1.40107
1.40138
1.40038
1.40042
1.40046
1.40051
1.40058
1.40067
1.40078
1.40093
1.40111
1.40141
1.40038
1.40041
1.40046
1.40053
1.40061
1.40072
1.40083
1.40101
1.4012
1.40152
1.40035
1.40039
1.40045
1.40052
1.40061
1.40072
1.40088
1.40106
1.40132
1.40158
1.40001
1.40001
1.40001
1.40001
1.40001
1.40001
1.40001
1.40001
1.39998
1.4063
1.40001
1.40001
1.40001
1.40001
1.40001
1.40001
1.40001
1.40001
1.39999
1.40394
1.40001
1.40001
1.40001
1.40001
1.40001
1.40001
1.40001
1.40001
1.39999
1.40242
1.40001
1.40001
1.40001
1.40001
1.40001
1.40001
1.40001
1.40001
1.39999
1.40143
1.40001
1.40001
1.40001
1.40001
1.40001
1.40001
1.40001
1.40001
1.4
1.40087
1.40001
1.40001
1.40001
1.40001
1.40001
1.40001
1.40001
1.40001
1.4
1.40055
1.40001
1.40001
1.40001
1.40001
1.40001
1.40001
1.40001
1.40001
1.4
1.40036
1.40001
1.40001
1.40001
1.40001
1.40001
1.40001
1.40001
1.40001
1.4
1.40025
1.40001
1.40001
1.40001
1.40001
1.40001
1.40001
1.40001
1.40001
1.4
1.4002
1.40001
1.40001
1.40001
1.40001
1.40001
1.40001
1.40001
1.40001
1.4
1.40016
1.40001
1.40001
1.40001
1.40001
1.40001
1.40001
1.40001
1.40001
1.4
1.40015
1.40001
1.40001
1.40001
1.40001
1.40001
1.40001
1.40001
1.40001
1.40001
1.40014
1.40001
1.40001
1.40001
1.40001
1.40001
1.40001
1.40001
1.40001
1.40001
1.40014
1.40001
1.40001
1.40001
1.40001
1.40001
1.40001
1.40001
1.40001
1.40001
1.40015
1.40001
1.40001
1.40001
1.40001
1.40001
1.40001
1.40001
1.40001
1.40001
1.40017
1.40001
1.40001
1.40001
1.40001
1.40001
1.40001
1.40001
1.40001
1.40001
1.40019
1.40001
1.40001
1.40001
1.40001
1.40001
1.40001
1.40001
1.40001
1.40001
1.40022
1.40001
1.40001
1.40001
1.40001
1.40001
1.40001
1.40001
1.40001
1.40001
1.40023
1.40001
1.40001
1.40001
1.40001
1.40001
1.40001
1.40001
1.40001
1.40001
1.40023
1.40001
1.40001
1.40001
1.40001
1.40001
1.40001
1.40001
1.40001
1.40001
1.4002
1.40001
1.40001
1.40001
1.40001
1.40001
1.40001
1.40001
1.40001
1.40001
1.4002
1.40001
1.40001
1.40001
1.40001
1.40001
1.40001
1.40001
1.40001
1.40001
1.40023
1.40001
1.40001
1.40001
1.40001
1.40001
1.40001
1.40001
1.40001
1.40001
1.40023
1.40001
1.40001
1.40001
1.40001
1.40001
1.40001
1.40001
1.40001
1.40001
1.40022
1.40001
1.40001
1.40001
1.40001
1.40001
1.40001
1.40001
1.40001
1.40001
1.40019
1.40001
1.40001
1.40001
1.40001
1.40001
1.40001
1.40001
1.40001
1.40001
1.40017
1.40001
1.40001
1.40001
1.40001
1.40001
1.40001
1.40001
1.40001
1.40001
1.40015
1.40001
1.40001
1.40001
1.40001
1.40001
1.40001
1.40001
1.40001
1.40001
1.40014
1.40001
1.40001
1.40001
1.40001
1.40001
1.40001
1.40001
1.40001
1.40001
1.40014
1.40001
1.40001
1.40001
1.40001
1.40001
1.40001
1.40001
1.40001
1.4
1.40015
1.40001
1.40001
1.40001
1.40001
1.40001
1.40001
1.40001
1.40001
1.4
1.40016
1.40001
1.40001
1.40001
1.40001
1.40001
1.40001
1.40001
1.40001
1.4
1.4002
1.40001
1.40001
1.40001
1.40001
1.40001
1.40001
1.40001
1.40001
1.4
1.40025
1.40001
1.40001
1.40001
1.40001
1.40001
1.40001
1.40001
1.40001
1.4
1.40036
1.40001
1.40001
1.40001
1.40001
1.40001
1.40001
1.40001
1.40001
1.4
1.40055
1.40001
1.40001
1.40001
1.40001
1.40001
1.40001
1.40001
1.40001
1.4
1.40087
1.40001
1.40001
1.40001
1.40001
1.40001
1.40001
1.40001
1.40001
1.39999
1.40143
1.40001
1.40001
1.40001
1.40001
1.40001
1.40001
1.40001
1.40001
1.39999
1.40242
1.40001
1.40001
1.40001
1.40001
1.40001
1.40001
1.40001
1.40001
1.39999
1.40394
1.40001
1.40001
1.40001
1.40001
1.40001
1.40001
1.40001
1.40001
1.39998
1.40631
1.40035
1.40039
1.40045
1.40052
1.40061
1.40072
1.40088
1.40106
1.40132
1.40158
1.40038
1.40041
1.40046
1.40053
1.40061
1.40072
1.40083
1.40101
1.4012
1.40152
1.40038
1.40042
1.40046
1.40051
1.40058
1.40067
1.40078
1.40093
1.40111
1.40141
1.40037
1.4004
1.40044
1.4005
1.40056
1.40064
1.40075
1.40089
1.40107
1.40138
1.40033
1.40036
1.40041
1.40047
1.40054
1.40063
1.40074
1.40088
1.40106
1.40144
1.40029
1.40033
1.40037
1.40043
1.40051
1.4006
1.40072
1.40086
1.40104
1.40148
1.40026
1.40029
1.40033
1.40038
1.40046
1.40055
1.40067
1.40082
1.401
1.40148
1.40024
1.40027
1.4003
1.40035
1.40041
1.4005
1.4006
1.40076
1.40093
1.40143
1.40024
1.40027
1.40031
1.40036
1.40043
1.40052
1.40062
1.40078
1.40094
1.4014
1.40026
1.40029
1.40033
1.40038
1.40045
1.40053
1.40065
1.40078
1.40099
1.40122
1.40028
1.40031
1.40036
1.40041
1.40049
1.40057
1.4007
1.40084
1.40108
1.40126
1.40034
1.40038
1.40043
1.40049
1.40058
1.40068
1.40082
1.40098
1.40123
1.4014
1.40044
1.40048
1.40055
1.40064
1.40074
1.40087
1.40103
1.40121
1.40149
1.40169
1.40062
1.40069
1.40079
1.4009
1.40104
1.40121
1.40142
1.40164
1.40203
1.40233
1.40095
1.40105
1.40119
1.40135
1.40156
1.4018
1.40211
1.40245
1.4031
1.40357
1.4015
1.40166
1.40188
1.40214
1.40246
1.40282
1.40333
1.40392
1.40511
1.40568
1.40247
1.40273
1.40308
1.40348
1.40401
1.40462
1.40551
1.40678
1.4083
1.41031
1.40408
1.40449
1.40502
1.40572
1.40659
1.40785
1.40935
1.41212
1.41357
1.49131
1.40664
1.40738
1.40829
1.40967
1.41119
1.41361
1.4163
1.42025
1.42309
2.02004
1.41096
1.41227
1.41399
1.41637
1.41915
1.42287
1.42752
1.43178
1.51626
3.12102
)
;

boundaryField
{
    inlet
    {
        type            calculated;
        value           uniform 1.40001;
    }
    outlet
    {
        type            calculated;
        value           nonuniform List<scalar> 
100
(
3.00079
2.94181
2.86045
2.76397
2.65829
2.57028
2.51192
2.47786
2.46527
2.466
2.47932
2.49759
2.51302
2.53307
2.54733
2.55748
2.572
2.58051
2.6097
2.57701
2.72142
2.75142
2.76399
2.77441
2.78566
2.79311
2.79729
2.79964
2.80301
2.81173
2.82383
2.83835
2.85261
2.86782
2.88837
2.91432
2.94395
2.97506
2.99982
3.01091
2.68253
2.6135
2.51681
2.41274
2.31893
2.26774
2.25563
2.25685
2.26967
2.27675
2.26515
2.26455
2.25687
2.25404
2.26801
2.31964
2.41191
2.51878
2.61321
2.67797
3.01077
2.99953
2.97464
2.94354
2.9142
2.8886
2.86812
2.8525
2.8378
2.82372
2.81241
2.80445
2.80067
2.79613
2.79166
2.78579
2.77629
2.76424
2.74788
2.7207
2.57701
2.6097
2.58051
2.572
2.55749
2.54734
2.53309
2.51303
2.4976
2.47934
2.46602
2.46529
2.47787
2.51192
2.57027
2.65828
2.76393
2.86031
2.94164
3.00073
)
;
    }
    triangle
    {
        type            calculated;
        value           nonuniform List<scalar> 
40
(
3.84717
3.89902
3.79975
3.73551
3.69299
3.66039
3.61317
3.52644
3.36787
3.12561
0.810554
0.864064
0.914259
0.958121
0.975117
0.982973
0.986362
0.990451
0.991713
0.996339
0.996409
0.99193
0.990688
0.986664
0.983407
0.975726
0.958884
0.915036
0.864911
0.811322
3.84712
3.8989
3.79957
3.73527
3.69265
3.65996
3.6127
3.52592
3.36731
3.12493
)
;
    }
    top
    {
        type            symmetryPlane;
    }
    bottom
    {
        type            symmetryPlane;
    }
    defaultFaces
    {
        type            empty;
    }
}


// ************************************************************************* //
