/*--------------------------------*- C++ -*----------------------------------*\
  =========                 |
  \\      /  F ield         | OpenFOAM: The Open Source CFD Toolbox
   \\    /   O peration     | Website:  https://openfoam.org
    \\  /    A nd           | Version:  7
     \\/     M anipulation  |
\*---------------------------------------------------------------------------*/
FoamFile
{
    version     2.0;
    format      ascii;
    class       volScalarField;
    location    "0.8";
    object      rho;
}
// * * * * * * * * * * * * * * * * * * * * * * * * * * * * * * * * * * * * * //

dimensions      [1 -3 0 0 0 0 0];

internalField   nonuniform List<scalar> 
2600
(
0.810574
0.807179
0.89539
1.1552
1.59944
2.10156
2.36982
2.40947
2.4556
2.67949
0.864103
0.801851
0.895813
1.15613
1.60224
2.08855
2.32769
2.34811
2.38341
2.61231
0.914293
0.810789
0.900811
1.15937
1.59539
2.0648
2.2707
2.26376
2.27848
2.51783
0.958175
0.84621
0.925827
1.16648
1.57384
2.02263
2.18538
2.15529
2.15404
2.41142
0.975159
0.886068
0.958735
1.18417
1.56252
1.95663
2.06556
2.03553
2.04232
2.319
0.982968
0.91818
1.00397
1.21509
1.56739
1.87516
1.93929
1.92636
1.96884
2.26749
0.986317
0.925487
1.0379
1.24464
1.56844
1.79213
1.84591
1.8614
1.94445
2.25482
0.990409
0.929028
1.05976
1.2649
1.52924
1.73401
1.79893
1.83641
1.94346
2.25879
0.991714
0.927455
1.07258
1.2761
1.48733
1.71895
1.77007
1.82524
1.94924
2.26316
0.996338
0.928239
1.07902
1.27533
1.47527
1.69363
1.7693
1.82566
1.95179
2.26933
0.996369
0.928191
1.07864
1.27699
1.4852
1.68923
1.78663
1.82858
1.95481
2.27092
0.991888
0.927395
1.07228
1.27676
1.5085
1.68467
1.78955
1.83433
1.94965
2.27001
0.990694
0.929308
1.05973
1.26504
1.51896
1.73159
1.79551
1.83513
1.94325
2.25526
0.986674
0.92586
1.03843
1.24496
1.54966
1.81181
1.85457
1.85981
1.94537
2.25417
0.983373
0.918535
1.0043
1.21358
1.57196
1.88656
1.94474
1.93076
1.96942
2.267
0.975657
0.886413
0.958836
1.18386
1.57505
1.94671
2.05138
2.02916
2.04097
2.31855
0.958832
0.846654
0.925812
1.16759
1.57768
2.00602
2.16975
2.14976
2.15339
2.41299
0.915021
0.81128
0.900943
1.15999
1.58926
2.06802
2.28233
2.27132
2.27845
2.51802
0.864908
0.802356
0.896063
1.15619
1.59611
2.09825
2.33938
2.35121
2.38622
2.6148
0.811335
0.807575
0.895682
1.15497
1.59709
2.10469
2.36651
2.40525
2.45813
2.68157
1.06354
0.85348
0.911155
1.13855
1.57082
2.10633
2.3914
2.45323
2.50861
2.72025
1.40396
0.943245
0.940186
1.11441
1.55247
2.11333
2.40988
2.48412
2.55008
2.74939
1.67618
1.07983
0.967079
1.09306
1.51489
2.11074
2.41679
2.49996
2.57189
2.76568
1.90101
1.24227
1.00775
1.08238
1.45957
2.08355
2.41182
2.51122
2.58578
2.7769
2.09755
1.39044
1.06923
1.09456
1.38555
2.02177
2.39803
2.52854
2.6005
2.78618
2.27973
1.54423
1.15854
1.10485
1.30205
1.9247
2.37327
2.54303
2.60306
2.79236
2.47338
1.67872
1.24884
1.12559
1.22705
1.79708
2.3328
2.54872
2.59816
2.7973
2.66476
1.80952
1.34915
1.16443
1.20421
1.64179
2.26797
2.54644
2.58706
2.80181
2.87281
1.93602
1.44838
1.22756
1.22253
1.46405
2.13887
2.5339
2.57031
2.80528
3.07221
2.06809
1.56366
1.30729
1.27378
1.39194
1.95641
2.49456
2.55683
2.81301
3.26242
2.20997
1.68896
1.38419
1.34329
1.42639
1.76879
2.42262
2.54695
2.8242
3.4286
2.35778
1.82307
1.46082
1.44302
1.48917
1.61592
2.28721
2.54256
2.83824
3.57614
2.51493
1.95744
1.53478
1.53412
1.56499
1.58038
2.13528
2.54219
2.85294
3.69902
2.66319
2.09181
1.61596
1.63541
1.64296
1.59627
1.99011
2.52878
2.86836
3.78826
2.80198
2.22428
1.69712
1.73022
1.72015
1.61899
1.85238
2.4883
2.88844
3.86935
2.93804
2.34598
1.80364
1.81535
1.79525
1.65096
1.75946
2.42823
2.91369
3.94859
3.0786
2.46373
1.94592
1.87927
1.85723
1.68524
1.71626
2.35448
2.94287
4.02925
3.21475
2.57814
2.09498
1.94024
1.91209
1.71993
1.70713
2.29629
2.97395
4.03032
3.32404
2.68008
2.2304
2.00847
1.96111
1.75947
1.7111
2.23841
2.99887
4.03218
3.39977
2.77306
2.35039
2.07799
2.01189
1.80222
1.71943
2.18235
3.01021
3.84717
3.89902
3.79975
3.73551
3.693
3.66042
3.61321
3.52652
3.36796
3.12572
3.6474
3.79465
3.71926
3.70201
3.68334
3.65277
3.5918
3.48584
3.30771
3.025
3.70601
3.98756
3.93776
3.91679
3.86522
3.79967
3.7063
3.57798
3.38829
3.11055
3.77242
4.25223
4.19673
4.14425
4.05267
3.96
3.84318
3.69668
3.48433
3.19938
3.21837
4.54342
4.58778
4.47736
4.35306
4.22116
4.05888
3.88804
3.63015
3.33223
2.45295
3.84598
5.00291
4.84151
4.65373
4.47206
4.27174
4.07866
3.75612
3.49682
1.96319
2.50896
4.50033
5.0344
4.86734
4.68985
4.49928
4.2853
3.93152
3.6824
1.79847
1.84298
3.02958
4.80945
4.90801
4.77699
4.63007
4.44084
4.11158
3.84693
1.7138
1.72353
1.85231
3.67476
4.86921
4.85474
4.71966
4.54555
4.24734
3.99587
1.66451
1.68
1.69366
2.14821
4.31729
4.86601
4.77967
4.60229
4.34115
4.10581
1.60981
1.62627
1.64448
1.67258
2.95786
4.67487
4.75893
4.63129
4.39803
4.18111
1.55648
1.56514
1.57845
1.59011
1.80583
3.80595
4.68794
4.60028
4.42363
4.23442
1.52926
1.53795
1.54586
1.55705
1.57226
2.47926
4.37944
4.55713
4.43208
4.27243
1.49822
1.50714
1.51848
1.53049
1.54009
1.65906
3.48754
4.46839
4.44163
4.31645
1.47086
1.47654
1.48555
1.49542
1.50825
1.52142
2.30944
4.07233
4.43301
4.3376
1.45541
1.45916
1.46351
1.47047
1.47984
1.48925
1.60446
3.36144
4.37427
4.36698
1.44262
1.4459
1.44915
1.45418
1.45965
1.46798
1.48097
2.41149
4.06389
4.39468
1.4319
1.43516
1.43918
1.44347
1.44833
1.45462
1.46136
1.67573
3.55954
4.41206
1.4232
1.42563
1.4294
1.43311
1.43832
1.44317
1.44886
1.46813
2.78485
4.29252
1.41663
1.41842
1.42117
1.42426
1.42859
1.43284
1.4383
1.44653
2.007
4.00793
1.40001
1.40001
1.40001
1.40001
1.40001
1.40001
1.40001
1.40001
1.39995
1.90503
1.40001
1.40001
1.40001
1.40001
1.40001
1.40001
1.40001
1.40001
1.39995
1.88539
1.40001
1.40001
1.40001
1.40001
1.40001
1.40001
1.40001
1.40001
1.39995
1.87058
1.40001
1.40001
1.40001
1.40001
1.40001
1.40001
1.40001
1.40001
1.39995
1.85607
1.40001
1.40001
1.40001
1.40001
1.40001
1.40001
1.40001
1.40001
1.39995
1.81724
1.40001
1.40001
1.40001
1.40001
1.40001
1.40001
1.40001
1.40001
1.39995
1.7618
1.40001
1.40001
1.40001
1.40001
1.40001
1.40001
1.40001
1.40001
1.39996
1.70559
1.40001
1.40001
1.40001
1.40001
1.40001
1.40001
1.40001
1.40001
1.39996
1.65195
1.40001
1.40001
1.40001
1.40001
1.40001
1.40001
1.40001
1.40001
1.39996
1.61078
1.40001
1.40001
1.40001
1.40001
1.40001
1.40001
1.40001
1.40001
1.39996
1.57423
1.40001
1.40001
1.40001
1.40001
1.40001
1.40001
1.40001
1.40001
1.39996
1.53024
1.40001
1.40001
1.40001
1.40001
1.40001
1.40001
1.40001
1.40001
1.39996
1.50406
1.40001
1.40001
1.40001
1.40001
1.40001
1.40001
1.40001
1.40001
1.39997
1.48426
1.40001
1.40001
1.40001
1.40001
1.40001
1.40001
1.40001
1.40001
1.39997
1.45883
1.40001
1.40001
1.40001
1.40001
1.40001
1.40001
1.40001
1.40001
1.39997
1.44391
1.40001
1.40001
1.40001
1.40001
1.40001
1.40001
1.40001
1.40001
1.39997
1.4359
1.40001
1.40001
1.40001
1.40001
1.40001
1.40001
1.40001
1.40001
1.39997
1.42687
1.40001
1.40001
1.40001
1.40001
1.40001
1.40001
1.40001
1.40001
1.39998
1.41866
1.40001
1.40001
1.40001
1.40001
1.40001
1.40001
1.40001
1.40001
1.39998
1.41347
1.40001
1.40001
1.40001
1.40001
1.40001
1.40001
1.40001
1.40001
1.39998
1.40959
1.40001
1.40001
1.40001
1.40001
1.40001
1.40001
1.40001
1.40001
1.39998
1.40959
1.40001
1.40001
1.40001
1.40001
1.40001
1.40001
1.40001
1.40001
1.39998
1.41348
1.40001
1.40001
1.40001
1.40001
1.40001
1.40001
1.40001
1.40001
1.39998
1.41867
1.40001
1.40001
1.40001
1.40001
1.40001
1.40001
1.40001
1.40001
1.39997
1.42688
1.40001
1.40001
1.40001
1.40001
1.40001
1.40001
1.40001
1.40001
1.39997
1.43593
1.40001
1.40001
1.40001
1.40001
1.40001
1.40001
1.40001
1.40001
1.39997
1.44394
1.40001
1.40001
1.40001
1.40001
1.40001
1.40001
1.40001
1.40001
1.39997
1.45887
1.40001
1.40001
1.40001
1.40001
1.40001
1.40001
1.40001
1.40001
1.39997
1.48431
1.40001
1.40001
1.40001
1.40001
1.40001
1.40001
1.40001
1.40001
1.39996
1.50409
1.40001
1.40001
1.40001
1.40001
1.40001
1.40001
1.40001
1.40001
1.39996
1.53031
1.40001
1.40001
1.40001
1.40001
1.40001
1.40001
1.40001
1.40001
1.39996
1.57428
1.40001
1.40001
1.40001
1.40001
1.40001
1.40001
1.40001
1.40001
1.39996
1.61079
1.40001
1.40001
1.40001
1.40001
1.40001
1.40001
1.40001
1.40001
1.39996
1.65198
1.40001
1.40001
1.40001
1.40001
1.40001
1.40001
1.40001
1.40001
1.39996
1.70564
1.40001
1.40001
1.40001
1.40001
1.40001
1.40001
1.40001
1.40001
1.39995
1.76186
1.40001
1.40001
1.40001
1.40001
1.40001
1.40001
1.40001
1.40001
1.39995
1.81731
1.40001
1.40001
1.40001
1.40001
1.40001
1.40001
1.40001
1.40001
1.39995
1.8561
1.40001
1.40001
1.40001
1.40001
1.40001
1.40001
1.40001
1.40001
1.39995
1.87061
1.40001
1.40001
1.40001
1.40001
1.40001
1.40001
1.40001
1.40001
1.39995
1.8854
1.40001
1.40001
1.40001
1.40001
1.40001
1.40001
1.40001
1.40001
1.39995
1.90504
1.41663
1.41843
1.42118
1.42427
1.4286
1.43286
1.43832
1.44655
2.00467
4.00649
1.42321
1.42564
1.42942
1.43313
1.43834
1.4432
1.4489
1.4681
2.78213
4.2916
1.43192
1.43518
1.43922
1.44351
1.44838
1.45467
1.46141
1.67487
3.55669
4.41165
1.44266
1.44594
1.4492
1.45424
1.45971
1.46804
1.48102
2.40968
4.06215
4.39448
1.45546
1.45921
1.46356
1.47052
1.47989
1.48931
1.60424
3.35994
4.37335
4.36652
1.47091
1.4766
1.4856
1.49548
1.50832
1.5215
2.30865
4.07128
4.43245
4.33709
1.49828
1.5072
1.51853
1.53056
1.54017
1.65921
3.48706
4.46773
4.44102
4.31584
1.52931
1.53801
1.54593
1.55713
1.57237
2.47961
4.37931
4.55657
4.43143
4.27155
1.55655
1.56523
1.57859
1.59026
1.80655
3.80642
4.68742
4.59971
4.42293
4.23336
1.60992
1.62639
1.64461
1.67284
2.95976
4.6747
4.75812
4.63053
4.39727
4.18012
1.66456
1.68005
1.69371
2.14987
4.31882
4.86534
4.77881
4.60132
4.34012
4.10462
1.71384
1.72359
1.85318
3.67691
4.86921
4.85415
4.7189
4.54441
4.2459
3.99434
1.79857
1.84328
3.03263
4.80944
4.90708
4.77626
4.6292
4.43964
4.11003
3.84525
1.96348
2.51067
4.50162
5.03296
4.86625
4.68886
4.49822
4.28403
3.92998
3.68074
2.4536
3.84721
5.00213
4.84071
4.65292
4.47127
4.27082
4.07757
3.75479
3.49527
3.21898
4.54318
4.58752
4.47694
4.35246
4.22053
4.05812
3.88718
3.62906
3.3309
3.77233
4.25196
4.19632
4.14384
4.05229
3.95956
3.84262
3.69604
3.48355
3.1983
3.70598
3.98736
3.93747
3.91652
3.86488
3.79924
3.70579
3.5774
3.38766
3.10968
3.64735
3.79453
3.71903
3.70172
3.68296
3.6523
3.59122
3.48526
3.30712
3.02427
3.84715
3.89894
3.79961
3.73531
3.6927
3.66001
3.61276
3.52598
3.36737
3.12499
4.03242
3.40011
2.77326
2.35069
2.07811
2.01181
1.8021
1.71941
2.18203
3.01027
4.03038
3.32421
2.68033
2.23083
2.00859
1.96106
1.75931
1.71103
2.23836
2.99914
4.02949
3.21493
2.57843
2.09546
1.94034
1.91206
1.71983
1.70698
2.29653
2.97446
3.94877
3.07885
2.46399
1.94645
1.87934
1.85719
1.6852
1.71598
2.355
2.94346
3.86931
2.93814
2.34621
1.80399
1.81546
1.79528
1.651
1.75928
2.42787
2.91395
3.78795
2.80182
2.2245
1.69731
1.73041
1.72026
1.6191
1.85233
2.48774
2.88822
3.69853
2.6629
2.09196
1.61614
1.63562
1.64307
1.59633
1.99027
2.52834
2.86792
3.57547
2.51448
1.95756
1.53498
1.53432
1.56515
1.58042
2.13536
2.54214
2.85288
3.42774
2.35718
1.82317
1.46104
1.44322
1.48931
1.61587
2.28728
2.54302
2.83879
3.26137
2.20924
1.68905
1.38442
1.34344
1.42648
1.76902
2.42242
2.54736
2.82442
3.07098
2.0673
1.56367
1.3075
1.27388
1.39206
1.95652
2.49415
2.55588
2.81238
2.87143
1.93528
1.44828
1.2277
1.22266
1.46431
2.13884
2.53322
2.56854
2.80363
2.66337
1.80882
1.34892
1.1645
1.2043
1.64261
2.26788
2.54577
2.58566
2.80019
2.47203
1.67805
1.24859
1.12553
1.22744
1.79822
2.33299
2.54806
2.59834
2.79805
2.27851
1.54366
1.15829
1.10459
1.30235
1.92521
2.37376
2.54218
2.60451
2.79425
2.09647
1.38994
1.06899
1.09439
1.38577
2.02145
2.39847
2.52885
2.60321
2.78694
1.9001
1.24178
1.00754
1.08228
1.45983
2.08316
2.41202
2.51298
2.58517
2.7752
1.6754
1.07934
0.966865
1.09312
1.51465
2.11175
2.41591
2.50014
2.56936
2.764
1.40325
0.942707
0.939891
1.11461
1.55152
2.11662
2.40955
2.48221
2.55085
2.75149
1.06291
0.852992
0.910844
1.13881
1.5696
2.10973
2.3967
2.45402
2.5111
2.72328
1.40324
1.40412
2.97149
6.6521
6.25763
5.55647
4.72693
3.96291
3.26925
2.57731
1.40223
1.40438
2.58062
6.05036
6.1637
5.51273
4.71776
3.95688
3.26236
2.61001
1.40199
1.41839
2.28869
5.46397
6.03358
5.41813
4.6945
3.94009
3.25032
2.58086
1.40177
1.51222
2.65249
4.77474
5.78941
5.23625
4.61876
3.89749
3.23295
2.5724
1.40089
1.72427
2.98793
4.17129
5.38719
5.053
4.50816
3.83587
3.20144
2.55788
1.39856
1.96156
3.26153
3.6482
4.68846
4.83166
4.35853
3.75642
3.1704
2.54775
1.39477
2.18924
3.42705
3.42781
4.00439
4.56391
4.15824
3.66998
3.13102
2.53354
1.38782
2.41058
3.52089
3.34885
3.52371
4.20611
3.95211
3.58151
3.08072
2.51355
1.37567
2.6693
3.56957
3.30987
3.21352
3.78933
3.79354
3.49822
3.02992
2.49812
1.40213
2.97327
3.62023
3.297
3.02966
3.42038
3.67993
3.40273
2.96884
2.47982
1.5896
3.27228
3.54906
3.22854
2.91032
3.13616
3.54272
3.27358
2.88559
2.4665
1.80609
3.38854
3.4169
3.14081
2.82219
2.90039
3.33662
3.12871
2.80717
2.4659
2.04511
3.44884
3.33622
3.04653
2.75744
2.69463
3.07094
3.01105
2.75382
2.47857
2.28564
3.48755
3.28372
2.96316
2.70188
2.53824
2.78454
2.87683
2.65199
2.51269
2.53413
3.53621
3.27224
2.89714
2.64552
2.42558
2.53186
2.70306
2.51929
2.57103
2.77034
3.60006
3.26376
2.83918
2.57603
2.34714
2.33189
2.45819
2.39992
2.65912
3.12138
3.66717
3.24243
2.78353
2.48517
2.29016
2.18875
2.1819
2.28358
2.76452
3.58379
3.6456
3.16729
2.71866
2.38429
2.23198
2.07463
1.9561
2.18152
2.86052
3.91855
3.58725
3.07643
2.62013
2.28325
2.16348
1.96837
1.83533
2.08717
2.94149
4.04675
3.52735
2.9043
2.47808
2.21106
2.0974
1.86943
1.76184
2.11819
3.00027
4.04674
3.52697
2.90413
2.47799
2.21104
2.09745
1.86951
1.76193
2.11836
3.00031
3.919
3.58702
3.07619
2.62
2.28322
2.16351
1.96846
1.83537
2.0871
2.94139
3.58494
3.64538
3.16701
2.71857
2.38424
2.23203
2.0747
1.95616
2.18156
2.86044
3.12249
3.66714
3.24224
2.78341
2.48515
2.29022
2.18882
2.18197
2.28362
2.76449
2.77117
3.60013
3.2637
2.8391
2.57606
2.34721
2.33198
2.45827
2.39995
2.65912
2.53486
3.53629
3.27218
2.89709
2.64558
2.42567
2.53196
2.70312
2.51932
2.57102
2.28635
3.48772
3.28369
2.96313
2.70196
2.53834
2.78467
2.87689
2.65201
2.51268
2.04565
3.44902
3.33615
3.04652
2.75752
2.69473
3.07108
3.01111
2.75382
2.47856
1.80678
3.38873
3.4168
3.1408
2.82227
2.90051
3.33674
3.12878
2.80716
2.46588
1.59022
3.27283
3.54902
3.22855
2.91041
3.13631
3.54283
3.27364
2.88557
2.46648
1.40234
2.97387
3.62048
3.2971
3.02974
3.42056
3.68003
3.40276
2.96882
2.47981
1.37566
2.66987
3.56978
3.30998
3.21362
3.78953
3.79362
3.49823
3.0299
2.49812
1.38783
2.41109
3.52116
3.34897
3.52384
4.20632
3.9522
3.5815
3.08068
2.51354
1.39477
2.18968
3.42739
3.42798
4.00461
4.56406
4.15832
3.66996
3.13099
2.53354
1.39857
1.9619
3.2619
3.64849
4.68882
4.83178
4.35858
3.75639
3.17037
2.54775
1.40089
1.72444
2.98823
4.17157
5.38756
5.05308
4.50816
3.83583
3.20141
2.55787
1.40177
1.51226
2.65265
4.77499
5.78962
5.23632
4.61872
3.89744
3.23293
2.5724
1.40199
1.41839
2.28874
5.46408
6.03365
5.41808
4.69443
3.94005
3.25031
2.58086
1.40223
1.40438
2.5806
6.05045
6.16364
5.51262
4.71766
3.95684
3.26236
2.61001
1.40324
1.40412
2.97139
6.65208
6.25752
5.55629
4.72683
3.96289
3.26926
2.57732
1.41096
1.41227
1.41399
1.41636
1.41914
1.42286
1.4275
1.43176
1.51693
3.12417
1.40663
1.40738
1.40829
1.40966
1.41119
1.4136
1.4163
1.42024
1.4231
2.02281
1.40408
1.40449
1.40501
1.40572
1.40659
1.40785
1.40935
1.41212
1.41357
1.49199
1.40247
1.40273
1.40308
1.40348
1.404
1.40462
1.40551
1.40678
1.4083
1.41033
1.4015
1.40166
1.40188
1.40214
1.40246
1.40282
1.40333
1.40392
1.40511
1.40568
1.40094
1.40105
1.40119
1.40135
1.40156
1.4018
1.40211
1.40244
1.4031
1.40356
1.40062
1.40069
1.40079
1.4009
1.40104
1.40121
1.40142
1.40164
1.40203
1.40233
1.40044
1.40048
1.40055
1.40064
1.40074
1.40087
1.40103
1.40121
1.40149
1.40169
1.40034
1.40038
1.40043
1.40049
1.40058
1.40068
1.40082
1.40097
1.40123
1.4014
1.40028
1.40031
1.40036
1.40041
1.40049
1.40057
1.4007
1.40084
1.40108
1.40126
1.40026
1.40029
1.40033
1.40038
1.40045
1.40053
1.40065
1.40078
1.40099
1.40122
1.40024
1.40027
1.40031
1.40036
1.40043
1.40052
1.40062
1.40078
1.40094
1.4014
1.40024
1.40027
1.4003
1.40035
1.40041
1.4005
1.4006
1.40076
1.40093
1.40143
1.40026
1.40029
1.40033
1.40038
1.40046
1.40055
1.40067
1.40082
1.401
1.40148
1.40029
1.40033
1.40037
1.40043
1.40051
1.4006
1.40072
1.40086
1.40104
1.40148
1.40033
1.40036
1.40041
1.40047
1.40054
1.40063
1.40074
1.40088
1.40106
1.40144
1.40037
1.4004
1.40044
1.4005
1.40056
1.40064
1.40075
1.40089
1.40107
1.40138
1.40038
1.40042
1.40046
1.40051
1.40058
1.40067
1.40078
1.40093
1.40111
1.40141
1.40038
1.40041
1.40046
1.40053
1.40061
1.40072
1.40083
1.40101
1.4012
1.40152
1.40035
1.40039
1.40045
1.40052
1.40061
1.40072
1.40088
1.40106
1.40132
1.40158
1.40001
1.40001
1.40001
1.40001
1.40001
1.40001
1.40001
1.40001
1.39998
1.40631
1.40001
1.40001
1.40001
1.40001
1.40001
1.40001
1.40001
1.40001
1.39999
1.40394
1.40001
1.40001
1.40001
1.40001
1.40001
1.40001
1.40001
1.40001
1.39999
1.40242
1.40001
1.40001
1.40001
1.40001
1.40001
1.40001
1.40001
1.40001
1.39999
1.40143
1.40001
1.40001
1.40001
1.40001
1.40001
1.40001
1.40001
1.40001
1.4
1.40087
1.40001
1.40001
1.40001
1.40001
1.40001
1.40001
1.40001
1.40001
1.4
1.40055
1.40001
1.40001
1.40001
1.40001
1.40001
1.40001
1.40001
1.40001
1.4
1.40036
1.40001
1.40001
1.40001
1.40001
1.40001
1.40001
1.40001
1.40001
1.4
1.40025
1.40001
1.40001
1.40001
1.40001
1.40001
1.40001
1.40001
1.40001
1.4
1.4002
1.40001
1.40001
1.40001
1.40001
1.40001
1.40001
1.40001
1.40001
1.4
1.40016
1.40001
1.40001
1.40001
1.40001
1.40001
1.40001
1.40001
1.40001
1.4
1.40015
1.40001
1.40001
1.40001
1.40001
1.40001
1.40001
1.40001
1.40001
1.40001
1.40014
1.40001
1.40001
1.40001
1.40001
1.40001
1.40001
1.40001
1.40001
1.40001
1.40014
1.40001
1.40001
1.40001
1.40001
1.40001
1.40001
1.40001
1.40001
1.40001
1.40015
1.40001
1.40001
1.40001
1.40001
1.40001
1.40001
1.40001
1.40001
1.40001
1.40017
1.40001
1.40001
1.40001
1.40001
1.40001
1.40001
1.40001
1.40001
1.40001
1.40019
1.40001
1.40001
1.40001
1.40001
1.40001
1.40001
1.40001
1.40001
1.40001
1.40022
1.40001
1.40001
1.40001
1.40001
1.40001
1.40001
1.40001
1.40001
1.40001
1.40023
1.40001
1.40001
1.40001
1.40001
1.40001
1.40001
1.40001
1.40001
1.40001
1.40023
1.40001
1.40001
1.40001
1.40001
1.40001
1.40001
1.40001
1.40001
1.40001
1.4002
1.40001
1.40001
1.40001
1.40001
1.40001
1.40001
1.40001
1.40001
1.40001
1.4002
1.40001
1.40001
1.40001
1.40001
1.40001
1.40001
1.40001
1.40001
1.40001
1.40023
1.40001
1.40001
1.40001
1.40001
1.40001
1.40001
1.40001
1.40001
1.40001
1.40023
1.40001
1.40001
1.40001
1.40001
1.40001
1.40001
1.40001
1.40001
1.40001
1.40022
1.40001
1.40001
1.40001
1.40001
1.40001
1.40001
1.40001
1.40001
1.40001
1.40019
1.40001
1.40001
1.40001
1.40001
1.40001
1.40001
1.40001
1.40001
1.40001
1.40017
1.40001
1.40001
1.40001
1.40001
1.40001
1.40001
1.40001
1.40001
1.40001
1.40015
1.40001
1.40001
1.40001
1.40001
1.40001
1.40001
1.40001
1.40001
1.40001
1.40014
1.40001
1.40001
1.40001
1.40001
1.40001
1.40001
1.40001
1.40001
1.40001
1.40014
1.40001
1.40001
1.40001
1.40001
1.40001
1.40001
1.40001
1.40001
1.4
1.40015
1.40001
1.40001
1.40001
1.40001
1.40001
1.40001
1.40001
1.40001
1.4
1.40016
1.40001
1.40001
1.40001
1.40001
1.40001
1.40001
1.40001
1.40001
1.4
1.4002
1.40001
1.40001
1.40001
1.40001
1.40001
1.40001
1.40001
1.40001
1.4
1.40025
1.40001
1.40001
1.40001
1.40001
1.40001
1.40001
1.40001
1.40001
1.4
1.40036
1.40001
1.40001
1.40001
1.40001
1.40001
1.40001
1.40001
1.40001
1.4
1.40055
1.40001
1.40001
1.40001
1.40001
1.40001
1.40001
1.40001
1.40001
1.4
1.40087
1.40001
1.40001
1.40001
1.40001
1.40001
1.40001
1.40001
1.40001
1.39999
1.40143
1.40001
1.40001
1.40001
1.40001
1.40001
1.40001
1.40001
1.40001
1.39999
1.40242
1.40001
1.40001
1.40001
1.40001
1.40001
1.40001
1.40001
1.40001
1.39999
1.40394
1.40001
1.40001
1.40001
1.40001
1.40001
1.40001
1.40001
1.40001
1.39998
1.40631
1.40035
1.40039
1.40045
1.40052
1.40061
1.40072
1.40088
1.40106
1.40132
1.40158
1.40038
1.40041
1.40046
1.40053
1.40061
1.40072
1.40083
1.40101
1.4012
1.40152
1.40038
1.40042
1.40046
1.40051
1.40058
1.40067
1.40078
1.40093
1.40111
1.40141
1.40037
1.4004
1.40044
1.4005
1.40056
1.40064
1.40075
1.40089
1.40107
1.40138
1.40033
1.40036
1.40041
1.40047
1.40054
1.40063
1.40074
1.40088
1.40106
1.40144
1.40029
1.40033
1.40037
1.40043
1.40051
1.4006
1.40072
1.40086
1.40104
1.40148
1.40026
1.40029
1.40033
1.40038
1.40046
1.40055
1.40067
1.40082
1.401
1.40148
1.40024
1.40027
1.4003
1.40035
1.40041
1.4005
1.4006
1.40076
1.40093
1.40143
1.40024
1.40027
1.40031
1.40036
1.40043
1.40052
1.40062
1.40078
1.40094
1.4014
1.40026
1.40029
1.40033
1.40038
1.40045
1.40053
1.40065
1.40078
1.40099
1.40122
1.40028
1.40031
1.40036
1.40041
1.40049
1.40057
1.4007
1.40084
1.40108
1.40126
1.40034
1.40038
1.40043
1.40049
1.40058
1.40068
1.40082
1.40097
1.40123
1.4014
1.40044
1.40048
1.40055
1.40064
1.40074
1.40087
1.40103
1.40121
1.40149
1.40169
1.40062
1.40069
1.40079
1.4009
1.40104
1.40121
1.40142
1.40164
1.40203
1.40233
1.40095
1.40105
1.40119
1.40135
1.40156
1.4018
1.40211
1.40245
1.4031
1.40357
1.4015
1.40166
1.40188
1.40214
1.40246
1.40282
1.40333
1.40392
1.40511
1.40568
1.40247
1.40273
1.40308
1.40348
1.404
1.40462
1.40551
1.40678
1.4083
1.41031
1.40408
1.40449
1.40502
1.40572
1.40659
1.40785
1.40935
1.41212
1.41357
1.49137
1.40664
1.40738
1.40829
1.40967
1.41119
1.41361
1.4163
1.42025
1.42309
2.02029
1.41096
1.41227
1.41399
1.41636
1.41915
1.42287
1.42751
1.43178
1.51632
3.12132
)
;

boundaryField
{
    inlet
    {
        type            calculated;
        value           uniform 1.40001;
    }
    outlet
    {
        type            calculated;
        value           nonuniform List<scalar> 
100
(
3.00076
2.94168
2.86034
2.76394
2.65829
2.57027
2.51191
2.47785
2.46527
2.466
2.47933
2.49759
2.51302
2.53308
2.54734
2.55749
2.572
2.58051
2.6097
2.57701
2.71972
2.74871
2.76499
2.77619
2.78541
2.79151
2.79639
2.80097
2.80455
2.8124
2.82365
2.83778
2.85259
2.86821
2.88863
2.91416
2.94345
2.97458
2.99951
3.01078
2.67899
2.612
2.51785
2.41164
2.31934
2.26792
2.25522
2.25916
2.2634
2.26954
2.27161
2.27042
2.25562
2.25459
2.26741
2.31883
2.41318
2.51805
2.61447
2.68116
3.01084
2.99979
2.97509
2.94404
2.9144
2.8884
2.86778
2.85254
2.83834
2.82386
2.81174
2.8029
2.79937
2.79719
2.7934
2.78613
2.77445
2.76334
2.75091
2.7227
2.57701
2.6097
2.58051
2.572
2.55749
2.54734
2.53308
2.51303
2.49759
2.47934
2.46601
2.46529
2.47787
2.51193
2.57028
2.65829
2.76396
2.86043
2.94178
3.00072
)
;
    }
    triangle
    {
        type            calculated;
        value           nonuniform List<scalar> 
40
(
3.84717
3.89902
3.79975
3.73551
3.693
3.66042
3.61321
3.52652
3.36796
3.12572
0.810574
0.864103
0.914293
0.958175
0.975159
0.982968
0.986317
0.990409
0.991714
0.996338
0.996369
0.991888
0.990694
0.986674
0.983373
0.975657
0.958832
0.915021
0.864908
0.811335
3.84715
3.89894
3.79961
3.73531
3.6927
3.66001
3.61276
3.52598
3.36737
3.12499
)
;
    }
    top
    {
        type            symmetryPlane;
    }
    bottom
    {
        type            symmetryPlane;
    }
    defaultFaces
    {
        type            empty;
    }
}


// ************************************************************************* //
