/*--------------------------------*- C++ -*----------------------------------*\
  =========                 |
  \\      /  F ield         | OpenFOAM: The Open Source CFD Toolbox
   \\    /   O peration     | Website:  https://openfoam.org
    \\  /    A nd           | Version:  8
     \\/     M anipulation  |
\*---------------------------------------------------------------------------*/
FoamFile
{
    version     2.0;
    format      ascii;
    class       volScalarField;
    location    "0.8";
    object      T;
}
// * * * * * * * * * * * * * * * * * * * * * * * * * * * * * * * * * * * * * //

dimensions      [0 0 0 1 0 0 0];

internalField   nonuniform List<scalar> 
2600
(
1.84158
1.7525
1.67116
1.69573
1.6804
1.59595
1.50161
1.48479
1.49747
1.55291
1.74588
1.76393
1.73938
1.76221
1.73945
1.63005
1.5306
1.5244
1.54331
1.58575
1.61848
1.74056
1.80831
1.84095
1.80504
1.66825
1.57687
1.58475
1.61477
1.63875
1.54086
1.68109
1.85461
1.90364
1.85612
1.71015
1.64375
1.66755
1.70931
1.70762
1.50682
1.60432
1.83738
1.92607
1.88201
1.76725
1.74041
1.77339
1.8043
1.77051
1.49883
1.56007
1.79673
1.91946
1.89668
1.84575
1.85126
1.87519
1.87166
1.80652
1.49882
1.54544
1.75954
1.90526
1.92608
1.9378
1.95087
1.9394
1.89872
1.81527
1.50555
1.55027
1.74785
1.89847
1.96963
2.01163
2.00645
1.96637
1.89952
1.81142
1.51336
1.55692
1.74704
1.89972
2.00927
2.04301
2.03259
1.97433
1.8946
1.80676
1.51939
1.56142
1.74836
1.89971
2.01771
2.06096
2.04495
1.97358
1.89027
1.80238
1.51943
1.5616
1.74849
1.89961
2.00538
2.0725
2.03968
1.97238
1.8894
1.79843
1.51354
1.55713
1.74768
1.8998
1.99311
2.06335
2.03355
1.97217
1.89531
1.80496
1.50582
1.55058
1.74808
1.89767
1.96463
2.01039
2.0086
1.96896
1.89933
1.81186
1.49915
1.54569
1.75948
1.90392
1.93141
1.93058
1.94314
1.93903
1.89825
1.81501
1.49918
1.56014
1.79621
1.91954
1.90192
1.8399
1.84831
1.8741
1.8713
1.8067
1.50717
1.60415
1.83715
1.9275
1.87821
1.76659
1.74337
1.77542
1.80439
1.77106
1.54118
1.68095
1.85515
1.90381
1.85026
1.71635
1.6501
1.67016
1.70961
1.70791
1.61864
1.74059
1.80889
1.83978
1.80498
1.67251
1.57662
1.58358
1.61572
1.63962
1.74594
1.76409
1.73946
1.76169
1.74155
1.62967
1.52753
1.52322
1.54326
1.58582
1.84159
1.75264
1.67115
1.6957
1.68282
1.59412
1.50109
1.48544
1.49647
1.55174
1.96467
1.71269
1.61316
1.63528
1.62867
1.56672
1.48354
1.45965
1.46791
1.5323
1.99057
1.68673
1.58246
1.58289
1.5907
1.54363
1.46737
1.43852
1.44859
1.52214
1.98135
1.67975
1.5759
1.53521
1.54719
1.51887
1.4549
1.42373
1.43501
1.51747
1.96177
1.69424
1.57121
1.50071
1.49289
1.49378
1.44412
1.41434
1.42773
1.51651
1.9334
1.70502
1.56815
1.48419
1.43186
1.47172
1.43219
1.40921
1.42611
1.51846
1.89833
1.71311
1.57022
1.47348
1.37315
1.44126
1.41932
1.40489
1.42356
1.52263
1.86408
1.70873
1.57137
1.46763
1.32371
1.38818
1.40183
1.39837
1.42133
1.52822
1.82862
1.70115
1.5781
1.46425
1.30595
1.31363
1.37591
1.3887
1.42066
1.53425
1.79914
1.68745
1.58239
1.46557
1.30746
1.22888
1.34069
1.38002
1.42143
1.53972
1.77365
1.66978
1.58566
1.46838
1.30848
1.19285
1.29244
1.37252
1.42677
1.54381
1.75953
1.65215
1.58394
1.46717
1.30873
1.19318
1.23394
1.3641
1.43409
1.54544
1.75522
1.63749
1.57707
1.46053
1.31721
1.21033
1.17988
1.34319
1.4379
1.54562
1.75885
1.62966
1.56523
1.44544
1.32097
1.22803
1.16331
1.31007
1.43817
1.54557
1.76565
1.62542
1.55227
1.42949
1.3276
1.24347
1.16827
1.2704
1.43363
1.54617
1.77476
1.62676
1.5423
1.41605
1.33198
1.25808
1.17704
1.23472
1.4234
1.54856
1.78949
1.63259
1.53641
1.41208
1.33407
1.27414
1.18925
1.21165
1.40876
1.55188
1.80914
1.64592
1.53626
1.41564
1.3335
1.28993
1.2033
1.19943
1.38677
1.55417
1.83331
1.66417
1.53963
1.4215
1.33797
1.30664
1.21824
1.19519
1.36475
1.5554
1.8522
1.68381
1.54681
1.43047
1.35026
1.3242
1.23281
1.19728
1.34268
1.55694
1.87154
1.70674
1.56116
1.44779
1.3697
1.34486
1.24827
1.20024
1.32475
1.55946
2.72667
2.73776
2.70562
2.67924
2.65922
2.64523
2.63125
2.60921
2.5672
2.51011
2.56632
2.63009
2.61238
2.61271
2.61017
2.60434
2.59128
2.56655
2.51918
2.41832
2.37487
2.48532
2.49742
2.51795
2.52687
2.52975
2.52179
2.50143
2.45828
2.33004
2.12387
2.27909
2.32785
2.36083
2.37827
2.39375
2.39519
2.38676
2.3544
2.23163
1.76198
2.07727
2.18042
2.20522
2.23118
2.25312
2.2621
2.26161
2.23885
2.13858
1.40972
1.77714
2.04714
2.08715
2.10497
2.1197
2.1293
2.1378
2.11826
2.05382
1.20906
1.37012
1.82649
2.01174
2.01835
2.02182
2.02665
2.03398
2.02015
1.97949
1.14283
1.15449
1.50044
1.89939
1.98236
1.96503
1.95668
1.95628
1.94532
1.91183
1.10878
1.11059
1.1531
1.7057
1.95837
1.95385
1.93157
1.91757
1.89739
1.86205
1.08653
1.09035
1.09349
1.25377
1.85036
1.94766
1.9344
1.91002
1.87836
1.83884
1.06629
1.07057
1.07488
1.08284
1.53319
1.93633
1.94005
1.91654
1.87659
1.83376
1.04843
1.0507
1.05411
1.05708
1.13507
1.80898
1.94391
1.91816
1.88044
1.83955
1.03872
1.04107
1.04317
1.04604
1.05048
1.38696
1.90491
1.91435
1.88944
1.85118
1.02892
1.03136
1.03443
1.03765
1.04019
1.08098
1.75587
1.92313
1.90722
1.86881
1.02068
1.02226
1.02474
1.02746
1.03086
1.03483
1.33145
1.86066
1.91006
1.88497
1.01603
1.01708
1.01829
1.02023
1.02282
1.0254
1.06463
1.7447
1.92151
1.90712
1.01225
1.01318
1.0141
1.01551
1.01705
1.01929
1.02356
1.39661
1.87588
1.91511
1.00914
1.01006
1.0112
1.01241
1.01378
1.01551
1.01749
1.09265
1.79227
1.93437
1.00664
1.00733
1.0084
1.00944
1.01091
1.01228
1.01385
1.02069
1.58642
1.93718
1.00476
1.00527
1.00605
1.00692
1.00814
1.00935
1.01087
1.01338
1.23751
1.88913
1
1
1
1
1
1
1
1
0.999987
1.65994
1
1
1
1
1
1
1
1
0.999985
1.61343
1
1
1
1
1
1
1
1
0.999985
1.5162
1
1
1
1
1
1
1
1
0.999985
1.37997
1
1
1
1
1
1
1
1
0.999986
1.25828
1
1
1
1
1
1
1
1
0.999986
1.17658
1
1
1
1
1
1
1
1
0.999986
1.12823
1
1
1
1
1
1
1
1
0.999986
1.09663
1
1
1
1
1
1
1
1
0.999987
1.07546
1
1
1
1
1
1
1
1
0.999987
1.05868
1
1
1
1
1
1
1
1
0.999988
1.04246
1
1
1
1
1
1
1
1
0.999988
1.03275
1
1
1
1
1
1
1
1
0.999989
1.02557
1
1
1
1
1
1
1
1
0.99999
1.01755
1
1
1
1
1
1
1
1
0.99999
1.01292
1
1
1
1
1
1
1
1
0.999991
1.01042
1
1
1
1
1
1
1
1
0.999991
1.00774
1
1
1
1
1
1
1
1
0.999992
1.00536
1
1
1
1
1
1
1
1
0.999993
1.00386
1
1
1
1
1
1
1
1
0.999993
1.00274
1
1
1
1
1
1
1
1
0.999993
1.00275
1
1
1
1
1
1
1
1
0.999993
1.00386
1
1
1
1
1
1
1
1
0.999992
1.00536
1
1
1
1
1
1
1
1
0.999991
1.00775
1
1
1
1
1
1
1
1
0.999991
1.01043
1
1
1
1
1
1
1
1
0.99999
1.01293
1
1
1
1
1
1
1
1
0.99999
1.01756
1
1
1
1
1
1
1
1
0.999989
1.02558
1
1
1
1
1
1
1
1
0.999988
1.03276
1
1
1
1
1
1
1
1
0.999988
1.04248
1
1
1
1
1
1
1
1
0.999987
1.05872
1
1
1
1
1
1
1
1
0.999987
1.07548
1
1
1
1
1
1
1
1
0.999986
1.09667
1
1
1
1
1
1
1
1
0.999986
1.12827
1
1
1
1
1
1
1
1
0.999986
1.17663
1
1
1
1
1
1
1
1
0.999986
1.25835
1
1
1
1
1
1
1
1
0.999985
1.38005
1
1
1
1
1
1
1
1
0.999985
1.51627
1
1
1
1
1
1
1
1
0.999986
1.6135
1
1
1
1
1
1
1
1
0.999987
1.65998
1.00476
1.00527
1.00605
1.00693
1.00815
1.00936
1.01088
1.01339
1.23621
1.88858
1.00664
1.00733
1.0084
1.00945
1.01092
1.01229
1.01386
1.02067
1.58505
1.93666
1.00915
1.01007
1.01121
1.01242
1.01379
1.01553
1.0175
1.0923
1.79154
1.93409
1.01227
1.01319
1.01411
1.01552
1.01707
1.01931
1.02358
1.39563
1.87525
1.91481
1.01605
1.0171
1.01831
1.02025
1.02283
1.02542
1.06455
1.74404
1.92106
1.90677
1.0207
1.02228
1.02476
1.02748
1.03089
1.03485
1.33104
1.86016
1.90969
1.88461
1.02894
1.03138
1.03445
1.03767
1.04022
1.08104
1.75543
1.92273
1.90685
1.86846
1.03874
1.04109
1.04319
1.04607
1.05052
1.38705
1.90465
1.91403
1.88912
1.85083
1.04846
1.05073
1.05415
1.05713
1.13537
1.80882
1.94362
1.91789
1.88019
1.83925
1.06634
1.07062
1.07493
1.08293
1.53379
1.93616
1.93982
1.91633
1.87639
1.83352
1.08657
1.09038
1.09353
1.25434
1.85038
1.94743
1.9342
1.90985
1.87824
1.8387
1.10882
1.11064
1.15343
1.70626
1.95829
1.95365
1.93143
1.91749
1.89738
1.86207
1.1429
1.15461
1.5013
1.8997
1.98226
1.96487
1.95663
1.95634
1.94543
1.912
1.20919
1.37061
1.82665
2.01175
2.01831
2.02173
2.02662
2.03411
2.02033
1.97974
1.40998
1.77748
2.04712
2.08717
2.10498
2.11969
2.12931
2.13793
2.11844
2.05411
1.76223
2.07737
2.18047
2.2052
2.23112
2.25306
2.2621
2.26167
2.23899
2.13888
2.12398
2.27916
2.32779
2.36073
2.37816
2.39365
2.39516
2.38678
2.35451
2.23188
2.37497
2.4854
2.49736
2.51784
2.52675
2.52966
2.52173
2.50143
2.45837
2.33021
2.5664
2.63015
2.61238
2.61267
2.6101
2.60428
2.59122
2.56655
2.51926
2.41842
2.72676
2.73782
2.70567
2.67926
2.65921
2.64522
2.63125
2.60924
2.56728
2.51016
1.8714
1.70666
1.56099
1.44769
1.36967
1.34484
1.24825
1.20022
1.32477
1.55943
1.85201
1.68365
1.54661
1.43032
1.35019
1.32417
1.23281
1.19728
1.34266
1.55687
1.83311
1.664
1.53942
1.4213
1.33785
1.3066
1.21825
1.1952
1.36468
1.5553
1.80895
1.64578
1.53604
1.41541
1.33333
1.28987
1.20329
1.19947
1.38664
1.55407
1.7893
1.63243
1.53614
1.41181
1.33388
1.27409
1.18923
1.21164
1.40879
1.55184
1.77456
1.62658
1.54197
1.41572
1.3318
1.25803
1.177
1.23469
1.42347
1.54861
1.76548
1.62526
1.55192
1.42912
1.3274
1.2434
1.16824
1.27033
1.43363
1.54621
1.75874
1.62954
1.56492
1.44506
1.32078
1.22793
1.16329
1.30997
1.43809
1.54551
1.75515
1.63745
1.57686
1.46019
1.31702
1.21026
1.1798
1.3431
1.43774
1.54551
1.75956
1.65219
1.58389
1.46692
1.30853
1.19311
1.23384
1.36412
1.43398
1.54545
1.77378
1.66993
1.58571
1.46822
1.3083
1.1927
1.29241
1.37265
1.42696
1.54393
1.79937
1.68771
1.58249
1.46544
1.30725
1.2286
1.3407
1.38025
1.42171
1.53994
1.82893
1.7015
1.57823
1.46423
1.30577
1.31325
1.3759
1.38897
1.42079
1.53436
1.86443
1.70914
1.57155
1.4676
1.32345
1.38782
1.4018
1.39868
1.42128
1.52789
1.89868
1.71356
1.57043
1.47333
1.37285
1.44122
1.41924
1.40515
1.42336
1.52241
1.93368
1.70547
1.56834
1.48417
1.43163
1.47178
1.43214
1.40895
1.42584
1.51876
1.96195
1.69461
1.57142
1.50076
1.49308
1.49369
1.44393
1.41377
1.42796
1.51716
1.98141
1.68004
1.57603
1.53518
1.54795
1.51853
1.45471
1.4237
1.43522
1.51777
1.99056
1.6869
1.58257
1.58263
1.59138
1.5431
1.46702
1.43896
1.44831
1.52178
1.96466
1.71264
1.6132
1.63494
1.62868
1.56686
1.48264
1.45935
1.46793
1.53248
1.00093
1.00119
1.46874
2.16816
2.06689
1.89318
1.73043
1.61431
1.51795
1.41866
1.00064
1.00122
1.42234
2.12967
2.0616
1.8831
1.72825
1.61403
1.51781
1.42615
1.00057
1.00453
1.38368
2.13102
2.04751
1.86627
1.72659
1.61403
1.51793
1.42077
1.00051
1.02728
1.51784
2.05051
2.00885
1.85163
1.72411
1.61162
1.51714
1.42054
1.00026
1.08811
1.64286
1.93253
1.97464
1.8558
1.72137
1.60631
1.51356
1.41825
0.999602
1.20539
1.75625
1.84153
1.92727
1.85173
1.71167
1.5991
1.51071
1.41653
0.998587
1.36071
1.8286
1.82113
1.8561
1.82517
1.69952
1.59477
1.507
1.41368
0.996899
1.49476
1.87053
1.83153
1.77592
1.78544
1.69025
1.59137
1.50072
1.40902
0.993934
1.59557
1.89191
1.83807
1.73739
1.74441
1.68468
1.58528
1.49357
1.40551
1.00036
1.66937
1.90989
1.84348
1.73269
1.70004
1.66467
1.57609
1.48636
1.4031
1.03558
1.72578
1.9152
1.84237
1.72876
1.64325
1.63754
1.56201
1.4765
1.40313
1.10864
1.81086
1.90364
1.8322
1.71578
1.59535
1.60637
1.5418
1.46618
1.40504
1.28411
1.89821
1.88981
1.81283
1.69731
1.56861
1.56341
1.52069
1.45776
1.41172
1.49393
1.92867
1.87642
1.78898
1.68047
1.55803
1.49965
1.4871
1.43852
1.42502
1.6641
1.9295
1.86026
1.7644
1.66296
1.54079
1.43277
1.44507
1.41242
1.44191
1.76044
1.91446
1.83719
1.73399
1.63584
1.51549
1.38319
1.39035
1.38394
1.46752
1.82257
1.89593
1.80348
1.69261
1.59403
1.48771
1.35687
1.32191
1.35412
1.49734
1.86819
1.86263
1.74952
1.63615
1.54038
1.45701
1.33181
1.26389
1.32782
1.52523
1.88999
1.8158
1.6859
1.56525
1.47968
1.4206
1.30256
1.23116
1.30238
1.54951
1.89563
1.7637
1.60706
1.49108
1.42439
1.38269
1.27135
1.21136
1.30859
1.56076
1.89574
1.76376
1.60715
1.49115
1.42442
1.38269
1.27137
1.21139
1.3086
1.56077
1.89026
1.81586
1.6859
1.56524
1.47967
1.4206
1.30258
1.23118
1.30242
1.54955
1.86842
1.86265
1.74947
1.63614
1.54036
1.457
1.33182
1.26391
1.32784
1.52526
1.82279
1.89594
1.80348
1.69261
1.59401
1.48771
1.35688
1.32193
1.35413
1.49735
1.76073
1.91451
1.83723
1.73402
1.63585
1.51549
1.38321
1.39037
1.38395
1.46752
1.66459
1.92955
1.86029
1.76443
1.66299
1.54081
1.43279
1.44509
1.41243
1.44191
1.49463
1.92883
1.87647
1.78901
1.6805
1.55805
1.49968
1.48711
1.43853
1.42502
1.28481
1.89848
1.88988
1.81284
1.69733
1.56863
1.56345
1.52071
1.45777
1.41171
1.10908
1.81124
1.90367
1.83222
1.7158
1.59538
1.6064
1.54182
1.46618
1.40503
1.03573
1.72606
1.91525
1.8424
1.72878
1.64328
1.63756
1.56202
1.4765
1.40313
1.00043
1.66956
1.90999
1.84353
1.73272
1.70009
1.6647
1.5761
1.48636
1.4031
0.993934
1.59584
1.89201
1.83812
1.73741
1.74445
1.6847
1.58528
1.49357
1.40551
0.996902
1.49512
1.87064
1.83158
1.77595
1.78549
1.69028
1.59137
1.50071
1.40902
0.998589
1.36105
1.82873
1.82119
1.85614
1.82522
1.69954
1.59477
1.50699
1.41368
0.999603
1.20561
1.75639
1.8416
1.92732
1.85176
1.71168
1.59909
1.5107
1.41653
1.00026
1.08819
1.64298
1.93257
1.97471
1.85582
1.72137
1.60631
1.51356
1.41826
1.00051
1.0273
1.51793
2.05053
2.00889
1.85164
1.7241
1.61161
1.51713
1.42054
1.00057
1.00453
1.38374
2.13103
2.04753
1.86626
1.72657
1.61402
1.51793
1.42078
1.00064
1.00122
1.42236
2.1297
2.06159
1.88307
1.72822
1.61402
1.51781
1.42615
1.00093
1.00119
1.4687
2.16817
2.06689
1.89314
1.7304
1.6143
1.51795
1.41867
1.00313
1.00351
1.004
1.00467
1.00546
1.00651
1.00783
1.00902
1.03998
1.7454
1.0019
1.00211
1.00237
1.00276
1.00319
1.00388
1.00465
1.00574
1.00662
1.31309
1.00116
1.00128
1.00143
1.00163
1.00188
1.00224
1.00267
1.00346
1.00386
1.03696
1.0007
1.00078
1.00088
1.00099
1.00114
1.00132
1.00157
1.00194
1.00235
1.00305
1.00043
1.00047
1.00054
1.00061
1.0007
1.0008
1.00095
1.00112
1.00146
1.00162
1.00027
1.0003
1.00034
1.00039
1.00045
1.00051
1.0006
1.0007
1.00089
1.00102
1.00018
1.0002
1.00022
1.00026
1.0003
1.00034
1.0004
1.00047
1.00058
1.00067
1.00012
1.00014
1.00016
1.00018
1.00021
1.00025
1.00029
1.00035
1.00043
1.00048
1.0001
1.00011
1.00012
1.00014
1.00016
1.00019
1.00023
1.00028
1.00035
1.0004
1.00008
1.00009
1.0001
1.00012
1.00014
1.00016
1.0002
1.00024
1.00031
1.00036
1.00007
1.00008
1.00009
1.00011
1.00013
1.00015
1.00018
1.00022
1.00028
1.00035
1.00007
1.00008
1.00009
1.0001
1.00012
1.00015
1.00018
1.00022
1.00027
1.0004
1.00007
1.00007
1.00009
1.0001
1.00012
1.00014
1.00017
1.00022
1.00027
1.00041
1.00007
1.00008
1.00009
1.00011
1.00013
1.00016
1.00019
1.00024
1.00029
1.00042
1.00008
1.00009
1.00011
1.00012
1.00014
1.00017
1.0002
1.00025
1.0003
1.00042
1.00009
1.0001
1.00012
1.00013
1.00015
1.00018
1.00021
1.00025
1.0003
1.00041
1.0001
1.00011
1.00013
1.00014
1.00016
1.00018
1.00021
1.00025
1.00031
1.00039
1.00011
1.00012
1.00013
1.00015
1.00016
1.00019
1.00022
1.00027
1.00032
1.0004
1.00011
1.00012
1.00013
1.00015
1.00017
1.0002
1.00024
1.00029
1.00034
1.00043
1.0001
1.00011
1.00013
1.00015
1.00017
1.00021
1.00025
1.0003
1.00038
1.00045
1
1
1
1
1
1
1
1
0.999994
1.0018
1
1
1
1
1
1
1
1
0.999995
1.00113
1
1
1
1
1
1
1
1
0.999996
1.00069
1
1
1
1
1
1
1
1
0.999997
1.00041
1
1
1
1
1
1
1
1
0.999998
1.00025
1
1
1
1
1
1
1
1
0.999998
1.00016
1
1
1
1
1
1
1
1
0.999999
1.0001
1
1
1
1
1
1
1
1
0.999999
1.00007
1
1
1
1
1
1
1
1
0.999999
1.00005
1
1
1
1
1
1
1
1
1
1.00004
1
1
1
1
1
1
1
1
1
1.00004
1
1
1
1
1
1
1
1
1
1.00004
1
1
1
1
1
1
1
1
1
1.00004
1
1
1
1
1
1
1
1
1
1.00004
1
1
1
1
1
1
1
1
1
1.00005
1
1
1
1
1
1
1
1
1
1.00005
1
1
1
1
1
1
1
1
1
1.00006
1
1
1
1
1
1
1
1
1
1.00007
1
1
1
1
1
1
1
1
1
1.00006
1
1
1
1
1
1
1
1
1
1.00006
1
1
1
1
1
1
1
1
1
1.00006
1
1
1
1
1
1
1
1
1
1.00006
1
1
1
1
1
1
1
1
1
1.00007
1
1
1
1
1
1
1
1
1
1.00006
1
1
1
1
1
1
1
1
1
1.00005
1
1
1
1
1
1
1
1
1
1.00005
1
1
1
1
1
1
1
1
1
1.00004
1
1
1
1
1
1
1
1
1
1.00004
1
1
1
1
1
1
1
1
1
1.00004
1
1
1
1
1
1
1
1
1
1.00004
1
1
1
1
1
1
1
1
1
1.00004
1
1
1
1
1
1
1
1
0.999999
1.00005
1
1
1
1
1
1
1
1
0.999999
1.00007
1
1
1
1
1
1
1
1
0.999999
1.0001
1
1
1
1
1
1
1
1
0.999998
1.00016
1
1
1
1
1
1
1
1
0.999998
1.00025
1
1
1
1
1
1
1
1
0.999997
1.00041
1
1
1
1
1
1
1
1
0.999996
1.00069
1
1
1
1
1
1
1
1
0.999995
1.00113
1
1
1
1
1
1
1
1
0.999994
1.0018
1.0001
1.00011
1.00013
1.00015
1.00017
1.00021
1.00025
1.0003
1.00038
1.00045
1.00011
1.00012
1.00013
1.00015
1.00017
1.0002
1.00024
1.00029
1.00034
1.00043
1.00011
1.00012
1.00013
1.00015
1.00016
1.00019
1.00022
1.00027
1.00032
1.0004
1.0001
1.00011
1.00013
1.00014
1.00016
1.00018
1.00021
1.00025
1.00031
1.00039
1.00009
1.0001
1.00012
1.00013
1.00015
1.00018
1.00021
1.00025
1.0003
1.00041
1.00008
1.00009
1.00011
1.00012
1.00014
1.00017
1.0002
1.00025
1.0003
1.00042
1.00007
1.00008
1.00009
1.00011
1.00013
1.00016
1.00019
1.00024
1.00029
1.00042
1.00007
1.00007
1.00009
1.0001
1.00012
1.00014
1.00017
1.00022
1.00027
1.00041
1.00007
1.00008
1.00009
1.0001
1.00012
1.00015
1.00018
1.00022
1.00027
1.0004
1.00007
1.00008
1.00009
1.00011
1.00013
1.00015
1.00018
1.00022
1.00028
1.00035
1.00008
1.00009
1.0001
1.00012
1.00014
1.00016
1.0002
1.00024
1.00031
1.00036
1.0001
1.00011
1.00012
1.00014
1.00016
1.00019
1.00023
1.00028
1.00035
1.0004
1.00012
1.00014
1.00016
1.00018
1.00021
1.00025
1.00029
1.00035
1.00043
1.00048
1.00018
1.0002
1.00022
1.00026
1.0003
1.00034
1.00041
1.00047
1.00058
1.00067
1.00027
1.0003
1.00034
1.00039
1.00045
1.00051
1.0006
1.0007
1.00089
1.00102
1.00043
1.00047
1.00054
1.00061
1.0007
1.00081
1.00095
1.00112
1.00146
1.00162
1.0007
1.00078
1.00088
1.00099
1.00114
1.00132
1.00157
1.00194
1.00236
1.00304
1.00116
1.00128
1.00143
1.00163
1.00188
1.00224
1.00267
1.00346
1.00386
1.03662
1.0019
1.00211
1.00237
1.00276
1.00319
1.00388
1.00465
1.00575
1.00661
1.31146
1.00313
1.00351
1.004
1.00467
1.00546
1.00652
1.00783
1.00903
1.03969
1.74447
)
;

boundaryField
{
    inlet
    {
        type            fixedValue;
        value           uniform 1;
    }
    outlet
    {
        type            inletOutlet;
        inletValue      uniform 1;
        value           nonuniform List<scalar> 
100
(
1.56053
1.5494
1.52531
1.49766
1.46798
1.44233
1.42545
1.41212
1.40538
1.4034
1.40337
1.40581
1.40931
1.41394
1.41676
1.41847
1.42076
1.42097
1.42633
1.41884
1.53264
1.52248
1.51783
1.51691
1.51889
1.5231
1.5287
1.5347
1.54012
1.54415
1.54575
1.54587
1.54575
1.54625
1.54846
1.55163
1.55386
1.55507
1.5566
1.55917
1.55316
1.58598
1.63873
1.70748
1.77026
1.80619
1.81496
1.81103
1.80648
1.80209
1.79818
1.80458
1.81161
1.81472
1.80638
1.77081
1.70776
1.63962
1.58599
1.55201
1.55914
1.55653
1.55497
1.55376
1.5516
1.5485
1.54629
1.5457
1.54576
1.54575
1.54426
1.54034
1.53482
1.52838
1.52286
1.51918
1.51756
1.51816
1.52214
1.53276
1.41883
1.42632
1.42096
1.42076
1.41847
1.41676
1.41394
1.40932
1.40581
1.40338
1.40341
1.40539
1.41212
1.42545
1.44233
1.46798
1.49765
1.52529
1.54936
1.56052
)
;
    }
    triangle
    {
        type            zeroGradient;
    }
    top
    {
        type            symmetryPlane;
    }
    bottom
    {
        type            symmetryPlane;
    }
    defaultFaces
    {
        type            empty;
    }
}


// ************************************************************************* //
