/*--------------------------------*- C++ -*----------------------------------*\
  =========                 |
  \\      /  F ield         | OpenFOAM: The Open Source CFD Toolbox
   \\    /   O peration     | Website:  https://openfoam.org
    \\  /    A nd           | Version:  8
     \\/     M anipulation  |
\*---------------------------------------------------------------------------*/
FoamFile
{
    version     2.0;
    format      ascii;
    class       volVectorField;
    location    "0.8";
    object      U;
}
// * * * * * * * * * * * * * * * * * * * * * * * * * * * * * * * * * * * * * //

dimensions      [0 1 -1 0 0 0 0];

internalField   nonuniform List<vector> 
2600
(
(1.27806 0.320738 0)
(2.31785 0.595457 0)
(2.45624 0.583628 0)
(2.24841 0.391584 0)
(1.98869 0.164745 0)
(1.87989 0.0890332 0)
(1.90401 0.0318282 0)
(1.98553 -0.0142977 0)
(2.02949 -0.000318423 0)
(1.99891 0.056453 0)
(0.59774 -0.0709551 0)
(1.90541 0.438852 0)
(2.38132 0.540796 0)
(2.25846 0.361001 0)
(2.00168 0.142879 0)
(1.88539 0.0755428 0)
(1.91174 0.0173176 0)
(1.98615 -0.0215737 0)
(2.02249 -0.00532676 0)
(2.00204 0.0566116 0)
(0.199742 -0.0845914 0)
(1.35737 0.369899 0)
(2.16832 0.497272 0)
(2.21854 0.332298 0)
(1.99613 0.122279 0)
(1.89129 0.0761969 0)
(1.93169 0.00619049 0)
(1.98547 -0.0315034 0)
(2.00752 -0.00877634 0)
(1.9952 0.057531 0)
(0.0379352 -0.175332 0)
(0.865269 0.175298 0)
(1.83329 0.369369 0)
(2.09199 0.301144 0)
(1.9529 0.119979 0)
(1.89093 0.0817523 0)
(1.94309 0.0114079 0)
(1.9516 -0.025086 0)
(1.95571 -0.0117409 0)
(1.95114 0.0491118 0)
(-0.0910336 -0.176967 0)
(0.45051 0.111108 0)
(1.383 0.277758 0)
(1.84085 0.269086 0)
(1.84138 0.123563 0)
(1.85971 0.071993 0)
(1.89234 0.00762033 0)
(1.8434 -0.0299333 0)
(1.82095 -0.0106922 0)
(1.83468 0.0445749 0)
(-0.191286 -0.18312 0)
(0.149076 0.0156429 0)
(0.900644 0.167495 0)
(1.47174 0.209149 0)
(1.63721 0.120993 0)
(1.75273 0.0516302 0)
(1.73331 -0.00526148 0)
(1.6345 -0.0186318 0)
(1.58225 -0.00765019 0)
(1.63447 0.0374314 0)
(-0.26414 -0.155437 0)
(-0.102209 -0.0183935 0)
(0.428271 0.101458 0)
(1.01623 0.155709 0)
(1.32514 0.103932 0)
(1.51634 0.056624 0)
(1.46885 0.0112765 0)
(1.35478 -0.0165158 0)
(1.2982 -0.00127811 0)
(1.40049 0.0301266 0)
(-0.31697 -0.126062 0)
(-0.294488 -0.0325055 0)
(0.0194569 0.04786 0)
(0.547288 0.101598 0)
(0.943203 0.0631803 0)
(1.185 0.0411717 0)
(1.17709 -0.0158696 0)
(1.10538 -0.00787664 0)
(1.06746 0.00163803 0)
(1.21019 0.0204493 0)
(-0.345003 -0.0778884 0)
(-0.408319 -0.0252737 0)
(-0.250363 0.0256654 0)
(0.19131 0.0712971 0)
(0.626682 0.0637085 0)
(0.908762 0.024017 0)
(0.983635 0.00503105 0)
(0.961152 0.00181226 0)
(0.941916 0.00278823 0)
(1.10083 0.0141093 0)
(-0.369008 -0.027349 0)
(-0.450368 -0.0101951 0)
(-0.348347 0.0126042 0)
(0.042313 0.0324263 0)
(0.493069 0.0277478 0)
(0.801303 0.0235263 0)
(0.916223 0.0145744 0)
(0.9167 0.002442 0)
(0.903598 0.00326024 0)
(1.06195 0.00644136 0)
(-0.369015 0.026449 0)
(-0.450533 0.00990285 0)
(-0.348662 -0.0116662 0)
(0.0425629 -0.0294815 0)
(0.49563 -0.0265703 0)
(0.798245 -0.00695912 0)
(0.914819 0.00662234 0)
(0.916093 0.00235862 0)
(0.903632 0.000265276 0)
(1.06265 -0.00428194 0)
(-0.345129 0.0771449 0)
(-0.409004 0.025417 0)
(-0.251983 -0.0252766 0)
(0.190994 -0.0721394 0)
(0.626837 -0.0609931 0)
(0.905802 -0.0445607 0)
(0.983476 -0.00377436 0)
(0.96058 0.00328591 0)
(0.941401 -0.00541146 0)
(1.09978 -0.0156791 0)
(-0.317196 0.125318 0)
(-0.295757 0.0324698 0)
(0.0166227 -0.0457733 0)
(0.544525 -0.100563 0)
(0.942624 -0.0884331 0)
(1.18142 -0.0319944 0)
(1.17696 -0.0145172 0)
(1.10617 -0.0024386 0)
(1.06771 -0.00334945 0)
(1.21068 -0.0222708 0)
(-0.264536 0.154759 0)
(-0.103929 0.0186939 0)
(0.424741 -0.100885 0)
(1.01327 -0.15505 0)
(1.32522 -0.0805456 0)
(1.51822 -0.0544851 0)
(1.46487 -0.0085419 0)
(1.35454 0.013288 0)
(1.29917 0.00105549 0)
(1.40186 -0.0294043 0)
(-0.191783 0.182403 0)
(0.147104 -0.0153752 0)
(0.897366 -0.166609 0)
(1.4699 -0.207797 0)
(1.64005 -0.113832 0)
(1.75376 -0.0692708 0)
(1.73197 0.0012801 0)
(1.63524 0.0223662 0)
(1.58307 0.00652379 0)
(1.63406 -0.0378817 0)
(-0.0915574 0.176348 0)
(0.448558 -0.110276 0)
(1.38052 -0.276975 0)
(1.84043 -0.265508 0)
(1.84538 -0.131851 0)
(1.85939 -0.07261 0)
(1.89214 -0.00763473 0)
(1.84477 0.0302154 0)
(1.82032 0.0110859 0)
(1.83352 -0.0437914 0)
(0.0374114 0.17469 0)
(0.863314 -0.174681 0)
(1.83189 -0.367088 0)
(2.09308 -0.300039 0)
(1.95714 -0.13278 0)
(1.8905 -0.0679419 0)
(1.94056 0.00368865 0)
(1.95058 0.0315779 0)
(1.95566 0.0107962 0)
(1.9502 -0.0499185 0)
(0.199311 0.0843146 0)
(1.35605 -0.368991 0)
(2.16786 -0.495657 0)
(2.21986 -0.334513 0)
(1.99656 -0.124859 0)
(1.8919 -0.0688708 0)
(1.93084 -0.00815651 0)
(1.98443 0.0283186 0)
(2.00799 0.011104 0)
(1.99459 -0.0553026 0)
(0.596866 0.0705677 0)
(1.90475 -0.437995 0)
(2.38154 -0.539894 0)
(2.25936 -0.361658 0)
(2.00184 -0.139032 0)
(1.88483 -0.0811318 0)
(1.91241 -0.0240556 0)
(1.9869 0.0194119 0)
(2.02241 0.00468585 0)
(2.00191 -0.0570536 0)
(1.2763 -0.320781 0)
(2.31784 -0.59457 0)
(2.45669 -0.582905 0)
(2.24928 -0.391125 0)
(1.98985 -0.162282 0)
(1.88145 -0.0935027 0)
(1.90561 -0.0314693 0)
(1.98624 0.0161383 0)
(2.02953 -0.0021289 0)
(1.9995 -0.0593586 0)
(1.94423 -0.054896 0)
(2.52524 -0.560878 0)
(2.42603 -0.585697 0)
(2.22377 -0.403788 0)
(1.9945 -0.180656 0)
(1.8903 -0.103045 0)
(1.90911 -0.0417783 0)
(1.99542 0.0101353 0)
(2.04244 -0.00359597 0)
(1.99833 -0.0596399 0)
(2.02793 0.148296 0)
(2.51033 -0.529857 0)
(2.34665 -0.558114 0)
(2.23485 -0.441366 0)
(2.03434 -0.211038 0)
(1.91253 -0.114074 0)
(1.92364 -0.0555419 0)
(2.01717 -0.00341543 0)
(2.06209 -0.00672781 0)
(1.99958 -0.0587837 0)
(1.99109 0.219579 0)
(2.39394 -0.359211 0)
(2.34325 -0.51221 0)
(2.25671 -0.47058 0)
(2.0817 -0.248754 0)
(1.94168 -0.136059 0)
(1.95446 -0.0634473 0)
(2.05084 -0.0143854 0)
(2.08252 -0.0178051 0)
(2.00114 -0.0626678 0)
(1.90774 0.313849 0)
(2.31548 -0.290846 0)
(2.34415 -0.481949 0)
(2.26794 -0.48837 0)
(2.13164 -0.305295 0)
(2.00044 -0.16032 0)
(1.9952 -0.0765861 0)
(2.0884 -0.0275042 0)
(2.10203 -0.0219857 0)
(2.00262 -0.0620708 0)
(1.87483 0.338528 0)
(2.23698 -0.163337 0)
(2.30474 -0.389955 0)
(2.25555 -0.482184 0)
(2.17059 -0.377359 0)
(2.07514 -0.209396 0)
(2.04013 -0.0831678 0)
(2.12454 -0.031834 0)
(2.11678 -0.019432 0)
(2.00359 -0.0629316 0)
(1.8346 0.404329 0)
(2.19136 -0.0956036 0)
(2.28282 -0.347785 0)
(2.23078 -0.46563 0)
(2.20103 -0.461539 0)
(2.15285 -0.27733 0)
(2.08562 -0.100107 0)
(2.15323 -0.0379992 0)
(2.12384 -0.0226341 0)
(2.00478 -0.0619567 0)
(1.83895 0.43543 0)
(2.15298 -0.0197496 0)
(2.2259 -0.231675 0)
(2.22485 -0.437009 0)
(2.21986 -0.535879 0)
(2.22462 -0.368386 0)
(2.1282 -0.129172 0)
(2.17076 -0.0408697 0)
(2.12805 -0.0248541 0)
(2.00658 -0.0621457 0)
(1.84787 0.499782 0)
(2.12758 0.0532869 0)
(2.20136 -0.181654 0)
(2.22035 -0.409123 0)
(2.23116 -0.565403 0)
(2.29597 -0.500411 0)
(2.16672 -0.171666 0)
(2.17676 -0.0501743 0)
(2.13368 -0.0263466 0)
(2.00738 -0.061749 0)
(1.88185 0.543248 0)
(2.12155 0.115479 0)
(2.16007 -0.0942783 0)
(2.20562 -0.348755 0)
(2.25462 -0.548303 0)
(2.33075 -0.637992 0)
(2.20666 -0.235286 0)
(2.1788 -0.0614354 0)
(2.13566 -0.028206 0)
(2.0057 -0.0618317 0)
(1.91485 0.59693 0)
(2.11903 0.194055 0)
(2.14608 -0.0547676 0)
(2.20365 -0.322551 0)
(2.29191 -0.532602 0)
(2.34509 -0.705721 0)
(2.25854 -0.332177 0)
(2.18223 -0.0776726 0)
(2.13572 -0.0276695 0)
(2.00135 -0.0632173 0)
(1.94409 0.639849 0)
(2.13644 0.253113 0)
(2.14144 -0.00406215 0)
(2.21302 -0.267973 0)
(2.31958 -0.462159 0)
(2.35096 -0.688364 0)
(2.31141 -0.450867 0)
(2.19792 -0.114339 0)
(2.13779 -0.0322125 0)
(2.00095 -0.0651214 0)
(1.96281 0.67209 0)
(2.14827 0.327541 0)
(2.15701 0.0298564 0)
(2.2446 -0.245222 0)
(2.34262 -0.423086 0)
(2.3514 -0.647135 0)
(2.33991 -0.547054 0)
(2.23024 -0.173317 0)
(2.13955 -0.0391204 0)
(2.00842 -0.066136 0)
(1.96822 0.695824 0)
(2.16625 0.381072 0)
(2.18755 0.081472 0)
(2.27938 -0.189113 0)
(2.36081 -0.370136 0)
(2.34943 -0.595546 0)
(2.35224 -0.575697 0)
(2.25815 -0.237394 0)
(2.13839 -0.0547555 0)
(2.01698 -0.0681506 0)
(1.96691 0.710105 0)
(2.17256 0.439402 0)
(2.23162 0.120879 0)
(2.32236 -0.155858 0)
(2.38301 -0.331272 0)
(2.35673 -0.558756 0)
(2.35147 -0.571149 0)
(2.2932 -0.335147 0)
(2.12912 -0.0774041 0)
(2.02095 -0.0701061 0)
(1.95415 0.7268 0)
(2.1734 0.486482 0)
(2.27349 0.169906 0)
(2.36013 -0.0987732 0)
(2.40778 -0.302151 0)
(2.36282 -0.512712 0)
(2.33631 -0.5497 0)
(2.30386 -0.395955 0)
(2.11398 -0.103131 0)
(2.01949 -0.0794575 0)
(1.94109 0.736362 0)
(2.16192 0.527052 0)
(2.30954 0.202502 0)
(2.40085 -0.05273 0)
(2.42315 -0.269619 0)
(2.35914 -0.471284 0)
(2.32493 -0.532586 0)
(2.31393 -0.452427 0)
(2.11183 -0.145692 0)
(2.01677 -0.0947795 0)
(1.92263 0.735767 0)
(2.14597 0.548513 0)
(2.3258 0.248098 0)
(2.43477 -0.00979272 0)
(2.41962 -0.237637 0)
(2.34935 -0.431841 0)
(2.31097 -0.505403 0)
(2.32134 -0.475725 0)
(2.13296 -0.198846 0)
(2.01889 -0.116496 0)
(1.89565 0.741993 0)
(2.12313 0.566418 0)
(2.33246 0.276606 0)
(2.44494 0.0200509 0)
(2.39647 -0.182058 0)
(2.33616 -0.395936 0)
(2.29837 -0.480144 0)
(2.32735 -0.483787 0)
(2.19049 -0.263407 0)
(2.0326 -0.13857 0)
(1.87512 0.749868 0)
(2.10083 0.578687 0)
(2.31796 0.314883 0)
(2.42321 0.0660685 0)
(2.38606 -0.146319 0)
(2.32117 -0.362592 0)
(2.28599 -0.44324 0)
(2.33249 -0.484922 0)
(2.22587 -0.325458 0)
(2.04741 -0.163956 0)
(1.84555 0.75262 0)
(2.0629 0.594569 0)
(2.29395 0.343885 0)
(2.39527 0.100564 0)
(2.35882 -0.0919168 0)
(2.30181 -0.324086 0)
(2.2866 -0.417957 0)
(2.32941 -0.481332 0)
(2.25146 -0.390216 0)
(2.0593 -0.193194 0)
(0.740159 0.234194 0)
(0.712004 0.323926 0)
(0.780321 0.379233 0)
(0.805737 0.426441 0)
(0.832212 0.452828 0)
(0.864697 0.467394 0)
(0.911583 0.488854 0)
(0.980774 0.516721 0)
(1.08505 0.562217 0)
(1.28048 0.615076 0)
(0.780213 0.34645 0)
(0.716406 0.395549 0)
(0.757333 0.417794 0)
(0.786511 0.442561 0)
(0.823268 0.45617 0)
(0.863908 0.467699 0)
(0.915018 0.485684 0)
(0.985461 0.518836 0)
(1.09157 0.565607 0)
(1.27921 0.617756 0)
(0.985472 0.437221 0)
(0.846945 0.426289 0)
(0.856689 0.41663 0)
(0.860052 0.408565 0)
(0.877747 0.413637 0)
(0.906194 0.425397 0)
(0.951186 0.446771 0)
(1.01577 0.479059 0)
(1.12023 0.522542 0)
(1.30104 0.552996 0)
(1.30239 0.617991 0)
(1.06591 0.591385 0)
(1.03776 0.548811 0)
(0.993413 0.527402 0)
(0.976367 0.504767 0)
(0.986231 0.488877 0)
(1.01522 0.490386 0)
(1.06724 0.503732 0)
(1.16408 0.525246 0)
(1.34114 0.555837 0)
(1.83535 0.684204 0)
(1.305 0.774271 0)
(1.24496 0.715018 0)
(1.21916 0.649805 0)
(1.18798 0.595862 0)
(1.17391 0.551236 0)
(1.16599 0.537729 0)
(1.18386 0.528106 0)
(1.249 0.528857 0)
(1.40156 0.558748 0)
(2.43733 0.508715 0)
(1.84586 0.779458 0)
(1.3783 0.847216 0)
(1.38538 0.800577 0)
(1.37303 0.746437 0)
(1.35026 0.699691 0)
(1.32239 0.666397 0)
(1.32702 0.624493 0)
(1.35014 0.59376 0)
(1.47973 0.602181 0)
(2.71801 0.312785 0)
(2.58873 0.464473 0)
(1.74126 0.857199 0)
(1.48405 0.85234 0)
(1.49982 0.827225 0)
(1.49799 0.792779 0)
(1.48015 0.757913 0)
(1.48436 0.710836 0)
(1.48314 0.665708 0)
(1.58447 0.644464 0)
(2.80825 0.226774 0)
(2.79983 0.246609 0)
(2.39322 0.606523 0)
(1.61763 0.87041 0)
(1.54947 0.865779 0)
(1.57519 0.844846 0)
(1.58223 0.824924 0)
(1.59583 0.79196 0)
(1.60321 0.74697 0)
(1.67563 0.717133 0)
(2.85799 0.17491 0)
(2.85195 0.188909 0)
(2.83478 0.222297 0)
(2.01938 0.747728 0)
(1.59497 0.878265 0)
(1.59841 0.876406 0)
(1.62975 0.8595 0)
(1.66117 0.834555 0)
(1.68261 0.80603 0)
(1.75237 0.77146 0)
(2.87831 0.172373 0)
(2.87561 0.174164 0)
(2.87071 0.185916 0)
(2.75668 0.319285 0)
(1.80276 0.826963 0)
(1.61145 0.880415 0)
(1.63247 0.878345 0)
(1.68223 0.861985 0)
(1.72055 0.846189 0)
(1.79578 0.815821 0)
(2.92101 0.117229 0)
(2.91717 0.124601 0)
(2.91306 0.134181 0)
(2.90864 0.147508 0)
(2.32775 0.608301 0)
(1.66475 0.878569 0)
(1.64775 0.879515 0)
(1.68967 0.873564 0)
(1.73735 0.867499 0)
(1.81125 0.842715 0)
(2.93959 0.0949134 0)
(2.93467 0.105607 0)
(2.93247 0.109261 0)
(2.9265 0.122859 0)
(2.89329 0.179035 0)
(1.95117 0.778723 0)
(1.66291 0.885222 0)
(1.68967 0.885655 0)
(1.7315 0.879555 0)
(1.80493 0.855875 0)
(2.9492 0.0880852 0)
(2.94715 0.0910902 0)
(2.94493 0.097216 0)
(2.9422 0.101482 0)
(2.93906 0.110426 0)
(2.60925 0.466598 0)
(1.70697 0.871197 0)
(1.68571 0.890268 0)
(1.72478 0.876757 0)
(1.79767 0.850462 0)
(2.96903 0.0607028 0)
(2.96737 0.0629959 0)
(2.96305 0.0719985 0)
(2.96118 0.0746114 0)
(2.95707 0.084062 0)
(2.95555 0.110811 0)
(2.03897 0.72545 0)
(1.71259 0.876311 0)
(1.72617 0.870796 0)
(1.78308 0.849437 0)
(2.97755 0.0438829 0)
(2.97518 0.0495268 0)
(2.97338 0.0520044 0)
(2.96925 0.0611423 0)
(2.96671 0.0644656 0)
(2.96086 0.0784503 0)
(2.71865 0.400826 0)
(1.7601 0.887051 0)
(1.71775 0.868717 0)
(1.76404 0.849479 0)
(2.98316 0.0329198 0)
(2.98164 0.0360398 0)
(2.98061 0.0381554 0)
(2.97757 0.0447753 0)
(2.9758 0.047786 0)
(2.97196 0.0583491 0)
(2.98703 0.0827545 0)
(2.07725 0.7218 0)
(1.72966 0.864083 0)
(1.75247 0.848566 0)
(2.98534 0.0292848 0)
(2.98464 0.0307571 0)
(2.98354 0.0337878 0)
(2.98245 0.0356318 0)
(2.98066 0.0398001 0)
(2.97846 0.0430966 0)
(2.97443 0.0534289 0)
(2.60605 0.462273 0)
(1.75379 0.89893 0)
(1.73213 0.83909 0)
(2.99007 0.0209198 0)
(2.98941 0.0219388 0)
(2.98765 0.0256961 0)
(2.98693 0.0268339 0)
(2.98458 0.0319183 0)
(2.98311 0.0337328 0)
(2.98081 0.0406958 0)
(3.00629 0.0959412 0)
(1.96724 0.783758 0)
(1.72964 0.828102 0)
(2.99291 0.0147386 0)
(2.99211 0.0163781 0)
(2.99096 0.0184845 0)
(2.98981 0.0208849 0)
(2.9882 0.0240619 0)
(2.98743 0.0256096 0)
(2.98519 0.0309681 0)
(2.98951 0.0383698 0)
(2.25402 0.621737 0)
(1.72755 0.834329 0)
(2.99495 0.0104181 0)
(2.99428 0.0119159 0)
(2.9937 0.0128814 0)
(2.9923 0.0162078 0)
(2.99168 0.0169971 0)
(2.98953 0.0223197 0)
(2.98872 0.0233527 0)
(2.98494 0.030746 0)
(2.81143 0.2771 0)
(1.78998 0.809408 0)
(3 1.1895e-14 0)
(3 -7.20446e-14 0)
(3 1.00758e-13 0)
(3 2.29231e-14 0)
(3 -8.76285e-14 0)
(3 9.12791e-13 0)
(3 -2.20484e-10 0)
(3 -1.14842e-08 0)
(3.00009 -4.53303e-06 0)
(2.00952 0.0513381 0)
(3 -3.58907e-14 0)
(3 -3.79746e-14 0)
(3 -3.31529e-14 0)
(3 2.09052e-14 0)
(3 -2.69922e-14 0)
(3 4.08402e-12 0)
(3 -5.68623e-10 0)
(3 -2.03153e-08 0)
(3.00008 -9.92781e-06 0)
(2.07265 0.179804 0)
(3 -7.71784e-14 0)
(3 3.03148e-14 0)
(3 -4.36763e-14 0)
(3 7.66103e-14 0)
(3 -7.86445e-14 0)
(3 7.05969e-12 0)
(3 -8.03485e-10 0)
(3 -2.04585e-08 0)
(3.00007 -9.20474e-06 0)
(2.23728 0.269194 0)
(3 -1.49523e-14 0)
(3 3.56994e-15 0)
(3 -6.40533e-14 0)
(3 -2.26059e-14 0)
(3 -2.36043e-13 0)
(3 7.06167e-12 0)
(3 -8.9574e-10 0)
(3 -1.43837e-08 0)
(3.00006 -1.50683e-05 0)
(2.47003 0.29462 0)
(3 4.79125e-14 0)
(3 -5.20147e-14 0)
(3 -2.03361e-14 0)
(3 -1.27468e-13 0)
(3 -3.47414e-13 0)
(3 6.49765e-12 0)
(3 -9.46318e-10 0)
(3 -5.09612e-09 0)
(3.00005 -1.61809e-05 0)
(2.65147 0.274115 0)
(3 6.31357e-14 0)
(3 -7.4171e-14 0)
(3 -5.70202e-14 0)
(3 3.19733e-16 0)
(3 -1.23815e-13 0)
(3 6.42746e-12 0)
(3 -7.1856e-10 0)
(3 1.90282e-08 0)
(3.00004 -1.83847e-05 0)
(2.74233 0.232903 0)
(3 7.97721e-14 0)
(3 -5.08716e-14 0)
(3 -1.31918e-13 0)
(3 -1.60854e-13 0)
(3 -6.77269e-14 0)
(3 6.40792e-12 0)
(3 -4.893e-10 0)
(3 4.18649e-08 0)
(3.00004 -1.92573e-05 0)
(2.80936 0.197304 0)
(3 3.90853e-14 0)
(3 8.38986e-14 0)
(3 -1.81034e-13 0)
(3 -1.4405e-13 0)
(3 -1.73719e-13 0)
(3 4.69218e-12 0)
(3 -6.74907e-10 0)
(3 6.11032e-08 0)
(3.00004 -2.01401e-05 0)
(2.8602 0.161686 0)
(3 2.16669e-14 0)
(3 1.21526e-13 0)
(3 -5.42311e-14 0)
(3 1.21113e-13 0)
(3 -4.45563e-14 0)
(3 1.51025e-12 0)
(3 -8.61117e-10 0)
(3 7.88225e-08 0)
(3.00003 -2.07762e-05 0)
(2.88853 0.136881 0)
(3 5.66255e-14 0)
(3 6.26727e-14 0)
(3 1.18494e-13 0)
(3 1.07414e-13 0)
(3 1.7666e-13 0)
(3 -4.96067e-12 0)
(3 -9.91407e-10 0)
(3 1.04034e-07 0)
(3.00003 -2.10476e-05 0)
(2.92646 0.0969088 0)
(3 2.25554e-14 0)
(3 -9.47236e-15 0)
(3 9.14553e-14 0)
(3 -1.09038e-14 0)
(3 1.65818e-13 0)
(3 -9.7581e-12 0)
(3 -1.05489e-09 0)
(3 1.38529e-07 0)
(3.00003 -2.107e-05 0)
(2.94402 0.0844929 0)
(3 8.83672e-14 0)
(3 -1.28662e-14 0)
(3 2.18719e-14 0)
(3 4.05618e-14 0)
(3 1.70684e-14 0)
(3 -1.14332e-11 0)
(3 -1.22513e-09 0)
(3 1.70237e-07 0)
(3.00002 -2.09059e-05 0)
(2.95499 0.0702342 0)
(3 1.7422e-14 0)
(3 8.48858e-14 0)
(3 2.65584e-14 0)
(3 6.52106e-14 0)
(3 5.48452e-14 0)
(3 -1.18895e-11 0)
(3 -1.36028e-09 0)
(3 2.04514e-07 0)
(3.00002 -2.06928e-05 0)
(2.97436 0.0439609 0)
(3 -1.78245e-13 0)
(3 -4.40197e-15 0)
(3 -1.47014e-13 0)
(3 -9.3488e-14 0)
(3 7.36548e-14 0)
(3 -9.30713e-12 0)
(3 -1.39485e-09 0)
(3 2.34537e-07 0)
(3.00002 -2.032e-05 0)
(2.98064 0.03973 0)
(3 -6.84452e-14 0)
(3 -1.75049e-13 0)
(3 -2.81705e-13 0)
(3 -1.90918e-13 0)
(3 -1.23395e-13 0)
(3 -7.41166e-12 0)
(3 -1.3619e-09 0)
(3 2.47551e-07 0)
(3.00002 -1.9916e-05 0)
(2.98432 0.0321962 0)
(3 -2.7293e-14 0)
(3 -1.59196e-13 0)
(3 -7.32199e-14 0)
(3 1.90197e-14 0)
(3 -9.79126e-14 0)
(3 -4.48513e-12 0)
(3 -1.37879e-09 0)
(3 2.51223e-07 0)
(3.00002 -1.92721e-05 0)
(2.98929 0.020698 0)
(3 -7.78836e-14 0)
(3 -1.60835e-13 0)
(3 1.60063e-14 0)
(3 1.47944e-13 0)
(3 3.32247e-14 0)
(3 1.41475e-12 0)
(3 -1.21094e-09 0)
(3 2.45153e-07 0)
(3.00002 -1.85624e-05 0)
(2.99272 0.0142483 0)
(3 -1.80135e-13 0)
(3 -5.80832e-14 0)
(3 4.76232e-14 0)
(3 4.32823e-14 0)
(3 -5.49158e-14 0)
(3 4.32524e-12 0)
(3 -9.96453e-10 0)
(3 2.32026e-07 0)
(3.00001 -1.7687e-05 0)
(2.99451 0.011808 0)
(3 -6.17585e-14 0)
(3 4.81985e-14 0)
(3 3.34479e-14 0)
(3 4.33442e-14 0)
(3 5.29926e-15 0)
(3 5.69399e-14 0)
(3 -8.34365e-10 0)
(3 2.12818e-07 0)
(3.00001 -1.66223e-05 0)
(2.99591 0.00861581 0)
(3 5.01738e-14 0)
(3 -6.65893e-14 0)
(3 -2.75156e-15 0)
(3 1.13609e-13 0)
(3 -3.77491e-14 0)
(3 -4.62723e-12 0)
(3 -6.40385e-10 0)
(3 1.98303e-07 0)
(3.00001 -1.55281e-05 0)
(2.99706 0.00613741 0)
(3 -9.63438e-15 0)
(3 -6.12295e-18 0)
(3 -4.97638e-14 0)
(3 8.46535e-14 0)
(3 1.41178e-13 0)
(3 4.21557e-12 0)
(3 6.39081e-10 0)
(3 -2.0274e-07 0)
(3.00001 1.55655e-05 0)
(2.99706 -0.00614269 0)
(3 5.99518e-14 0)
(3 2.11543e-14 0)
(3 -5.82442e-14 0)
(3 -8.96938e-14 0)
(3 -5.05608e-14 0)
(3 -4.52151e-13 0)
(3 8.41093e-10 0)
(3 -2.19648e-07 0)
(3.00001 1.66988e-05 0)
(2.99591 -0.00862282 0)
(3 1.29489e-15 0)
(3 -8.02847e-14 0)
(3 -1.26507e-13 0)
(3 -2.0008e-13 0)
(3 -3.54559e-14 0)
(3 -4.90909e-12 0)
(3 1.0109e-09 0)
(3 -2.38699e-07 0)
(3.00001 1.78486e-05 0)
(2.9945 -0.0118246 0)
(3 -6.12485e-14 0)
(3 -2.10314e-13 0)
(3 -1.14044e-13 0)
(3 -3.03679e-13 0)
(3 3.79878e-14 0)
(3 -2.27211e-12 0)
(3 1.22023e-09 0)
(3 -2.50505e-07 0)
(3.00002 1.86606e-05 0)
(2.99272 -0.014259 0)
(3 -6.06158e-14 0)
(3 -2.037e-13 0)
(3 -2.60098e-14 0)
(3 -1.01528e-13 0)
(3 3.38066e-14 0)
(3 4.38545e-12 0)
(3 1.39307e-09 0)
(3 -2.54699e-07 0)
(3.00002 1.94438e-05 0)
(2.98929 -0.0207042 0)
(3 9.15809e-15 0)
(3 -4.94765e-14 0)
(3 -6.64167e-14 0)
(3 4.34075e-14 0)
(3 -1.66711e-13 0)
(3 7.57032e-12 0)
(3 1.36652e-09 0)
(3 -2.46093e-07 0)
(3.00002 1.99452e-05 0)
(2.9843 -0.0322193 0)
(3 4.81186e-14 0)
(3 -9.20442e-15 0)
(3 -9.09967e-14 0)
(3 -1.49935e-13 0)
(3 -5.54138e-14 0)
(3 1.00957e-11 0)
(3 1.38228e-09 0)
(3 -2.27516e-07 0)
(3.00002 2.04476e-05 0)
(2.98061 -0.0397466 0)
(3 -2.76471e-14 0)
(3 -2.0571e-14 0)
(3 1.11021e-14 0)
(3 8.20485e-14 0)
(3 8.09165e-14 0)
(3 1.30691e-11 0)
(3 1.33016e-09 0)
(3 -1.94548e-07 0)
(3.00002 2.06314e-05 0)
(2.97433 -0.0440072 0)
(3 2.66181e-14 0)
(3 1.04179e-13 0)
(3 1.04485e-13 0)
(3 2.0215e-13 0)
(3 -5.17068e-15 0)
(3 1.26247e-11 0)
(3 1.19173e-09 0)
(3 -1.60843e-07 0)
(3.00002 2.10131e-05 0)
(2.95496 -0.070283 0)
(3 5.79331e-14 0)
(3 1.41713e-13 0)
(3 6.8878e-14 0)
(3 7.70182e-14 0)
(3 -6.8598e-14 0)
(3 1.06247e-11 0)
(3 1.00631e-09 0)
(3 -1.31742e-07 0)
(3.00003 2.09396e-05 0)
(2.94397 -0.0844862 0)
(3 1.27423e-15 0)
(3 8.26891e-14 0)
(3 3.98212e-14 0)
(3 -7.5446e-14 0)
(3 -4.97994e-14 0)
(3 5.76495e-12 0)
(3 9.22457e-10 0)
(3 -9.86713e-08 0)
(3.00003 2.10666e-05 0)
(2.92637 -0.0969631 0)
(3 1.91683e-14 0)
(3 1.33368e-14 0)
(3 2.37502e-14 0)
(3 -1.23652e-13 0)
(3 7.10496e-14 0)
(3 -6.25201e-13 0)
(3 7.55296e-10 0)
(3 -7.20945e-08 0)
(3.00003 2.06821e-05 0)
(2.88846 -0.136909 0)
(3 8.48065e-14 0)
(3 -7.56033e-15 0)
(3 -4.61809e-14 0)
(3 -5.23177e-14 0)
(3 9.41578e-14 0)
(3 -3.63788e-12 0)
(3 6.03845e-10 0)
(3 -5.70371e-08 0)
(3.00004 2.01035e-05 0)
(2.86012 -0.16169 0)
(3 -4.78189e-14 0)
(3 -1.47484e-13 0)
(3 -7.73083e-14 0)
(3 -3.35345e-14 0)
(3 1.04997e-13 0)
(3 -4.90436e-12 0)
(3 4.34579e-10 0)
(3 -3.8449e-08 0)
(3.00004 1.93006e-05 0)
(2.80927 -0.197307 0)
(3 -9.648e-14 0)
(3 2.0775e-15 0)
(3 -3.07818e-14 0)
(3 6.02086e-14 0)
(3 1.85641e-13 0)
(3 -5.9188e-12 0)
(3 7.5567e-10 0)
(3 -1.5017e-08 0)
(3.00004 1.84655e-05 0)
(2.74222 -0.2329 0)
(3 1.03192e-13 0)
(3 4.0326e-14 0)
(3 -1.0343e-14 0)
(3 4.91734e-14 0)
(3 2.03659e-13 0)
(3 -6.51567e-12 0)
(3 9.98344e-10 0)
(3 6.68889e-09 0)
(3.00005 1.62231e-05 0)
(2.65134 -0.274104 0)
(3 1.55258e-14 0)
(3 -9.73231e-14 0)
(3 6.18356e-14 0)
(3 3.96072e-14 0)
(3 2.52351e-13 0)
(3 -8.98822e-12 0)
(3 9.38889e-10 0)
(3 1.30112e-08 0)
(3.00006 1.5088e-05 0)
(2.46989 -0.294575 0)
(3 -1.59263e-14 0)
(3 -7.30413e-14 0)
(3 2.00207e-14 0)
(3 -8.35332e-15 0)
(3 8.17386e-14 0)
(3 -7.27829e-12 0)
(3 8.2434e-10 0)
(3 1.45134e-08 0)
(3.00007 9.18254e-06 0)
(2.23715 -0.269118 0)
(3 -2.94396e-14 0)
(3 9.70115e-14 0)
(3 -4.59973e-14 0)
(3 -1.02064e-13 0)
(3 9.44505e-14 0)
(3 -3.42643e-12 0)
(3 5.47295e-10 0)
(3 1.81928e-08 0)
(3.00008 9.90728e-06 0)
(2.07252 -0.179713 0)
(3 -5.83802e-14 0)
(3 5.89038e-14 0)
(3 1.16789e-13 0)
(3 -9.1945e-14 0)
(3 -9.07478e-14 0)
(3 -1.21664e-12 0)
(3 1.78152e-10 0)
(3 5.41324e-09 0)
(3.00009 4.48262e-06 0)
(2.00943 -0.0512038 0)
(2.99495 -0.0104186 0)
(2.99428 -0.0119256 0)
(2.9937 -0.0128827 0)
(2.9923 -0.0162208 0)
(2.99168 -0.0170074 0)
(2.98952 -0.0223377 0)
(2.98871 -0.0233785 0)
(2.98495 -0.0307606 0)
(2.8134 -0.275606 0)
(1.79137 -0.80923 0)
(2.9929 -0.0147432 0)
(2.9921 -0.0163904 0)
(2.99096 -0.018492 0)
(2.98981 -0.0209066 0)
(2.98819 -0.0240888 0)
(2.98742 -0.0256435 0)
(2.98518 -0.0309909 0)
(2.98939 -0.0384199 0)
(2.25626 -0.620965 0)
(1.72818 -0.834671 0)
(2.99007 -0.0209344 0)
(2.98941 -0.0219569 0)
(2.98764 -0.0257141 0)
(2.98692 -0.0268568 0)
(2.98457 -0.0319436 0)
(2.9831 -0.0337637 0)
(2.9808 -0.0407319 0)
(3.00635 -0.0956235 0)
(1.96864 -0.783649 0)
(1.73024 -0.828313 0)
(2.98533 -0.0293151 0)
(2.98463 -0.0307921 0)
(2.98352 -0.0338375 0)
(2.98243 -0.0356761 0)
(2.98064 -0.0398586 0)
(2.97845 -0.0431321 0)
(2.97441 -0.0534766 0)
(2.6079 -0.461429 0)
(1.75472 -0.899257 0)
(1.73261 -0.839252 0)
(2.98314 -0.032958 0)
(2.98162 -0.036077 0)
(2.98059 -0.0382025 0)
(2.97755 -0.0448224 0)
(2.97578 -0.0478363 0)
(2.97193 -0.0584019 0)
(2.98695 -0.0827607 0)
(2.07837 -0.721648 0)
(1.73026 -0.864426 0)
(1.75298 -0.848811 0)
(2.97753 -0.0439115 0)
(2.97515 -0.0495609 0)
(2.97336 -0.0520347 0)
(2.96923 -0.0611788 0)
(2.96668 -0.0645113 0)
(2.96083 -0.0785058 0)
(2.71923 -0.400433 0)
(1.76078 -0.887144 0)
(1.7183 -0.868921 0)
(1.76455 -0.849687 0)
(2.96899 -0.0607413 0)
(2.96733 -0.063039 0)
(2.96302 -0.0720515 0)
(2.96114 -0.0746531 0)
(2.95703 -0.0841135 0)
(2.95542 -0.110895 0)
(2.03939 -0.725421 0)
(1.71307 -0.876485 0)
(1.72666 -0.870971 0)
(1.7836 -0.849625 0)
(2.94917 -0.0881398 0)
(2.94712 -0.0911398 0)
(2.9449 -0.09726 0)
(2.94216 -0.101552 0)
(2.93902 -0.110491 0)
(2.60877 -0.466774 0)
(1.70755 -0.871118 0)
(1.68616 -0.890376 0)
(1.72523 -0.876881 0)
(1.79818 -0.850618 0)
(2.93955 -0.0949422 0)
(2.93463 -0.105655 0)
(2.93242 -0.109297 0)
(2.92644 -0.122925 0)
(2.89298 -0.179387 0)
(1.95135 -0.778857 0)
(1.66329 -0.885264 0)
(1.69004 -0.885703 0)
(1.73185 -0.879646 0)
(1.80536 -0.855982 0)
(2.92093 -0.117301 0)
(2.9171 -0.12466 0)
(2.91296 -0.134295 0)
(2.90857 -0.1476 0)
(2.32677 -0.608952 0)
(1.66505 -0.878637 0)
(1.6481 -0.879604 0)
(1.68999 -0.873662 0)
(1.73762 -0.867568 0)
(1.81155 -0.842753 0)
(2.87823 -0.172394 0)
(2.87553 -0.174185 0)
(2.87064 -0.185933 0)
(2.75583 -0.31994 0)
(1.80243 -0.827195 0)
(1.61165 -0.880463 0)
(1.63267 -0.878432 0)
(1.68242 -0.862042 0)
(1.72065 -0.846227 0)
(1.79592 -0.81581 0)
(2.85791 -0.174898 0)
(2.85186 -0.18892 0)
(2.83451 -0.22252 0)
(2.01819 -0.748045 0)
(1.59499 -0.878224 0)
(1.59858 -0.876373 0)
(1.62984 -0.859469 0)
(1.66121 -0.834507 0)
(1.68255 -0.805907 0)
(1.75233 -0.771339 0)
(2.8081 -0.226853 0)
(2.79968 -0.246685 0)
(2.39141 -0.607145 0)
(1.61722 -0.870153 0)
(1.5495 -0.865646 0)
(1.57517 -0.844697 0)
(1.58218 -0.824796 0)
(1.59572 -0.79182 0)
(1.60296 -0.746829 0)
(1.67549 -0.716943 0)
(2.71779 -0.312874 0)
(2.58804 -0.464977 0)
(1.74043 -0.857007 0)
(1.48423 -0.851985 0)
(1.49981 -0.826867 0)
(1.49789 -0.792438 0)
(1.47999 -0.757614 0)
(1.48417 -0.710596 0)
(1.48288 -0.665562 0)
(1.58428 -0.64435 0)
(2.43682 -0.508868 0)
(1.84518 -0.779537 0)
(1.37824 -0.846916 0)
(1.38529 -0.800256 0)
(1.37289 -0.746171 0)
(1.35011 -0.699441 0)
(1.32222 -0.666173 0)
(1.32688 -0.624266 0)
(1.34999 -0.593645 0)
(1.47965 -0.602093 0)
(1.8349 -0.684136 0)
(1.30484 -0.774096 0)
(1.24476 -0.714845 0)
(1.219 -0.649604 0)
(1.18793 -0.59564 0)
(1.17387 -0.551043 0)
(1.16599 -0.537601 0)
(1.18384 -0.528027 0)
(1.24897 -0.528882 0)
(1.40159 -0.558805 0)
(1.30222 -0.617807 0)
(1.0658 -0.591193 0)
(1.03774 -0.548626 0)
(0.993416 -0.52721 0)
(0.976454 -0.504567 0)
(0.986364 -0.488712 0)
(1.01541 -0.490306 0)
(1.06742 -0.503694 0)
(1.16425 -0.52533 0)
(1.3413 -0.555945 0)
(0.985359 -0.437046 0)
(0.846952 -0.426141 0)
(0.856756 -0.416526 0)
(0.860131 -0.408499 0)
(0.87788 -0.413576 0)
(0.906394 -0.425368 0)
(0.951429 -0.446801 0)
(1.01603 -0.479141 0)
(1.12048 -0.522716 0)
(1.30125 -0.55321 0)
(0.780128 -0.346349 0)
(0.716403 -0.395462 0)
(0.757413 -0.417729 0)
(0.786638 -0.442546 0)
(0.823448 -0.456198 0)
(0.864149 -0.467765 0)
(0.915314 -0.485814 0)
(0.985766 -0.518977 0)
(1.09187 -0.56579 0)
(1.27946 -0.617933 0)
(0.740081 -0.234111 0)
(0.711973 -0.323863 0)
(0.780366 -0.379162 0)
(0.805861 -0.426419 0)
(0.832404 -0.452858 0)
(0.864954 -0.467475 0)
(0.911898 -0.488943 0)
(0.981105 -0.516885 0)
(1.08537 -0.562405 0)
(1.28074 -0.615258 0)
(1.84591 -0.752668 0)
(2.06298 -0.594567 0)
(2.29399 -0.343772 0)
(2.39529 -0.100471 0)
(2.35888 0.0919194 0)
(2.30181 0.324093 0)
(2.28655 0.417982 0)
(2.32939 0.481372 0)
(2.25151 0.390202 0)
(2.05931 0.193234 0)
(1.87551 -0.75002 0)
(2.10105 -0.578643 0)
(2.31815 -0.314702 0)
(2.42332 -0.0659947 0)
(2.38615 0.146328 0)
(2.32122 0.362643 0)
(2.28598 0.443332 0)
(2.33245 0.484917 0)
(2.22581 0.325492 0)
(2.04742 0.1641 0)
(1.89594 -0.742072 0)
(2.12337 -0.566279 0)
(2.33278 -0.276357 0)
(2.44524 -0.0199903 0)
(2.39665 0.182123 0)
(2.33622 0.395983 0)
(2.29835 0.480146 0)
(2.32727 0.483756 0)
(2.19058 0.263535 0)
(2.03265 0.138774 0)
(1.92297 -0.735728 0)
(2.1462 -0.548315 0)
(2.32617 -0.247852 0)
(2.43525 0.00991149 0)
(2.41984 0.237691 0)
(2.34943 0.431869 0)
(2.311 0.505487 0)
(2.32127 0.475645 0)
(2.13291 0.198841 0)
(2.01891 0.116654 0)
(1.94143 -0.736394 0)
(2.16214 -0.52692 0)
(2.31 -0.202205 0)
(2.40139 0.0527246 0)
(2.42345 0.269773 0)
(2.35924 0.471327 0)
(2.32494 0.532685 0)
(2.3139 0.452492 0)
(2.11193 0.14572 0)
(2.01674 0.0948397 0)
(1.95451 -0.726864 0)
(2.17362 -0.486424 0)
(2.27401 -0.169655 0)
(2.36064 0.0988026 0)
(2.40812 0.302262 0)
(2.36294 0.512708 0)
(2.33629 0.549805 0)
(2.30379 0.395958 0)
(2.11401 0.102999 0)
(2.0195 0.0794138 0)
(1.96727 -0.710156 0)
(2.17279 -0.439335 0)
(2.23215 -0.120654 0)
(2.32282 0.155866 0)
(2.38334 0.331377 0)
(2.35686 0.558876 0)
(2.35145 0.571219 0)
(2.29316 0.335362 0)
(2.12908 0.0773334 0)
(2.021 0.0700395 0)
(1.96852 -0.695836 0)
(2.16641 -0.381065 0)
(2.18801 -0.0812073 0)
(2.27982 0.189175 0)
(2.36114 0.370235 0)
(2.34949 0.595531 0)
(2.35226 0.57576 0)
(2.25799 0.237555 0)
(2.13836 0.0548753 0)
(2.01702 0.0681663 0)
(1.96301 -0.672036 0)
(2.1484 -0.327502 0)
(2.15732 -0.0296042 0)
(2.24503 0.245323 0)
(2.34291 0.423153 0)
(2.35149 0.647273 0)
(2.33992 0.547257 0)
(2.23019 0.17346 0)
(2.13952 0.0393731 0)
(2.00833 0.0663166 0)
(1.94414 -0.639824 0)
(2.13646 -0.253146 0)
(2.14161 0.00444647 0)
(2.21338 0.268142 0)
(2.31987 0.462187 0)
(2.35103 0.688432 0)
(2.31143 0.451165 0)
(2.19791 0.11427 0)
(2.13779 0.0322904 0)
(2.00073 0.0652087 0)
(1.9148 -0.596892 0)
(2.11903 -0.194065 0)
(2.14609 0.0550366 0)
(2.20391 0.322835 0)
(2.2922 0.532792 0)
(2.34522 0.705855 0)
(2.25854 0.33216 0)
(2.18233 0.0775659 0)
(2.13562 0.0273285 0)
(2.00103 0.062937 0)
(1.88173 -0.543283 0)
(2.12151 -0.115482 0)
(2.16008 0.0945666 0)
(2.20574 0.348838 0)
(2.25487 0.548304 0)
(2.33089 0.638367 0)
(2.20663 0.235457 0)
(2.17899 0.0613858 0)
(2.13553 0.0273672 0)
(2.00531 0.0614053 0)
(1.84779 -0.499816 0)
(2.12753 -0.0532644 0)
(2.20123 0.181718 0)
(2.22031 0.409228 0)
(2.2313 0.565653 0)
(2.29623 0.501109 0)
(2.16646 0.17172 0)
(2.1767 0.0497081 0)
(2.13352 0.0259292 0)
(2.00732 0.0614414 0)
(1.83891 -0.435602 0)
(2.15295 0.0197242 0)
(2.22585 0.232029 0)
(2.22479 0.436953 0)
(2.21991 0.536209 0)
(2.22489 0.368988 0)
(2.128 0.129246 0)
(2.17052 0.0401056 0)
(2.12807 0.0251437 0)
(2.00717 0.0626257 0)
(1.83471 -0.404501 0)
(2.19143 0.0956608 0)
(2.28241 0.347965 0)
(2.23078 0.465551 0)
(2.20108 0.461874 0)
(2.15301 0.277287 0)
(2.0855 0.10018 0)
(2.15287 0.0371807 0)
(2.12439 0.0232652 0)
(2.00557 0.0624397 0)
(1.87503 -0.338831 0)
(2.23716 0.163419 0)
(2.30404 0.39038 0)
(2.25518 0.482127 0)
(2.17063 0.377629 0)
(2.07522 0.208985 0)
(2.04022 0.0833544 0)
(2.12437 0.03187 0)
(2.11704 0.0202294 0)
(2.00421 0.0627037 0)
(1.90811 -0.314099 0)
(2.31583 0.290959 0)
(2.34358 0.482329 0)
(2.26727 0.488448 0)
(2.13112 0.304557 0)
(2.00021 0.159966 0)
(1.99528 0.0765622 0)
(2.08853 0.0288935 0)
(2.10152 0.0210277 0)
(2.00271 0.0611895 0)
(1.99159 -0.219927 0)
(2.39445 0.359456 0)
(2.34273 0.512829 0)
(2.25598 0.470938 0)
(2.08076 0.246848 0)
(1.94185 0.136548 0)
(1.95419 0.0640926 0)
(2.05105 0.0147947 0)
(2.08186 0.0171294 0)
(2.00055 0.0619876 0)
(2.02878 -0.148558 0)
(2.51077 0.530363 0)
(2.34616 0.558865 0)
(2.23387 0.441828 0)
(2.03313 0.208588 0)
(1.91314 0.115128 0)
(1.92354 0.0557062 0)