/*--------------------------------*- C++ -*----------------------------------*\
  =========                 |
  \\      /  F ield         | OpenFOAM: The Open Source CFD Toolbox
   \\    /   O peration     | Website:  https://openfoam.org
    \\  /    A nd           | Version:  8
     \\/     M anipulation  |
\*---------------------------------------------------------------------------*/
FoamFile
{
    version     2.0;
    format      ascii;
    class       volScalarField;
    location    "1.6";
    object      p;
}
// * * * * * * * * * * * * * * * * * * * * * * * * * * * * * * * * * * * * * //

dimensions      [1 -1 -2 0 0 0 0];

internalField   nonuniform List<scalar> 
2600
(
0.911215
0.745989
0.65473
0.668408
0.8033
1.03761
1.20772
1.25719
1.30573
1.31104
0.911401
0.733582
0.63957
0.668908
0.829892
1.06787
1.22407
1.25606
1.30145
1.31201
0.913372
0.732705
0.635347
0.669196
0.842171
1.09166
1.25096
1.27494
1.31115
1.31258
0.909115
0.725752
0.637373
0.676856
0.849309
1.08391
1.2629
1.29126
1.32247
1.31568
0.903648
0.718195
0.638172
0.690484
0.869093
1.08733
1.24774
1.27318
1.30759
1.31961
0.903868
0.709986
0.64006
0.698685
0.881636
1.10271
1.26195
1.2742
1.31025
1.3297
0.904293
0.706685
0.640404
0.699953
0.884588
1.10671
1.26248
1.28022
1.32231
1.33666
0.910851
0.715866
0.638438
0.699661
0.884533
1.11093
1.25781
1.27731
1.31918
1.32638
0.917375
0.724688
0.63844
0.689346
0.88267
1.12362
1.26288
1.27774
1.31497
1.31157
0.923479
0.728349
0.628334
0.675485
0.881743
1.12686
1.25991
1.27561
1.31366
1.3235
0.923366
0.727908
0.627928
0.677446
0.88177
1.12706
1.2606
1.27384
1.31415
1.33488
0.917499
0.724268
0.637564
0.687197
0.881413
1.12351
1.26606
1.27302
1.31697
1.34684
0.911215
0.715876
0.63757
0.70001
0.883476
1.11102
1.25878
1.27554
1.31897
1.33082
0.904713
0.706916
0.640284
0.700319
0.884729
1.10724
1.26112
1.28507
1.31537
1.31961
0.903912
0.710162
0.640534
0.699563
0.882616
1.10323
1.26007
1.27575
1.30814
1.31583
0.903354
0.718277
0.638463
0.690713
0.869174
1.08533
1.24944
1.27101
1.32043
1.32319
0.908745
0.726009
0.637417
0.67616
0.847591
1.08343
1.26706
1.28743
1.3154
1.33384
0.913121
0.733087
0.635479
0.668092
0.841643
1.09375
1.25134
1.27362
1.30073
1.31294
0.911423
0.733692
0.639492
0.668296
0.829768
1.06899
1.22251
1.25737
1.30691
1.30102
0.91096
0.745967
0.655136
0.668073
0.802585
1.03731
1.2075
1.25933
1.31412
1.3054
1.02468
0.757382
0.680985
0.663189
0.771687
1.00131
1.20061
1.26011
1.30641
1.30885
1.14229
0.788122
0.713568
0.666241
0.74433
0.967198
1.19201
1.25525
1.29436
1.30027
1.24985
0.828673
0.73681
0.676007
0.727857
0.933648
1.1774
1.24642
1.28449
1.28865
1.34372
0.886469
0.762968
0.689568
0.718399
0.89363
1.14914
1.23616
1.28057
1.28034
1.42718
0.953695
0.798066
0.708031
0.713074
0.846267
1.11168
1.2284
1.2811
1.27561
1.49841
1.02079
0.835984
0.732339
0.712843
0.804542
1.07091
1.2194
1.27668
1.27734
1.56226
1.088
0.873816
0.763208
0.714203
0.776254
1.02756
1.20638
1.26781
1.27343
1.61761
1.15367
0.913464
0.793552
0.723037
0.758243
0.979166
1.18736
1.25804
1.26476
1.6663
1.21485
0.958506
0.823112
0.735476
0.755205
0.928317
1.16056
1.25093
1.25665
1.7096
1.27058
1.00541
0.855831
0.74932
0.753533
0.880435
1.12926
1.24482
1.25079
1.74748
1.32429
1.05025
0.892458
0.768472
0.755697
0.841719
1.09617
1.23701
1.24662
1.78139
1.37434
1.09589
0.92604
0.795185
0.759444
0.812945
1.0597
1.2264
1.24218
1.8115
1.42061
1.14028
0.960711
0.823569
0.767035
0.794006
1.01926
1.21462
1.23455
1.83851
1.46327
1.1822
0.995457
0.851401
0.777679
0.781837
0.97434
1.20121
1.22595
1.86261
1.50271
1.22236
1.02938
0.881194
0.789339
0.779545
0.930424
1.18545
1.21909
1.88396
1.53896
1.2612
1.06223
0.910836
0.802414
0.779525
0.891539
1.16613
1.21452
1.90283
1.57244
1.29796
1.0943
0.938865
0.819158
0.781775
0.858719
1.14207
1.20917
1.91944
1.60324
1.33233
1.12515
0.96523
0.837038
0.78506
0.831908
1.11288
1.20062
1.93401
1.63061
1.36399
1.15405
0.991123
0.855865
0.790519
0.812868
1.08022
1.19028
1.94714
1.65543
1.39337
1.18172
1.01544
0.876039
0.79797
0.79934
1.04543
1.17864
3.38364
3.22898
3.12733
3.02916
2.93462
2.84504
2.74749
2.63679
2.46764
2.29642
3.16805
3.02623
2.96429
2.8956
2.82825
2.75369
2.66387
2.54837
2.3748
2.1483
3.09749
2.9986
2.94977
2.88641
2.82442
2.75231
2.66261
2.54437
2.36996
2.14502
3.01092
2.94044
2.90176
2.84519
2.78904
2.71727
2.62764
2.50802
2.33752
2.11238
2.94018
2.88856
2.85882
2.80651
2.75281
2.68144
2.59363
2.47516
2.31091
2.08926
2.87539
2.83457
2.80906
2.76185
2.71319
2.64455
2.56017
2.44445
2.28859
2.07339
2.81919
2.78588
2.7633
2.72037
2.67519
2.60888
2.52844
2.41658
2.26985
2.06617
2.76733
2.73899
2.71817
2.67905
2.63703
2.57393
2.49815
2.39121
2.25404
2.06488
2.72027
2.6958
2.67675
2.64102
2.6017
2.54193
2.47069
2.36914
2.24122
2.06691
2.67867
2.65696
2.63922
2.60588
2.56868
2.51247
2.44602
2.35003
2.231
2.07126
2.64474
2.62483
2.60741
2.57524
2.53939
2.48637
2.42433
2.33407
2.22385
2.07781
2.62216
2.59875
2.57887
2.54729
2.51292
2.46317
2.40536
2.32096
2.21879
2.08477
2.5985
2.57336
2.55241
2.52183
2.48867
2.44179
2.38787
2.3095
2.21519
2.0915
2.5754
2.5504
2.52951
2.49977
2.46744
2.42271
2.37202
2.29942
2.21262
2.09824
2.55362
2.52953
2.50917
2.48029
2.44871
2.40568
2.35735
2.29007
2.21045
2.10583
2.53285
2.51074
2.49163
2.46383
2.43304
2.39152
2.3449
2.28198
2.2081
2.11183
2.51477
2.4947
2.4768
2.45009
2.42014
2.37991
2.33449
2.27474
2.20574
2.11693
2.49835
2.48069
2.46431
2.43904
2.41004
2.37107
2.3266
2.26925
2.20399
2.1215
2.48588
2.46949
2.45402
2.43015
2.40228
2.36481
2.32136
2.26599
2.20312
2.12559
2.47698
2.46121
2.44609
2.42334
2.39642
2.36049
2.3181
2.26478
2.20344
2.12971
1.00695
1.02298
1.04248
1.06617
1.11025
1.23036
1.32424
1.43555
2.23653
2.7235
1.00695
1.02298
1.04248
1.06617
1.11026
1.23037
1.32428
1.43527
2.23431
2.71121
1.00695
1.02298
1.04248
1.06617
1.11027
1.23038
1.32435
1.43462
2.23065
2.69395
1.00695
1.02298
1.04248
1.06616
1.11029
1.2304
1.32448
1.43359
2.22563
2.67283
1.00695
1.02298
1.04248
1.06615
1.11031
1.23045
1.32464
1.43208
2.2194
2.65099
1.00695
1.02298
1.04249
1.06614
1.11032
1.23053
1.32481
1.43001
2.21218
2.62889
1.00695
1.02298
1.04249
1.06613
1.11034
1.23067
1.32499
1.42732
2.20408
2.60816
1.00695
1.02297
1.0425
1.06612
1.11036
1.23086
1.32514
1.42395
2.19521
2.58996
1.00695
1.02297
1.0425
1.06611
1.11037
1.2311
1.32529
1.41991
2.1854
2.57494
1.00695
1.02297
1.0425
1.0661
1.11039
1.23137
1.32545
1.41531
2.17442
2.56212
1.00695
1.02297
1.04251
1.06609
1.1104
1.23167
1.32562
1.41008
2.1622
2.55057
1.00695
1.02297
1.04251
1.06608
1.11041
1.23199
1.3258
1.40447
2.14892
2.54049
1.00695
1.02297
1.04252
1.06608
1.11042
1.23233
1.32599
1.39856
2.13473
2.53023
1.00695
1.02297
1.04252
1.06607
1.11044
1.23266
1.32619
1.39266
2.11974
2.52026
1.00696
1.02296
1.04252
1.06606
1.11045
1.23293
1.32644
1.38677
2.10413
2.51058
1.00696
1.02296
1.04253
1.06605
1.11046
1.23309
1.32676
1.38115
2.08807
2.50075
1.00696
1.02296
1.04253
1.06605
1.11048
1.23317
1.32714
1.3758
2.07128
2.49192
1.00696
1.02296
1.04253
1.06604
1.11049
1.2332
1.32757
1.37087
2.05396
2.48254
1.00696
1.02296
1.04253
1.06604
1.1105
1.23322
1.32799
1.36656
2.03572
2.47475
1.00696
1.02296
1.04254
1.06603
1.1105
1.23322
1.32841
1.36292
2.01695
2.46667
1.00696
1.02296
1.04254
1.06603
1.1105
1.23322
1.32841
1.36292
2.01695
2.46667
1.00696
1.02296
1.04253
1.06604
1.1105
1.23322
1.32799
1.36656
2.03572
2.47475
1.00696
1.02296
1.04253
1.06604
1.11049
1.2332
1.32757
1.37087
2.05396
2.48254
1.00696
1.02296
1.04253
1.06605
1.11048
1.23317
1.32714
1.3758
2.07128
2.49192
1.00696
1.02296
1.04253
1.06605
1.11046
1.23309
1.32676
1.38115
2.08807
2.50075
1.00696
1.02296
1.04252
1.06606
1.11045
1.23293
1.32644
1.38677
2.10413
2.51058
1.00695
1.02297
1.04252
1.06607
1.11044
1.23266
1.32619
1.39266
2.11974
2.52026
1.00695
1.02297
1.04252
1.06608
1.11042
1.23233
1.32599
1.39856
2.13473
2.53023
1.00695
1.02297
1.04251
1.06608
1.11041
1.23199
1.3258
1.40447
2.14892
2.54049
1.00695
1.02297
1.04251
1.06609
1.1104
1.23167
1.32562
1.41008
2.1622
2.55057
1.00695
1.02297
1.0425
1.0661
1.11039
1.23137
1.32545
1.41531
2.17442
2.56212
1.00695
1.02297
1.0425
1.06611
1.11037
1.2311
1.32529
1.41991
2.1854
2.57494
1.00695
1.02297
1.0425
1.06612
1.11036
1.23086
1.32514
1.42395
2.19521
2.58996
1.00695
1.02298
1.04249
1.06613
1.11034
1.23067
1.32499
1.42732
2.20408
2.60816
1.00695
1.02298
1.04249
1.06614
1.11032
1.23053
1.32481
1.43001
2.21218
2.62889
1.00695
1.02298
1.04248
1.06615
1.11031
1.23045
1.32464
1.43208
2.2194
2.65099
1.00695
1.02298
1.04248
1.06616
1.11029
1.2304
1.32448
1.43359
2.22563
2.67283
1.00695
1.02298
1.04248
1.06617
1.11027
1.23038
1.32435
1.43462
2.23065
2.69395
1.00695
1.02298
1.04248
1.06617
1.11026
1.23037
1.32428
1.43527
2.23431
2.71121
1.00695
1.02298
1.04248
1.06617
1.11025
1.23036
1.32424
1.43555
2.23653
2.7235
2.47698
2.46121
2.44609
2.42335
2.39642
2.36049
2.31809
2.26478
2.20343
2.12969
2.48589
2.46949
2.45402
2.43016
2.40228
2.36481
2.32135
2.26598
2.20311
2.12558
2.49835
2.48069
2.46431
2.43904
2.41004
2.37107
2.32659
2.26924
2.20398
2.12149
2.51477
2.4947
2.4768
2.45009
2.42014
2.3799
2.33448
2.27473
2.20573
2.11692
2.53285
2.51075
2.49163
2.46383
2.43304
2.39152
2.3449
2.28197
2.20809
2.11182
2.55362
2.52953
2.50917
2.48029
2.44871
2.40568
2.35735
2.29006
2.21044
2.10583
2.5754
2.5504
2.52951
2.49977
2.46743
2.42271
2.37201
2.29942
2.21261
2.09824
2.5985
2.57336
2.55241
2.52183
2.48867
2.44179
2.38787
2.30949
2.21519
2.0915
2.62216
2.59875
2.57887
2.54729
2.51291
2.46316
2.40535
2.32096
2.21879
2.08476
2.64474
2.62483
2.60741
2.57524
2.53939
2.48637
2.42432
2.33406
2.22386
2.07779
2.67867
2.65696
2.63922
2.60587
2.56868
2.51247
2.44602
2.35003
2.231
2.07125
2.72027
2.6958
2.67675
2.64102
2.6017
2.54193
2.47069
2.36914
2.24121
2.06691
2.76733
2.73899
2.71817
2.67905
2.63703
2.57392
2.49814
2.39121
2.25402
2.06489
2.81919
2.78588
2.7633
2.72037
2.67519
2.60888
2.52844
2.41658
2.26984
2.06619
2.87539
2.83457
2.80906
2.76185
2.71319
2.64455
2.56017
2.44445
2.28858
2.07344
2.94018
2.88856
2.85882
2.80651
2.75281
2.68143
2.59363
2.47516
2.31091
2.08929
3.01092
2.94044
2.90176
2.84519
2.78903
2.71727
2.62764
2.50801
2.33752
2.11235
3.09749
2.9986
2.94977
2.88641
2.82442
2.7523
2.66261
2.54437
2.36997
2.14497
3.16805
3.02623
2.96429
2.8956
2.82825
2.75369
2.66387
2.54836
2.3748
2.14827
3.38364
3.22898
3.12733
3.02916
2.93462
2.84504
2.74748
2.63679
2.46764
2.29641
1.94713
1.65541
1.39338
1.18178
1.01544
0.876041
0.798014
0.79947
1.04542
1.17854
1.934
1.63058
1.36398
1.15409
0.99116
0.85591
0.790527
0.812924
1.08034
1.19045
1.91943
1.60318
1.33228
1.12518
0.965306
0.837064
0.785077
0.831888
1.11287
1.20105
1.90282
1.57238
1.2979
1.09434
0.938933
0.819259
0.781791
0.858722
1.14137
1.20882
1.88395
1.53891
1.26113
1.06224
0.910944
0.802512
0.779495
0.891653
1.16499
1.21429
1.86261
1.50268
1.22228
1.02934
0.881384
0.789389
0.779485
0.930712
1.18481
1.21948
1.8385
1.4633
1.18209
0.995444
0.851587
0.777833
0.781763
0.97438
1.20195
1.22635
1.81148
1.42065
1.14022
0.960773
0.823731
0.767081
0.793802
1.01858
1.21675
1.23459
1.78134
1.37434
1.09599
0.925907
0.795399
0.759375
0.812517
1.05858
1.22811
1.24167
1.7474
1.32429
1.05027
0.892404
0.768606
0.755729
0.841198
1.09561
1.23645
1.24658
1.70956
1.27056
1.00542
0.855967
0.749312
0.753581
0.880045
1.12978
1.2432
1.25121
1.66635
1.21481
0.958566
0.823242
0.735065
0.755159
0.927763
1.16132
1.25032
1.25713
1.6177
1.15348
0.913351
0.793467
0.723094
0.758068
0.977868
1.18753
1.2605
1.2651
1.56237
1.08759
0.873491
0.763513
0.714819
0.776313
1.02589
1.20634
1.2708
1.27324
1.49855
1.02034
0.835974
0.733172
0.713072
0.80488
1.07006
1.21958
1.27644
1.27759
1.42728
0.953821
0.798401
0.708125
0.713251
0.846508
1.11213
1.22888
1.27665
1.27727
1.34365
0.887323
0.763218
0.688986
0.71823
0.893279
1.14955
1.23708
1.27974
1.2809
1.24956
0.8294
0.736956
0.675654
0.727715
0.93342
1.17623
1.24763
1.28719
1.28746
1.1419
0.788002
0.713375
0.666459
0.744899
0.968127
1.18944
1.25696
1.29902
1.29592
1.0245
0.757073
0.680081
0.663617
0.772586
1.00281
1.19879
1.26148
1.30709
1.30528
2.15497
2.02122
1.84834
1.67097
1.48068
1.28408
1.10241
0.934823
0.690746
0.617587
2.15365
2.02036
1.84628
1.66807
1.47733
1.28095
1.10002
0.931738
0.690304
0.620387
2.15203
2.01823
1.84376
1.66335
1.47186
1.27575
1.09572
0.92632
0.689543
0.622798
2.14939
2.01394
1.83968
1.65681
1.46433
1.26857
1.08957
0.918292
0.6884
0.627143
2.14621
2.00838
1.83365
1.64819
1.45464
1.25945
1.08176
0.907997
0.68803
0.633926
2.14209
2.00141
1.82554
1.63706
1.44231
1.24788
1.07095
0.894622
0.685924
0.64342
2.13701
1.99286
1.81496
1.62378
1.4279
1.23437
1.05788
0.879198
0.68283
0.657084
2.13064
1.98293
1.802
1.60781
1.41101
1.21868
1.04265
0.861323
0.681772
0.676411
2.12333
1.971
1.78643
1.58938
1.39193
1.20103
1.02466
0.842472
0.676938
0.703139
2.11519
1.95717
1.768
1.56858
1.37085
1.18134
1.00466
0.825283
0.672296
0.737132
2.10638
1.94132
1.74739
1.5455
1.34777
1.1607
0.983483
0.809452
0.671838
0.776352
2.09687
1.92375
1.72455
1.52006
1.32324
1.13851
0.96155
0.798735
0.675573
0.821466
2.08636
1.90364
1.69899
1.49261
1.29666
1.11546
0.940238
0.792439
0.687061
0.870158
2.07427
1.88102
1.67073
1.46242
1.26825
1.09179
0.918916
0.790956
0.707577
0.918453
2.06079
1.8558
1.63983
1.42997
1.23847
1.06575
0.898354
0.792061
0.737911
0.964362
2.04642
1.82989
1.60654
1.39478
1.20631
1.0385
0.879056
0.79465
0.773111
1.00764
2.02993
1.8002
1.56965
1.35665
1.17197
1.00954
0.86064
0.795579
0.811301
1.04912
2.01071
1.76731
1.52928
1.31589
1.13528
0.978161
0.842878
0.793584
0.861004
1.0895
1.989
1.72978
1.48478
1.27053
1.09516
0.943413
0.827378
0.790827
0.922212
1.12586
1.96522
1.6889
1.43484
1.22115
1.05099
0.905671
0.810475
0.793371
0.992265
1.15872
1.96524
1.6889
1.43483
1.22117
1.05099
0.90567
0.810479
0.793278
0.992377
1.15868
1.98901
1.72979
1.48481
1.27057
1.09516
0.943426
0.827339
0.790776
0.922091
1.12596
2.01073
1.76733
1.52931
1.31591
1.13527
0.978178
0.842885
0.793579
0.860839
1.0893
2.02994
1.80022
1.56967
1.35666
1.17199
1.00956
0.860657
0.795594
0.811254
1.04911
2.04643
1.82991
1.60655
1.39479
1.20633
1.03853
0.8791
0.794659
0.773078
1.00769
2.0608
1.85582
1.63985
1.42999
1.23849
1.06579
0.898385
0.792055
0.737856
0.964417
2.07427
1.88103
1.67074
1.46244
1.26828
1.09183
0.918927
0.790944
0.707537
0.918444
2.08636
1.90365
1.69901
1.49263
1.29669
1.11548
0.940251
0.792432
0.687042
0.870141
2.09687
1.92376
1.72457
1.52007
1.32326
1.13852
0.961553
0.798732
0.67557
0.821444
2.10638
1.94133
1.7474
1.54551
1.34778
1.16071
0.983499
0.80946
0.671841
0.776309
2.1152
1.95717
1.76801
1.56859
1.37086
1.18135
1.00468
0.825304
0.672305
0.737071
2.12333
1.971
1.78643
1.58939
1.39194
1.20104
1.02468
0.842487
0.676938
0.70307
2.13064
1.98293
1.802
1.60782
1.41102
1.21869
1.04267
0.861336
0.681754
0.676344
2.13701
1.99287
1.81497
1.62379
1.42791
1.23438
1.05788
0.879204
0.682816
0.657032
2.14209
2.00142
1.82554
1.63706
1.44231
1.24788
1.07095
0.894625
0.685916
0.643392
2.14621
2.00839
1.83365
1.6482
1.45464
1.25945
1.08176
0.907997
0.688038
0.633918
2.14939
2.01394
1.83969
1.65682
1.46434
1.26857
1.08957
0.918295
0.688412
0.627144
2.15203
2.01823
1.84376
1.66335
1.47186
1.27575
1.09572
0.926324
0.689552
0.622801
2.15365
2.02036
1.84628
1.66807
1.47733
1.28096
1.10003
0.931743
0.690305
0.620395
2.15497
2.02121
1.84834
1.67097
1.48068
1.28408
1.10242
0.934828
0.690741
0.617586
2.47161
2.45412
2.43871
2.41667
2.39037
2.35591
2.31511
2.26403
2.20504
2.13558
2.46601
2.44612
2.43008
2.40796
2.38258
2.35065
2.31305
2.26613
2.21146
2.14737
2.45209
2.43469
2.42026
2.39961
2.37588
2.34639
2.31176
2.26897
2.21849
2.15869
2.44478
2.4278
2.41353
2.39384
2.3715
2.3439
2.31141
2.27211
2.2257
2.16941
2.44185
2.42457
2.41198
2.3939
2.372
2.34464
2.31267
2.2751
2.23095
2.1771
2.43752
2.42138
2.40912
2.39095
2.36959
2.34368
2.31309
2.2774
2.23549
2.18486
2.44275
2.4241
2.40869
2.38861
2.36661
2.34149
2.31216
2.27839
2.23805
2.19054
2.44572
2.42452
2.4076
2.38783
2.36624
2.34188
2.31321
2.28035
2.24107
2.19614
2.44167
2.42072
2.40471
2.38567
2.36419
2.34018
2.31205
2.28009
2.24295
2.20089
2.43641
2.41669
2.40157
2.38307
2.36213
2.33868
2.31147
2.28078
2.2457
2.20578
2.43454
2.41477
2.40019
2.3821
2.36171
2.33872
2.3121
2.28238
2.24858
2.21034
2.43388
2.41337
2.39871
2.38045
2.36046
2.33793
2.31246
2.284
2.25141
2.21476
2.4332
2.41204
2.39719
2.37887
2.35917
2.33723
2.31278
2.28523
2.25396
2.21878
2.43338
2.4114
2.3964
2.37812
2.35878
2.33731
2.3136
2.28675
2.25668
2.22278
2.43384
2.4114
2.39626
2.37803
2.35888
2.33764
2.31425
2.2881
2.25898
2.22599
2.43452
2.41223
2.39706
2.37892
2.35981
2.33861
2.31532
2.28958
2.261
2.22851
2.43521
2.41356
2.39848
2.38055
2.36152
2.34034
2.31703
2.2913
2.26283
2.23051
2.43589
2.41511
2.40032
2.3827
2.36385
2.34278
2.31944
2.29354
2.26491
2.23242
2.4361
2.41616
2.40183
2.38456
2.36591
2.3449
2.32149
2.29535
2.2664
2.23364
2.43598
2.41653
2.40277
2.38584
2.36747
2.34661
2.3233
2.29709
2.26796
2.23497
1.00696
1.02296
1.04254
1.06603
1.1105
1.23324
1.32888
1.35925
1.99285
2.45708
1.00696
1.02296
1.04254
1.06603
1.1105
1.23323
1.3294
1.3558
1.96278
2.45114
1.00696
1.02296
1.04254
1.06603
1.11049
1.23319
1.32986
1.35321
1.9337
2.44645
1.00696
1.02296
1.04254
1.06604
1.11047
1.23311
1.33032
1.35131
1.90548
2.44044
1.00696
1.02296
1.04253
1.06605
1.11045
1.23301
1.33082
1.35011
1.8782
2.4359
1.00696
1.02296
1.04253
1.06606
1.11042
1.23289
1.33133
1.3493
1.85196
2.4323
1.00695
1.02296
1.04252
1.06607
1.11039
1.23275
1.33187
1.34868
1.8275
2.42796
1.00695
1.02296
1.04252
1.06608
1.11037
1.2326
1.33241
1.34818
1.80462
2.42434
1.00695
1.02297
1.04251
1.06609
1.11036
1.23244
1.33292
1.34779
1.78451
2.42219
1.00695
1.02297
1.04251
1.0661
1.11034
1.23228
1.33339
1.34747
1.76709
2.41828
1.00695
1.02297
1.04251
1.0661
1.11034
1.23213
1.33381
1.34721
1.75177
2.41423
1.00695
1.02297
1.0425
1.06611
1.11034
1.23198
1.33416
1.34701
1.73845
2.40949
1.00695
1.02297
1.0425
1.06612
1.11034
1.23184
1.33446
1.34685
1.72729
2.40388
1.00695
1.02297
1.0425
1.06612
1.11035
1.23171
1.3347
1.34673
1.71797
2.39822
1.00695
1.02298
1.0425
1.06612
1.11036
1.2316
1.33487
1.34665
1.71033
2.39277
1.00695
1.02298
1.04249
1.06612
1.11037
1.23151
1.335
1.34659
1.70383
2.38819
1.00695
1.02298
1.04249
1.06612
1.11039
1.23143
1.33509
1.34656
1.69868
2.38459
1.00695
1.02298
1.04249
1.06612
1.1104
1.23138
1.33515
1.34656
1.6949
2.38214
1.00695
1.02298
1.04249
1.06612
1.11041
1.23134
1.33518
1.34656
1.69236
2.38045
1.00695
1.02298
1.04249
1.06612
1.11041
1.23132
1.3352
1.34656
1.69112
2.37956
1.00695
1.02298
1.04249
1.06612
1.11041
1.23132
1.3352
1.34656
1.69112
2.37956
1.00695
1.02298
1.04249
1.06612
1.11041
1.23134
1.33518
1.34656
1.69236
2.38045
1.00695
1.02298
1.04249
1.06612
1.1104
1.23138
1.33515
1.34656
1.6949
2.38214
1.00695
1.02298
1.04249
1.06612
1.11039
1.23143
1.33509
1.34656
1.69868
2.38459
1.00695
1.02298
1.04249
1.06612
1.11037
1.23151
1.335
1.34659
1.70383
2.38819
1.00695
1.02298
1.0425
1.06612
1.11036
1.2316
1.33487
1.34665
1.71033
2.39277
1.00695
1.02297
1.0425
1.06612
1.11035
1.23171
1.3347
1.34673
1.71796
2.39822
1.00695
1.02297
1.0425
1.06612
1.11034
1.23184
1.33446
1.34685
1.72729
2.40388
1.00695
1.02297
1.0425
1.06611
1.11034
1.23198
1.33416
1.34701
1.73845
2.40949
1.00695
1.02297
1.04251
1.0661
1.11034
1.23213
1.33381
1.34721
1.75177
2.41423
1.00695
1.02297
1.04251
1.0661
1.11034
1.23228
1.33339
1.34747
1.76709
2.41828
1.00695
1.02297
1.04251
1.06609
1.11036
1.23244
1.33292
1.34779
1.78451
2.42219
1.00695
1.02296
1.04252
1.06608
1.11037
1.2326
1.33241
1.34818
1.80462
2.42434
1.00695
1.02296
1.04252
1.06607
1.11039
1.23275
1.33187
1.34868
1.8275
2.42797
1.00696
1.02296
1.04253
1.06606
1.11042
1.23289
1.33133
1.3493
1.85196
2.4323
1.00696
1.02296
1.04253
1.06605
1.11045
1.23301
1.33082
1.35011
1.8782
2.4359
1.00696
1.02296
1.04254
1.06604
1.11047
1.23311
1.33032
1.35131
1.90548
2.44044
1.00696
1.02296
1.04254
1.06603
1.11049
1.23319
1.32986
1.35321
1.9337
2.44645
1.00696
1.02296
1.04254
1.06603
1.1105
1.23323
1.3294
1.3558
1.96278
2.45114
1.00696
1.02296
1.04254
1.06603
1.1105
1.23324
1.32888
1.35925
1.99285
2.45708
2.43598
2.41653
2.40277
2.38584
2.36746
2.3466
2.3233
2.29709
2.26796
2.23497
2.4361
2.41616
2.40183
2.38456
2.36591
2.3449
2.32149
2.29535
2.2664
2.23364
2.43589
2.41511
2.40032
2.3827
2.36385
2.34277
2.31944
2.29354
2.26491
2.23242
2.4352
2.41356
2.39848
2.38055
2.36152
2.34034
2.31703
2.2913
2.26283
2.23051
2.43452
2.41223
2.39706
2.37892
2.35981
2.33861
2.31532
2.28958
2.261
2.22851
2.43384
2.4114
2.39626
2.37803
2.35888
2.33764
2.31425
2.2881
2.25898
2.22599
2.43337
2.4114
2.3964
2.37812
2.35878
2.33731
2.3136
2.28676
2.25668
2.22278
2.4332
2.41204
2.39719
2.37887
2.35917
2.33723
2.31278
2.28523
2.25396
2.21878
2.43388
2.41337
2.39871
2.38045
2.36047
2.33793
2.31246
2.284
2.25141
2.21475
2.43454
2.41477
2.40019
2.3821
2.36171
2.33872
2.3121
2.28238
2.24858
2.21034
2.43641
2.41669
2.40157
2.38307
2.36213
2.33868
2.31147
2.28078
2.24569
2.20578
2.44167
2.42072
2.40471
2.38567
2.36419
2.34018
2.31205
2.28008
2.24295
2.20089
2.44572
2.42452
2.4076
2.38783
2.36624
2.34188
2.31321
2.28035
2.24107
2.19614
2.44275
2.4241
2.40869
2.38861
2.36661
2.34149
2.31216
2.27839
2.23805
2.19054
2.43752
2.42138
2.40912
2.39095
2.36958
2.34368
2.3131
2.27741
2.23549
2.18485
2.44184
2.42457
2.41198
2.3939
2.372
2.34464
2.31267
2.27511
2.23095
2.17709
2.44478
2.4278
2.41353
2.39384
2.3715
2.3439
2.31141
2.27211
2.2257
2.1694
2.45209
2.43469
2.42026
2.39961
2.37588
2.34639
2.31176
2.26897
2.21848
2.15868
2.46601
2.44612
2.43008
2.40796
2.38258
2.35065
2.31305
2.26613
2.21145
2.14736
2.47161
2.45412
2.43871
2.41668
2.39037
2.35591
2.31511
2.26402
2.20503
2.13557
)
;

boundaryField
{
    inlet
    {
        type            fixedValue;
        value           uniform 1;
    }
    outlet
    {
        type            zeroGradient;
    }
    triangle
    {
        type            zeroGradient;
    }
    top
    {
        type            symmetryPlane;
    }
    bottom
    {
        type            symmetryPlane;
    }
    defaultFaces
    {
        type            empty;
    }
}


// ************************************************************************* //
