/*--------------------------------*- C++ -*----------------------------------*\
  =========                 |
  \\      /  F ield         | OpenFOAM: The Open Source CFD Toolbox
   \\    /   O peration     | Website:  https://openfoam.org
    \\  /    A nd           | Version:  8
     \\/     M anipulation  |
\*---------------------------------------------------------------------------*/
FoamFile
{
    version     2.0;
    format      ascii;
    class       volScalarField;
    location    "1.6";
    object      rho;
}
// * * * * * * * * * * * * * * * * * * * * * * * * * * * * * * * * * * * * * //

dimensions      [1 -3 0 0 0 0 0];

internalField   nonuniform List<scalar> 
2600
(
1.01994
0.894886
0.862695
0.960196
1.13881
1.40142
1.57386
1.61946
1.66378
1.6635
0.99861
0.864005
0.819568
0.929859
1.1401
1.41132
1.57592
1.60675
1.65137
1.65637
0.998213
0.858347
0.798793
0.900015
1.1216
1.40602
1.57758
1.60186
1.64225
1.64129
0.995427
0.851038
0.790816
0.878515
1.09269
1.36128
1.55041
1.57743
1.61894
1.61692
0.99163
0.842572
0.782314
0.86141
1.06715
1.30901
1.4791
1.50402
1.55507
1.58071
0.991323
0.831752
0.774164
0.839323
1.0279
1.25402
1.41722
1.43661
1.49729
1.54258
0.990632
0.824435
0.767251
0.818821
0.988587
1.19883
1.35333
1.38574
1.45664
1.50703
0.995203
0.829602
0.762372
0.809577
0.970918
1.1737
1.31624
1.35589
1.42602
1.47212
1.00018
0.836248
0.761578
0.80019
0.96867
1.17869
1.31174
1.34991
1.41323
1.44777
1.00486
0.839202
0.752925
0.789482
0.969237
1.18223
1.30914
1.34821
1.41031
1.4534
1.00477
0.838834
0.752541
0.79115
0.969255
1.18238
1.30966
1.34692
1.41077
1.4632
1.0003
0.835893
0.760743
0.798295
0.967647
1.17862
1.31416
1.34643
1.41481
1.47609
0.99553
0.829601
0.76155
0.809703
0.97014
1.17394
1.31692
1.3543
1.42544
1.47571
0.991016
0.824597
0.767065
0.819058
0.988929
1.1998
1.35192
1.38861
1.45029
1.49477
0.99141
0.831848
0.774435
0.840059
1.02903
1.25532
1.41507
1.43673
1.49477
1.53347
0.991441
0.842604
0.782476
0.861691
1.06756
1.30794
1.47985
1.50122
1.56542
1.58594
0.995155
0.851222
0.790814
0.877985
1.09131
1.36114
1.55312
1.57359
1.61321
1.63379
0.998029
0.858619
0.798838
0.899029
1.12112
1.40798
1.57707
1.60059
1.63346
1.6413
0.998658
0.864071
0.819395
0.929297
1.14003
1.41243
1.57385
1.60812
1.65634
1.64573
1.01973
0.894882
0.862983
0.95992
1.13811
1.40117
1.57321
1.62149
1.67189
1.65755
1.20899
0.954559
0.930925
0.984482
1.12519
1.37711
1.57481
1.6293
1.67009
1.66561
1.41092
1.04838
1.01059
1.0114
1.10898
1.34976
1.5707
1.62925
1.66209
1.66075
1.56712
1.13903
1.0692
1.03506
1.09909
1.31916
1.55684
1.62256
1.65456
1.65127
1.6828
1.2292
1.11731
1.05809
1.093
1.27946
1.52832
1.61293
1.65205
1.64417
1.77637
1.31886
1.16932
1.0832
1.08871
1.23067
1.49169
1.6057
1.65366
1.64024
1.84848
1.39904
1.21819
1.11134
1.08858
1.18721
1.45354
1.59804
1.65124
1.64229
1.90852
1.47088
1.25984
1.14392
1.08973
1.15778
1.41451
1.58762
1.64538
1.63966
1.95891
1.5362
1.29973
1.17524
1.09883
1.14001
1.37107
1.57199
1.63923
1.63296
2.00344
1.59504
1.34416
1.20598
1.11199
1.13874
1.32387
1.54823
1.6356
1.6267
2.0443
1.6482
1.39061
1.24031
1.12693
1.1401
1.27725
1.51878
1.63265
1.62232
2.0817
1.69983
1.43551
1.27895
1.14887
1.14521
1.23821
1.48671
1.62778
1.61919
2.1162
1.74868
1.48174
1.31472
1.18007
1.15076
1.20867
1.45147
1.61986
1.61538
2.14686
1.79451
1.52724
1.35184
1.21278
1.15985
1.18869
1.4128
1.61017
1.60819
2.17348
1.83702
1.57066
1.38911
1.2442
1.17175
1.17523
1.36983
1.59768
1.59984
2.19588
1.87612
1.61233
1.42532
1.27695
1.18421
1.17227
1.32741
1.5811
1.59308
2.2142
1.91146
1.65224
1.45985
1.30868
1.19739
1.17213
1.28863
1.55933
1.58831
2.22906
1.9431
1.68916
1.49266
1.33781
1.21421
1.17423
1.25467
1.53206
1.58251
2.24099
1.97083
1.72232
1.52307
1.36435
1.23212
1.17735
1.22605
1.50018
1.57342
2.25042
1.99375
1.75118
1.55042
1.38975
1.25097
1.18284
1.20506
1.46634
1.56267
2.25811
2.01279
1.77638
1.57579
1.41322
1.27127
1.19042
1.1896
1.43225
1.55122
3.26101
3.15157
3.07784
3.00738
2.94032
2.87689
2.8071
2.72788
2.60574
2.44895
3.11931
3.01804
2.97239
2.9224
2.87364
2.8195
2.75373
2.66882
2.53987
2.35374
3.08234
3.01304
2.97906
2.93362
2.88799
2.83434
2.76731
2.67893
2.54715
2.37132
3.03038
2.98067
2.9543
2.91423
2.87317
2.81975
2.75228
2.66176
2.5311
2.35532
2.98652
2.94941
2.92857
2.89114
2.85211
2.79933
2.7334
2.6434
2.51661
2.3422
2.94458
2.91483
2.89628
2.86173
2.82594
2.77502
2.71174
2.62383
2.50321
2.33325
2.9071
2.88252
2.86576
2.83393
2.80036
2.75091
2.69046
2.60539
2.49165
2.33072
2.8718
2.85082
2.83555
2.80673
2.77562
2.7285
2.67136
2.58972
2.48306
2.33352
2.84101
2.82345
2.81013
2.78427
2.75537
2.71073
2.65675
2.5787
2.47875
2.34061
2.81951
2.80409
2.79148
2.76703
2.73947
2.69725
2.64656
2.57216
2.47829
2.35118
2.80821
2.79182
2.77796
2.75352
2.72668
2.68667
2.63914
2.56878
2.48111
2.36426
2.79233
2.7754
2.76104
2.73783
2.71256
2.67538
2.63142
2.56582
2.48447
2.3766
2.76987
2.75284
2.73913
2.71797
2.69461
2.66042
2.62018
2.55997
2.4854
2.38592
2.74719
2.73046
2.71719
2.69717
2.67495
2.64288
2.60571
2.55073
2.48333
2.39248
2.72613
2.71001
2.697
2.67751
2.65577
2.62506
2.59002
2.5398
2.47923
2.39746
2.70621
2.69144
2.67917
2.66027
2.63897
2.60936
2.57578
2.52932
2.4738
2.39944
2.68853
2.67515
2.66369
2.64552
2.62482
2.59617
2.56347
2.51953
2.46805
2.40012
2.67266
2.66099
2.65061
2.63352
2.61354
2.58584
2.55382
2.51167
2.4631
2.40042
2.66124
2.65033
2.64039
2.62412
2.60485
2.57823
2.54692
2.50622
2.45944
2.40068
2.65405
2.64285
2.63266
2.61686
2.59795
2.57224
2.54172
2.50272
2.45725
2.40143
1.40695
1.42292
1.44224
1.46559
1.5087
1.62316
1.71091
1.8109
2.48438
2.81997
1.40695
1.42292
1.44224
1.46558
1.50871
1.62317
1.71095
1.81062
2.48235
2.81332
1.40695
1.42292
1.44224
1.46558
1.50872
1.62318
1.71102
1.80997
2.47855
2.80543
1.40695
1.42291
1.44224
1.46557
1.50873
1.6232
1.71115
1.80898
2.47319
2.79496
1.40695
1.42291
1.44224
1.46557
1.50875
1.62324
1.7113
1.80756
2.46671
2.78288
1.40695
1.42291
1.44225
1.46556
1.50877
1.62332
1.71146
1.80567
2.45958
2.76933
1.40695
1.42291
1.44225
1.46555
1.50879
1.62344
1.71163
1.80325
2.45204
2.75599
1.40695
1.42291
1.44225
1.46554
1.5088
1.62362
1.71177
1.80026
2.44409
2.74422
1.40695
1.42291
1.44226
1.46553
1.50882
1.62385
1.71189
1.79669
2.43535
2.73392
1.40695
1.42291
1.44226
1.46552
1.50883
1.62411
1.71202
1.79265
2.42532
2.72274
1.40695
1.42291
1.44227
1.46551
1.50885
1.6244
1.71216
1.78806
2.41399
2.70976
1.40695
1.4229
1.44227
1.4655
1.50886
1.62471
1.71229
1.78314
2.40233
2.69817
1.40695
1.4229
1.44227
1.46549
1.50887
1.62505
1.71242
1.77794
2.39074
2.68733
1.40695
1.4229
1.44228
1.46548
1.50888
1.62539
1.71256
1.77275
2.37926
2.67769
1.40695
1.4229
1.44228
1.46548
1.50889
1.62567
1.71272
1.76754
2.36786
2.66934
1.40695
1.4229
1.44228
1.46547
1.5089
1.62585
1.71294
1.76256
2.35644
2.66155
1.40696
1.4229
1.44229
1.46546
1.50891
1.62595
1.71323
1.75779
2.34446
2.65477
1.40696
1.4229
1.44229
1.46546
1.50892
1.62599
1.71358
1.75336
2.33171
2.64772
1.40696
1.4229
1.44229
1.46545
1.50893
1.62602
1.71395
1.74943
2.31754
2.64235
1.40696
1.42289
1.44229
1.46545
1.50894
1.62603
1.71433
1.74608
2.30224
2.63878
1.40696
1.42289
1.44229
1.46545
1.50894
1.62603
1.71433
1.74608
2.30224
2.63878
1.40696
1.4229
1.44229
1.46545
1.50893
1.62602
1.71395
1.74943
2.31754
2.64235
1.40696
1.4229
1.44229
1.46546
1.50892
1.62599
1.71358
1.75336
2.33171
2.64772
1.40696
1.4229
1.44229
1.46546
1.50891
1.62595
1.71323
1.75779
2.34446
2.65477
1.40695
1.4229
1.44228
1.46547
1.5089
1.62585
1.71294
1.76256
2.35644
2.66155
1.40695
1.4229
1.44228
1.46548
1.50889
1.62567
1.71272
1.76754
2.36786
2.66934
1.40695
1.4229
1.44228
1.46548
1.50888
1.62539
1.71256
1.77275
2.37926
2.67769
1.40695
1.4229
1.44227
1.46549
1.50887
1.62505
1.71242
1.77794
2.39074
2.68733
1.40695
1.4229
1.44227
1.4655
1.50886
1.62471
1.71229
1.78314
2.40233
2.69817
1.40695
1.42291
1.44227
1.46551
1.50885
1.6244
1.71216
1.78806
2.41399
2.70976
1.40695
1.42291
1.44226
1.46552
1.50883
1.62411
1.71202
1.79265
2.42532
2.72274
1.40695
1.42291
1.44226
1.46553
1.50882
1.62385
1.71189
1.79669
2.43535
2.73392
1.40695
1.42291
1.44225
1.46554
1.5088
1.62362
1.71177
1.80026
2.44409
2.74422
1.40695
1.42291
1.44225
1.46555
1.50879
1.62344
1.71163
1.80325
2.45204
2.75599
1.40695
1.42291
1.44225
1.46556
1.50877
1.62332
1.71146
1.80567
2.45958
2.76933
1.40695
1.42291
1.44224
1.46557
1.50875
1.62324
1.7113
1.80756
2.46671
2.78288
1.40695
1.42291
1.44224
1.46557
1.50873
1.6232
1.71115
1.80898
2.47319
2.79496
1.40695
1.42292
1.44224
1.46558
1.50872
1.62318
1.71102
1.80997
2.47855
2.80543
1.40695
1.42292
1.44224
1.46558
1.50871
1.62317
1.71095
1.81062
2.48235
2.81332
1.40695
1.42292
1.44224
1.46559
1.5087
1.62316
1.71091
1.8109
2.48438
2.81997
2.65406
2.64285
2.63266
2.61686
2.59795
2.57224
2.54172
2.50271
2.45724
2.40142
2.66125
2.65033
2.64039
2.62412
2.60485
2.57823
2.54692
2.50622
2.45943
2.40067
2.67266
2.661
2.65061
2.63352
2.61354
2.58584
2.55382
2.51166
2.46309
2.40041
2.68853
2.67516
2.66369
2.64552
2.62482
2.59617
2.56346
2.51952
2.46804
2.40012
2.70621
2.69144
2.67917
2.66027
2.63897
2.60936
2.57577
2.52931
2.47379
2.39943
2.72613
2.71001
2.697
2.67751
2.65577
2.62506
2.59001
2.53979
2.47922
2.39746
2.74719
2.73047
2.71719
2.69717
2.67495
2.64288
2.60571
2.55073
2.48333
2.39248
2.76987
2.75284
2.73913
2.71797
2.69461
2.66042
2.62018
2.55996
2.4854
2.38591
2.79233
2.7754
2.76104
2.73783
2.71256
2.67538
2.63142
2.56581
2.48448
2.37659
2.80821
2.79182
2.77796
2.75352
2.72668
2.68667
2.63914
2.56878
2.48112
2.36425
2.81951
2.80409
2.79148
2.76703
2.73947
2.69725
2.64655
2.57216
2.47829
2.35117
2.84101
2.82345
2.81013
2.78427
2.75537
2.71073
2.65675
2.5787
2.47873
2.3406
2.8718
2.85082
2.83555
2.80673
2.77562
2.7285
2.67136
2.58971
2.48304
2.33352
2.9071
2.88252
2.86576
2.83393
2.80036
2.75091
2.69046
2.60538
2.49164
2.33073
2.94459
2.91483
2.89628
2.86173
2.82594
2.77502
2.71174
2.62383
2.5032
2.33328
2.98652
2.94941
2.92857
2.89114
2.85211
2.79933
2.7334
2.6434
2.5166
2.34222
3.03038
2.98067
2.9543
2.91423
2.87317
2.81975
2.75228
2.66176
2.53109
2.3553
3.08234
3.01304
2.97906
2.93362
2.88799
2.83433
2.76731
2.67892
2.54715
2.37127
3.11931
3.01804
2.97239
2.9224
2.87364
2.8195
2.75372
2.66882
2.53987
2.35371
3.26101
3.15157
3.07784
3.00738
2.94032
2.87689
2.80709
2.72788
2.60574
2.44893
2.25811
2.01278
1.77639
1.57585
1.41322
1.27127
1.19045
1.18975
1.43223
1.55112
2.25042
1.99372
1.75118
1.55046
1.38979
1.25102
1.18284
1.20512
1.46647
1.56281
2.24099
1.97078
1.72228
1.5231
1.36443
1.23215
1.17737
1.22603
1.50019
1.57381
2.22905
1.94305
1.68911
1.49269
1.33788
1.21431
1.17425
1.25468
1.53142
1.58219
2.2142
1.91141
1.65218
1.45986
1.3088
1.19749
1.1721
1.28875
1.55825
1.58813
2.19588
1.87609
1.61226
1.42528
1.27715
1.18427
1.1722
1.32769
1.58048
1.5935
2.17348
1.83705
1.57056
1.3891
1.2444
1.17192
1.17515
1.36985
1.59839
1.60027
2.14684
1.79454
1.52719
1.3519
1.21296
1.1599
1.18847
1.4121
1.61219
1.60827
2.11615
1.74868
1.48183
1.31458
1.18032
1.15068
1.20821
1.45034
1.62146
1.61493
2.08163
1.69982
1.43553
1.2789
1.14903
1.14523
1.23766
1.48611
1.62723
1.61917
2.04426
1.64818
1.39062
1.24045
1.12693
1.14015
1.27685
1.5192
1.63114
1.6227
2.00348
1.59501
1.34422
1.20611
1.11154
1.1387
1.32333
1.54889
1.63505
1.62711
1.95899
1.53602
1.2996
1.17515
1.0989
1.13984
1.36982
1.57212
1.6415
1.63324
1.90862
1.47049
1.2595
1.14425
1.09041
1.15784
1.41294
1.58761
1.64808
1.63959
1.84861
1.3986
1.21819
1.11223
1.08883
1.18756
1.45278
1.59827
1.65084
1.6428
1.77646
1.31897
1.16967
1.08331
1.08888
1.23092
1.49214
1.60623
1.64941
1.64203
1.68274
1.2301
1.1175
1.05742
1.0928
1.2791
1.5287
1.61387
1.65116
1.64494
1.56685
1.13981
1.06927
1.03467
1.09894
1.31891
1.55571
1.62379
1.65695
1.65036
1.41061
1.04824
1.01037
1.01165
1.10964
1.35067
1.56834
1.63079
1.66619
1.65696
1.20888
0.95425
0.930084
0.984886
1.12618
1.37861
1.57335
1.63052
1.67019
1.66283
2.37865
2.28834
2.15659
2.0102
1.84415
1.66466
1.4916
1.32683
1.06626
0.987407
2.37761
2.28766
2.15496
2.00781
1.84128
1.66187
1.48939
1.32377
1.06588
0.990705
2.37639
2.28599
2.15309
2.00409
1.83677
1.6574
1.48557
1.31851
1.06541
0.993632
2.37437
2.28266
2.15008
1.99905
1.83071
1.65136
1.48024
1.3108
1.06481
0.998784
2.37182
2.2783
2.14553
1.99238
1.82292
1.64377
1.47358
1.30093
1.06528
1.0066
2.36825
2.27262
2.13922
1.98354
1.81282
1.63403
1.46415
1.28798
1.06412
1.01725
2.36366
2.26542
2.13074
1.97277
1.80082
1.62247
1.45255
1.27289
1.06185
1.03218
2.35833
2.25726
2.12026
1.95959
1.78648
1.60878
1.43875
1.25517
1.06135
1.053
2.35423
2.24883
2.10808
1.94435
1.77008
1.59309
1.42201
1.23625
1.05602
1.08137
2.35354
2.24176
2.09468
1.92732
1.75181
1.57524
1.40294
1.21877
1.05092
1.11639
2.35798
2.23666
2.08097
1.90868
1.73161
1.55616
1.38226
1.2024
1.05058
1.15562
2.36485
2.23206
2.06639
1.88815
1.7098
1.53515
1.36026
1.19112
1.0548
1.1999
2.36776
2.22368
2.0489
1.86544
1.68559
1.51275
1.33829
1.18403
1.06755
1.24765
2.36287
2.20834
2.02653
1.83907
1.65892
1.48923
1.31571
1.18184
1.09
1.29576
2.35101
2.18541
1.99846
1.80898
1.63015
1.46294
1.29343
1.18265
1.12271
1.34242
2.33554
2.15872
1.96581
1.775
1.59851
1.43522
1.27231
1.18461
1.16016
1.38704
2.31793
2.12842
1.92942
1.73779
1.56456
1.40576
1.25244
1.18461
1.20057
1.4295
2.29977
2.09755
1.89134
1.69865
1.52856
1.37404
1.23397
1.18219
1.25225
1.46958
2.28321
2.06686
1.85231
1.65644
1.48976
1.3391
1.21882
1.17913
1.31399
1.50362
2.26839
2.03692
1.81076
1.61155
1.44743
1.30118
1.20276
1.18214
1.38203
1.53319
2.2684
2.03693
1.81075
1.61157
1.44743
1.30118
1.20276
1.18204
1.38215
1.53314
2.28322
2.06687
1.85233
1.65647
1.48976
1.33912
1.21878
1.17907
1.31387
1.50371
2.29978
2.09757
1.89137
1.69866
1.52856
1.37405
1.23398
1.18218
1.25208
1.46938
2.31794
2.12844
1.92943
1.7378
1.56457
1.40579
1.25245
1.18463
1.20052
1.42949
2.33555
2.15874
1.96583
1.77501
1.59853
1.43525
1.27235
1.18462
1.16012
1.38707
2.35102
2.18543
1.99848
1.809
1.63017
1.46298
1.29346
1.18265
1.12265
1.34247
2.36288
2.20835
2.02655
1.83909
1.65894
1.48926
1.31572
1.18182
1.08996
1.29575
2.36777
2.22369
2.04892
1.86546
1.68561
1.51277
1.3383
1.18402
1.06753
1.24763
2.36485
2.23207
2.0664
1.88816
1.70982
1.53515
1.36026
1.19111
1.0548
1.19988
2.35799
2.23666
2.08098
1.9087
1.73162
1.55617
1.38227
1.20241
1.05059
1.15558
2.35355
2.24176
2.09469
1.92733
1.75181
1.57524
1.40296
1.21879
1.05093
1.11633
2.35423
2.24883
2.10808
1.94436
1.77009
1.5931
1.42203
1.23626
1.05602
1.0813
2.35833
2.25727
2.12026
1.9596
1.78648
1.60879
1.43876
1.25519
1.06134
1.05292
2.36366
2.26543
2.13074
1.97278
1.80082
1.62248
1.45256
1.2729
1.06184
1.03212
2.36825
2.27262
2.13922
1.98355
1.81282
1.63403
1.46415
1.28798
1.06411
1.01721
2.37182
2.2783
2.14553
1.99238
1.82292
1.64377
1.47358
1.30093
1.06529
1.00659
2.37437
2.28266
2.15008
1.99905
1.83072
1.65137
1.48024
1.3108
1.06482
0.998785
2.37639
2.28599
2.15309
2.00409
1.83677
1.6574
1.48557
1.31852
1.06542
0.993635
2.37761
2.28766
2.15496
2.00781
1.84128
1.66187
1.4894
1.32378
1.06588
0.990715
2.37865
2.28834
2.15659
2.0102
1.84415
1.66467
1.49161
1.32683
1.06625
0.987406
2.64237
2.63138
2.62192
2.60683
2.58829
2.56392
2.5353
2.49886
2.4557
2.40308
2.62801
2.61452
2.605
2.59069
2.57422
2.55358
2.52918
2.49728
2.45801
2.40952
2.61683
2.60283
2.59268
2.57915
2.56493
2.5476
2.52663
2.49852
2.46275
2.41777
2.61221
2.5994
2.59053
2.57842
2.56516
2.5487
2.52859
2.50254
2.46964
2.42767
2.61626
2.60526
2.59871
2.58745
2.57312
2.55504
2.5336
2.50747
2.47575
2.43604
2.62307
2.61085
2.60239
2.58968
2.5749
2.55706
2.5358
2.51054
2.48037
2.44372
2.61444
2.60352
2.59517
2.58283
2.56901
2.5529
2.53329
2.50984
2.48113
2.44731
2.60165
2.58836
2.58026
2.56993
2.55833
2.5447
2.52692
2.50484
2.4774
2.44603
2.604
2.587
2.57506
2.56213
2.54901
2.53422
2.51554
2.49323
2.46684
2.43762
2.61278
2.59458
2.58031
2.56469
2.54851
2.53039
2.5088
2.48426
2.4567
2.4268
2.62109
2.60332
2.58889
2.5717
2.55276
2.53204
2.50821
2.48157
2.45191
2.42023
2.62352
2.6055
2.59132
2.57397
2.55477
2.5331
2.50877
2.48167
2.45132
2.41916
2.62259
2.60412
2.58985
2.57257
2.55371
2.53246
2.50857
2.48158
2.45178
2.42056
2.62091
2.6019
2.58754
2.57032
2.55178
2.5309
2.5074
2.48091
2.45234
2.42291
2.61899
2.59965
2.5851
2.56786
2.54938
2.52855
2.50528
2.47958
2.45243
2.42483
2.61757
2.59838
2.58378
2.56658
2.54803
2.5271
2.50388
2.47868
2.4525
2.4262
2.6166
2.59797
2.58348
2.56644
2.54788
2.52687
2.50358
2.47848
2.45272
2.42718
2.61605
2.59815
2.58394
2.56711
2.54863
2.52764
2.50432
2.47917
2.4535
2.42818
2.61555
2.59839
2.58456
2.56797
2.54958
2.52862
2.50529
2.48001
2.45419
2.42882
2.6152
2.59848
2.58508
2.56873
2.55053
2.52969
2.50647
2.48118
2.45524
2.42975
1.40696
1.42289
1.4423
1.46545
1.50894
1.62604
1.71475
1.7427
2.28235
2.63966
1.40696
1.42289
1.4423
1.46545
1.50893
1.62604
1.71522
1.73951
2.25768
2.64654
1.40696
1.42289
1.4423
1.46545
1.50892
1.626
1.71564
1.73713
2.23345
2.64794
1.40696
1.42289
1.44229
1.46546
1.5089
1.62594
1.71605
1.73538
2.20954
2.64016
1.40696
1.4229
1.44229
1.46546
1.50888
1.62585
1.7165
1.73427
2.18611
2.62741
1.40695
1.4229
1.44229
1.46547
1.50886
1.62574
1.71698
1.73352
2.16385
2.6171
1.40695
1.4229
1.44228
1.46548
1.50883
1.62561
1.71747
1.73295
2.14407
2.61538
1.40695
1.4229
1.44228
1.46549
1.50881
1.62548
1.71796
1.7325
2.12636
2.62378
1.40695
1.4229
1.44227
1.4655
1.50879
1.62533
1.71844
1.73213
2.11052
2.63933
1.40695
1.4229
1.44227
1.46551
1.50878
1.62519
1.71887
1.73184
2.09631
2.65154
1.40695
1.42291
1.44226
1.46552
1.50877
1.62504
1.71925
1.7316
2.08358
2.65725
1.40695
1.42291
1.44226
1.46553
1.50877
1.62491
1.71959
1.73142
2.07249
2.65762
1.40695
1.42291
1.44226
1.46553
1.50878
1.62478
1.71986
1.73127
2.06325
2.65499
1.40695
1.42291
1.44226
1.46553
1.50879
1.62466
1.72008
1.73116
2.05556
2.65101
1.40695
1.42291
1.44225
1.46554
1.5088
1.62456
1.72024
1.73108
2.04927
2.64684
1.40695
1.42291
1.44225
1.46554
1.50881
1.62448
1.72036
1.73103
2.04389
2.64328
1.40695
1.42291
1.44225
1.46554
1.50882
1.62441
1.72044
1.731
2.0396
2.64043
1.40695
1.42291
1.44225
1.46554
1.50883
1.62435
1.72049
1.731
2.03644
2.63844
1.40695
1.42291
1.44225
1.46554
1.50884
1.62432
1.72053
1.731
2.0343
2.63702
1.40695
1.42291
1.44225
1.46554
1.50885
1.6243
1.72054
1.73101
2.03325
2.63626
1.40695
1.42291
1.44225
1.46554
1.50885
1.6243
1.72054
1.73101
2.03325
2.63626
1.40695
1.42291
1.44225
1.46554
1.50884
1.62432
1.72053
1.731
2.0343
2.63702
1.40695
1.42291
1.44225
1.46554
1.50883
1.62435
1.72049
1.731
2.03644
2.63844
1.40695
1.42291
1.44225
1.46554
1.50882
1.62441
1.72044
1.731
2.0396
2.64043
1.40695
1.42291
1.44225
1.46554
1.50881
1.62448
1.72036
1.73103
2.04389
2.64328
1.40695
1.42291
1.44225
1.46554
1.5088
1.62456
1.72024
1.73108
2.04927
2.64684
1.40695
1.42291
1.44226
1.46553
1.50879
1.62466
1.72008
1.73116
2.05556
2.65101
1.40695
1.42291
1.44226
1.46553
1.50878
1.62478
1.71986
1.73127
2.06325
2.65499
1.40695
1.42291
1.44226
1.46553
1.50877
1.62491
1.71959
1.73142
2.07249
2.65762
1.40695
1.42291
1.44226
1.46552
1.50877
1.62504
1.71925
1.7316
2.08358
2.65725
1.40695
1.4229
1.44227
1.46551
1.50878
1.62519
1.71887
1.73184
2.09631
2.65154
1.40695
1.4229
1.44227
1.4655
1.50879
1.62533
1.71844
1.73213
2.11052
2.63933
1.40695
1.4229
1.44228
1.46549
1.50881
1.62548
1.71796
1.7325
2.12636
2.62378
1.40695
1.4229
1.44228
1.46548
1.50883
1.62561
1.71747
1.73295
2.14407
2.61539
1.40695
1.4229
1.44229
1.46547
1.50886
1.62574
1.71698
1.73352
2.16385
2.6171
1.40696
1.4229
1.44229
1.46546
1.50888
1.62585
1.7165
1.73427
2.18611
2.62741
1.40696
1.42289
1.44229
1.46546
1.5089
1.62594
1.71605
1.73538
2.20954
2.64015
1.40696
1.42289
1.4423
1.46545
1.50892
1.626
1.71564
1.73713
2.23345
2.64794
1.40696
1.42289
1.4423
1.46545
1.50893
1.62604
1.71522
1.73951
2.25768
2.64654
1.40696
1.42289
1.4423
1.46545
1.50894
1.62604
1.71475
1.7427
2.28235
2.63966
2.6152
2.59848
2.58508
2.56873
2.55053
2.52969
2.50647
2.48118
2.45524
2.42975
2.61555
2.59838
2.58456
2.56797
2.54958
2.52862
2.50529
2.48001
2.45419
2.42882
2.61605
2.59815
2.58394
2.56711
2.54863
2.52764
2.50432
2.47917
2.4535
2.42818
2.6166
2.59797
2.58348
2.56644
2.54788
2.52687
2.50358
2.47848
2.45272
2.42717
2.61757
2.59838
2.58378
2.56658
2.54803
2.5271
2.50388
2.47868
2.4525
2.4262
2.61899
2.59965
2.5851
2.56786
2.54938
2.52855
2.50528
2.47958
2.45243
2.42483
2.62091
2.6019
2.58754
2.57032
2.55178
2.5309
2.50741
2.48091
2.45234
2.42291
2.62259
2.60412
2.58985
2.57257
2.55371
2.53246
2.50857
2.48158
2.45178
2.42056
2.62352
2.6055
2.59132
2.57397
2.55477
2.5331
2.50877
2.48167
2.45132
2.41916
2.62109
2.60332
2.58889
2.5717
2.55276
2.53204
2.50821
2.48156
2.45191
2.42022
2.61278
2.59458
2.58031
2.56469
2.54851
2.53039
2.5088
2.48426
2.4567
2.42679
2.604
2.587
2.57506
2.56213
2.54901
2.53422
2.51554
2.49323
2.46684
2.43762
2.60165
2.58836
2.58026
2.56993
2.55833
2.5447
2.52691
2.50484
2.47739
2.44603
2.61444
2.60352
2.59517
2.58283
2.56901
2.5529
2.53329
2.50984
2.48113
2.44731
2.62307
2.61086
2.60239
2.58968
2.5749
2.55706
2.53581
2.51054
2.48037
2.44372
2.61626
2.60527
2.59872
2.58745
2.57312
2.55505
2.5336
2.50748
2.47575
2.43604
2.61222
2.5994
2.59054
2.57843
2.56517
2.54871
2.5286
2.50254
2.46964
2.42766
2.61682
2.60283
2.59268
2.57915
2.56494
2.54761
2.52664
2.49852
2.46275
2.41776
2.62801
2.61452
2.605
2.59069
2.57423
2.55359
2.52919
2.49728
2.45801
2.40951
2.64237
2.63138
2.62193
2.60684
2.58829
2.56392
2.5353
2.49886
2.45569
2.40307
)
;

boundaryField
{
    inlet
    {
        type            calculated;
        value           uniform 1.40001;
    }
    outlet
    {
        type            calculated;
        value           nonuniform List<scalar> 
100
(
1.5331
1.50369
1.46932
1.42939
1.38695
1.34236
1.29566
1.24759
1.19987
1.15557
1.11631
1.08127
1.05291
1.03208
1.01717
1.00656
0.998756
0.993604
0.990679
0.987368
1.66557
1.66092
1.65154
1.64421
1.63996
1.64193
1.63975
1.63313
1.62673
1.62226
1.61908
1.61536
1.60815
1.59978
1.59297
1.58819
1.58247
1.57347
1.56265
1.55111
1.66345
1.65616
1.64119
1.61702
1.58127
1.54295
1.50685
1.47238
1.44743
1.45292
1.46365
1.47651
1.47582
1.49533
1.53366
1.58508
1.63418
1.64213
1.64567
1.65683
1.55108
1.56279
1.5738
1.58212
1.58801
1.59342
1.60024
1.60822
1.61488
1.6191
1.62267
1.62713
1.63336
1.63965
1.64256
1.6418
1.64489
1.65044
1.65706
1.66294
0.98737
0.990669
0.9936
0.998755
1.00657
1.0172
1.03214
1.05298
1.08134
1.11637
1.15561
1.19989
1.24761
1.29567
1.34231
1.38692
1.42941
1.46952
1.50358
1.53316
)
;
    }
    triangle
    {
        type            calculated;
        value           nonuniform List<scalar> 
40
(
3.26101
3.15157
3.07784
3.00738
2.94032
2.87689
2.8071
2.72788
2.60574
2.44895
1.01994
0.99861
0.998213
0.995427
0.99163
0.991323
0.990632
0.995203
1.00018
1.00486
1.00477
1.0003
0.99553
0.991016
0.99141
0.991441
0.995155
0.998029
0.998658
1.01973
3.26101
3.15157
3.07784
3.00738
2.94032
2.87689
2.80709
2.72788
2.60574
2.44893
)
;
    }
    top
    {
        type            symmetryPlane;
    }
    bottom
    {
        type            symmetryPlane;
    }
    defaultFaces
    {
        type            empty;
    }
}


// ************************************************************************* //
