/*--------------------------------*- C++ -*----------------------------------*\
  =========                 |
  \\      /  F ield         | OpenFOAM: The Open Source CFD Toolbox
   \\    /   O peration     | Website:  https://openfoam.org
    \\  /    A nd           | Version:  8
     \\/     M anipulation  |
\*---------------------------------------------------------------------------*/
FoamFile
{
    version     2.0;
    format      ascii;
    class       volScalarField;
    location    "1.6";
    object      T;
}
// * * * * * * * * * * * * * * * * * * * * * * * * * * * * * * * * * * * * * //

dimensions      [0 0 0 1 0 0 0];

internalField   nonuniform List<scalar> 
2600
(
1.25076
1.16706
1.06251
0.974566
0.987544
1.03656
1.07431
1.08682
1.09872
1.10338
1.27774
1.18867
1.09253
1.00712
1.01908
1.05931
1.08743
1.09444
1.10335
1.10894
1.28101
1.19508
1.11354
1.04096
1.05121
1.08699
1.11015
1.11428
1.11775
1.11962
1.27861
1.1939
1.12836
1.07864
1.08818
1.11475
1.14039
1.14602
1.14362
1.13918
1.27579
1.19334
1.14205
1.12221
1.14017
1.16291
1.18102
1.18513
1.1772
1.16875
1.2765
1.19505
1.15749
1.16542
1.2008
1.23108
1.24663
1.24173
1.22512
1.20679
1.27799
1.20005
1.16855
1.19677
1.25272
1.29243
1.30603
1.2934
1.27091
1.24173
1.28134
1.20807
1.17242
1.20993
1.27544
1.32513
1.33786
1.31887
1.29511
1.26141
1.2841
1.21324
1.17364
1.20607
1.27571
1.3346
1.34786
1.32516
1.30267
1.2683
1.28663
1.21507
1.16834
1.19785
1.27362
1.33443
1.34735
1.32462
1.30406
1.27488
1.28657
1.21487
1.16818
1.1988
1.27364
1.33451
1.34756
1.32404
1.30412
1.27723
1.28412
1.21305
1.17332
1.20517
1.27524
1.33454
1.34876
1.32368
1.30319
1.27743
1.28143
1.20809
1.17209
1.21034
1.27494
1.32497
1.33819
1.31859
1.29544
1.26255
1.27809
1.20021
1.16861
1.19705
1.25249
1.29199
1.30598
1.29562
1.26977
1.23595
1.27645
1.19521
1.15794
1.16586
1.20081
1.23038
1.24665
1.24314
1.22521
1.2013
1.27562
1.19343
1.14234
1.12221
1.13985
1.16173
1.18202
1.18532
1.1809
1.16806
1.27844
1.19407
1.12844
1.07818
1.08734
1.11436
1.14215
1.14541
1.14156
1.14297
1.2809
1.19532
1.11371
1.04038
1.05101
1.08755
1.11085
1.11401
1.11483
1.11992
1.27771
1.18876
1.09262
1.0068
1.01899
1.05959
1.08748
1.09464
1.10465
1.10677
1.25067
1.16703
1.06282
0.974358
0.987267
1.03644
1.07456
1.08731
1.10042
1.10257
1.18658
1.11081
1.02412
0.943103
0.960158
1.01795
1.06734
1.08277
1.09514
1.10014
1.13345
1.05246
0.988526
0.922223
0.939658
1.0032
1.06247
1.07863
1.09026
1.09612
1.11657
1.01854
0.964775
0.914359
0.927137
0.990866
1.05879
1.07546
1.08687
1.09256
1.1179
1.00965
0.956007
0.912398
0.920184
0.977827
1.05267
1.07297
1.0852
1.0902
1.1248
1.01237
0.955507
0.915107
0.916967
0.962706
1.04335
1.07104
1.08459
1.08878
1.13487
1.0215
0.960758
0.922564
0.916779
0.948749
1.03147
1.06829
1.08243
1.08889
1.146
1.03558
0.971034
0.934062
0.917555
0.938661
1.01702
1.06381
1.07874
1.0873
1.15609
1.05139
0.983939
0.945318
0.921208
0.931173
0.999834
1.05745
1.07445
1.08433
1.16442
1.0663
0.998325
0.955542
0.925969
0.928471
0.981703
1.04945
1.07074
1.08153
1.17079
1.07925
1.0122
0.966023
0.930891
0.925315
0.965055
1.04095
1.06744
1.07939
1.17523
1.09071
1.02427
0.976929
0.936455
0.923833
0.951703
1.03224
1.06392
1.07787
1.17851
1.10031
1.03544
0.986114
0.943383
0.923934
0.941639
1.02213
1.05994
1.07656
1.18131
1.10831
1.04528
0.994939
0.950705
0.925858
0.935158
1.01003
1.05608
1.07474
1.18424
1.11517
1.05375
1.00326
0.958018
0.929168
0.931371
0.995801
1.05259
1.07282
1.18753
1.12136
1.06139
1.0111
0.966111
0.933174
0.930988
0.981308
1.04967
1.07134
1.19119
1.12718
1.06866
1.01869
0.974395
0.938192
0.931072
0.968594
1.04698
1.07053
1.19511
1.13294
1.07577
1.02638
0.982515
0.944506
0.932091
0.958187
1.04363
1.06972
1.19912
1.13888
1.08299
1.03424
0.990455
0.951092
0.933525
0.949945
1.03857
1.0683
1.20316
1.14501
1.09046
1.04209
0.998436
0.95783
0.935653
0.944371
1.03135
1.06638
1.2072
1.15144
1.09814
1.0499
1.00594
0.964751
0.938463
0.940717
1.0219
1.06374
1.45265
1.43439
1.42252
1.41014
1.39729
1.3845
1.37027
1.35326
1.3258
1.31281
1.42188
1.40381
1.39619
1.38716
1.37789
1.36733
1.35432
1.33682
1.30902
1.27781
1.40688
1.3933
1.38624
1.37747
1.36919
1.35949
1.34704
1.32969
1.30262
1.2664
1.39101
1.38111
1.37511
1.36684
1.35901
1.34913
1.33661
1.31914
1.29294
1.2556
1.37828
1.37112
1.36666
1.35903
1.35126
1.34104
1.32842
1.3109
1.28557
1.24882
1.36711
1.36145
1.35784
1.35114
1.34415
1.33418
1.32175
1.30429
1.27997
1.24409
1.35767
1.35307
1.34995
1.34391
1.33743
1.32772
1.3157
1.29855
1.27538
1.2411
1.34908
1.34509
1.34205
1.33632
1.3301
1.32069
1.30923
1.29269
1.27088
1.23883
1.34051
1.33671
1.33355
1.32798
1.32193
1.31283
1.30196
1.28623
1.26585
1.2363
1.33007
1.32655
1.32364
1.31847
1.31272
1.30409
1.29392
1.2791
1.26031
1.23333
1.31851
1.31627
1.31405
1.30936
1.30384
1.29563
1.28605
1.27209
1.25484
1.23038
1.31469
1.31089
1.30763
1.30257
1.29696
1.28896
1.27973
1.2664
1.25029
1.22809
1.31339
1.30873
1.30457
1.29898
1.29301
1.28496
1.27588
1.26303
1.2478
1.22725
1.31246
1.30768
1.3033
1.29754
1.2914
1.28337
1.27445
1.26207
1.24739
1.22782
1.31141
1.30677
1.3025
1.29688
1.29085
1.28301
1.27424
1.26235
1.24823
1.22971
1.31032
1.30601
1.302
1.29662
1.29076
1.28313
1.27452
1.2631
1.24964
1.23219
1.30952
1.30557
1.30178
1.29658
1.29083
1.28338
1.27495
1.26399
1.25121
1.23482
1.3087
1.30514
1.3016
1.29662
1.291
1.28372
1.27544
1.26488
1.25273
1.23733
1.30775
1.30448
1.30119
1.29652
1.29113
1.28412
1.27601
1.26581
1.2541
1.23958
1.3066
1.30378
1.30079
1.29648
1.2914
1.28475
1.27683
1.26691
1.2554
1.24159
1.00198
1.00651
1.01195
1.01846
1.03026
1.0612
1.0836
1.10983
1.26034
1.35211
1.00198
1.00651
1.01195
1.01846
1.03027
1.06121
1.08361
1.10978
1.26012
1.34919
1.00198
1.00651
1.01195
1.01846
1.03027
1.06121
1.08362
1.10967
1.25998
1.34438
1.00198
1.00651
1.01195
1.01846
1.03027
1.06122
1.08365
1.10949
1.25987
1.33883
1.00198
1.00651
1.01195
1.01846
1.03028
1.06123
1.08368
1.10919
1.25965
1.33365
1.00198
1.00651
1.01195
1.01846
1.03028
1.06125
1.08371
1.10875
1.25919
1.32901
1.00198
1.00651
1.01196
1.01845
1.03029
1.06129
1.08376
1.10814
1.25843
1.32491
1.00198
1.00651
1.01196
1.01845
1.03029
1.06133
1.0838
1.10736
1.25744
1.32131
1.00198
1.00651
1.01196
1.01845
1.03029
1.06139
1.08384
1.10641
1.25632
1.31859
1.00198
1.00651
1.01196
1.01845
1.0303
1.06146
1.08389
1.10531
1.25518
1.31742
1.00198
1.00651
1.01196
1.01844
1.0303
1.06153
1.08394
1.10406
1.25398
1.31776
1.00198
1.00651
1.01196
1.01844
1.03031
1.0616
1.084
1.1027
1.25233
1.31819
1.00198
1.0065
1.01196
1.01844
1.03031
1.06167
1.08407
1.10127
1.25009
1.31816
1.00198
1.0065
1.01196
1.01844
1.03031
1.06174
1.08415
1.09984
1.2473
1.3177
1.00198
1.0065
1.01196
1.01843
1.03032
1.06178
1.08425
1.09841
1.24408
1.31674
1.00198
1.0065
1.01197
1.01843
1.03032
1.0618
1.08437
1.09705
1.24056
1.31542
1.00198
1.0065
1.01197
1.01843
1.03033
1.06181
1.0845
1.09577
1.23687
1.31412
1.00198
1.0065
1.01197
1.01843
1.03033
1.0618
1.08463
1.0946
1.23323
1.31267
1.00198
1.0065
1.01197
1.01843
1.03033
1.0618
1.08474
1.09361
1.22976
1.31121
1.00198
1.0065
1.01197
1.01843
1.03033
1.0618
1.08485
1.09279
1.22652
1.30869
1.00198
1.0065
1.01197
1.01843
1.03033
1.0618
1.08485
1.09279
1.22652
1.30869
1.00198
1.0065
1.01197
1.01843
1.03033
1.0618
1.08474
1.09361
1.22976
1.31121
1.00198
1.0065
1.01197
1.01843
1.03033
1.0618
1.08463
1.0946
1.23323
1.31267
1.00198
1.0065
1.01197
1.01843
1.03033
1.06181
1.0845
1.09577
1.23687
1.31412
1.00198
1.0065
1.01197
1.01843
1.03032
1.0618
1.08437
1.09705
1.24056
1.31542
1.00198
1.0065
1.01196
1.01843
1.03032
1.06178
1.08425
1.09841
1.24408
1.31674
1.00198
1.0065
1.01196
1.01844
1.03031
1.06174
1.08415
1.09984
1.2473
1.3177
1.00198
1.0065
1.01196
1.01844
1.03031
1.06167
1.08407
1.10127
1.25009
1.31816
1.00198
1.00651
1.01196
1.01844
1.03031
1.0616
1.084
1.1027
1.25233
1.31819
1.00198
1.00651
1.01196
1.01844
1.0303
1.06153
1.08394
1.10406
1.25398
1.31776
1.00198
1.00651
1.01196
1.01845
1.0303
1.06146
1.08389
1.10531
1.25518
1.31742
1.00198
1.00651
1.01196
1.01845
1.03029
1.06139
1.08384
1.10641
1.25632
1.31859
1.00198
1.00651
1.01196
1.01845
1.03029
1.06133
1.0838
1.10736
1.25744
1.32131
1.00198
1.00651
1.01196
1.01845
1.03029
1.06129
1.08376
1.10814
1.25843
1.32491
1.00198
1.00651
1.01195
1.01846
1.03028
1.06125
1.08371
1.10875
1.25919
1.32901
1.00198
1.00651
1.01195
1.01846
1.03028
1.06123
1.08368
1.10919
1.25965
1.33365
1.00198
1.00651
1.01195
1.01846
1.03027
1.06122
1.08365
1.10949
1.25987
1.33883
1.00198
1.00651
1.01195
1.01846
1.03027
1.06121
1.08362
1.10967
1.25998
1.34438
1.00198
1.00651
1.01195
1.01846
1.03027
1.06121
1.08361
1.10978
1.26012
1.34919
1.00198
1.00651
1.01195
1.01846
1.03026
1.0612
1.0836
1.10983
1.26034
1.35211
1.3066
1.30379
1.30079
1.29648
1.29141
1.28475
1.27683
1.26691
1.2554
1.24159
1.30775
1.30448
1.30119
1.29652
1.29113
1.28412
1.27601
1.26581
1.2541
1.23958
1.3087
1.30514
1.3016
1.29662
1.291
1.28372
1.27544
1.26488
1.25273
1.23733
1.30952
1.30557
1.30178
1.29658
1.29083
1.28338
1.27495
1.26399
1.25121
1.23481
1.31032
1.30601
1.302
1.29662
1.29076
1.28313
1.27452
1.2631
1.24964
1.23219
1.31141
1.30677
1.3025
1.29688
1.29085
1.28301
1.27424
1.26235
1.24823
1.22971
1.31246
1.30768
1.3033
1.29754
1.2914
1.28337
1.27444
1.26207
1.24739
1.22782
1.31339
1.30873
1.30457
1.29898
1.293
1.28496
1.27588
1.26303
1.2478
1.22725
1.31469
1.31089
1.30763
1.30257
1.29696
1.28895
1.27973
1.2664
1.25029
1.22809
1.31851
1.31627
1.31405
1.30936
1.30384
1.29563
1.28605
1.27208
1.25484
1.23038
1.33007
1.32655
1.32364
1.31847
1.31272
1.30409
1.29392
1.2791
1.26031
1.23333
1.34051
1.33671
1.33355
1.32798
1.32193
1.31283
1.30196
1.28623
1.26585
1.2363
1.34908
1.34509
1.34205
1.33632
1.3301
1.32069
1.30923
1.29269
1.27088
1.23883
1.35767
1.35307
1.34995
1.34391
1.33743
1.32772
1.3157
1.29855
1.27538
1.2411
1.36711
1.36145
1.35784
1.35114
1.34415
1.33418
1.32175
1.30429
1.27997
1.24409
1.37828
1.37112
1.36666
1.35903
1.35126
1.34104
1.32842
1.3109
1.28557
1.24882
1.39101
1.38111
1.37511
1.36684
1.35901
1.34913
1.3366
1.31914
1.29293
1.2556
1.40688
1.3933
1.38624
1.37747
1.36919
1.35949
1.34704
1.32969
1.30262
1.2664
1.42188
1.40381
1.39619
1.38716
1.37789
1.36733
1.35432
1.33682
1.30902
1.27781
1.45265
1.43439
1.42252
1.41014
1.39729
1.3845
1.37027
1.35325
1.3258
1.31281
1.2072
1.15144
1.09815
1.04991
1.00594
0.964752
0.938485
0.940754
1.0219
1.06372
1.20316
1.145
1.09045
1.0421
0.998446
0.957845
0.935661
0.944384
1.03138
1.06644
1.19912
1.13887
1.08298
1.03424
0.990477
0.951101
0.933533
0.949936
1.03856
1.06841
1.19511
1.13293
1.07576
1.02639
0.982535
0.944541
0.932097
0.958187
1.04343
1.06963
1.19119
1.12717
1.06864
1.01869
0.974427
0.938227
0.931061
0.968631
1.04669
1.07045
1.18752
1.12135
1.06137
1.01109
0.966169
0.933193
0.930966
0.981403
1.04952
1.0714
1.18424
1.11517
1.05372
1.00326
0.958076
0.92922
0.931346
0.99583
1.05277
1.07288
1.18131
1.10831
1.04526
0.994957
0.950754
0.925872
0.935091
1.00985
1.05661
1.07471
1.1785
1.1003
1.03547
0.986076
0.943444
0.923915
0.9415
1.02184
1.06038
1.07641
1.17522
1.09071
1.02428
0.976913
0.93649
0.923851
0.951535
1.03213
1.0638
1.07785
1.17079
1.07924
1.01221
0.96607
0.930884
0.925332
0.964924
1.04114
1.06704
1.07949
1.16443
1.06629
0.998347
0.955588
0.925824
0.928454
0.981516
1.04969
1.07059
1.08166
1.1561
1.05133
0.983914
0.945291
0.921226
0.931097
0.999418
1.05752
1.07506
1.08444
1.14602
1.03546
0.970937
0.934171
0.917776
0.938678
1.0165
1.06379
1.07951
1.08719
1.13489
1.02137
0.960741
0.922867
0.916863
0.948866
1.03119
1.06829
1.08249
1.08877
1.12482
1.01242
0.955625
0.915141
0.917048
0.962788
1.04346
1.0711
1.08361
1.08901
1.11789
1.00988
0.956161
0.912202
0.920139
0.977718
1.05278
1.07314
1.08508
1.09017
1.1165
1.01873
0.9649
0.914226
0.927079
0.99081
1.05851
1.07569
1.08758
1.09215
1.13332
1.05243
0.988479
0.922299
0.939825
1.00349
1.06177
1.07908
1.09149
1.09495
1.18647
1.11072
1.02369
0.943324
0.960439
1.01838
1.06671
1.08314
1.09564
1.09897
1.26836
1.23658
1.1999
1.16375
1.12407
1.07993
1.03472
0.98638
0.906953
0.875652
1.26813
1.23643
1.19947
1.16311
1.12328
1.07911
1.034
0.985395
0.906697
0.876693
1.26783
1.23602
1.19887
1.16197
1.12186
1.07763
1.03261
0.983572
0.906095
0.877508
1.26735
1.23519
1.1979
1.16032
1.11982
1.07547
1.03051
0.980788
0.905108
0.879072
1.26684
1.23414
1.19649
1.15816
1.11717
1.07267
1.02775
0.977149
0.904216
0.88168
1.26631
1.23294
1.19471
1.15545
1.11386
1.06916
1.02403
0.972436
0.902435
0.88552
1.26576
1.23157
1.19253
1.15234
1.11009
1.06512
1.01961
0.966996
0.900281
0.89124
1.26484
1.22985
1.18986
1.14868
1.10577
1.06053
1.01458
0.960708
0.899309
0.899318
1.2627
1.22704
1.18639
1.14441
1.10092
1.05546
1.00881
0.954069
0.897446
0.910322
1.25822
1.22227
1.18167
1.13941
1.09555
1.04993
1.00256
0.948006
0.89561
0.924397
1.25062
1.21514
1.17558
1.13361
1.08967
1.04423
0.996111
0.942481
0.895289
0.940529
1.24136
1.20662
1.1684
1.12708
1.08348
1.03828
0.989645
0.938811
0.896668
0.958465
1.23362
1.19851
1.16091
1.1202
1.07698
1.03232
0.983601
0.936984
0.901024
0.976418
1.229
1.1925
1.1542
1.11328
1.07031
1.02638
0.977788
0.936967
0.908816
0.992346
1.22718
1.18885
1.14877
1.10668
1.06362
1.0199
0.972377
0.937629
0.920163
1.00573
1.22669
1.18675
1.14414
1.10011
1.05651
1.01302
0.967286
0.939136
0.93294
1.01707
1.22606
1.18411
1.13895
1.09295
1.04871
1.0054
0.962046
0.940237
0.946075
1.02747
1.22404
1.17959
1.132
1.08454
1.0398
0.996647
0.956288
0.939803
0.962594
1.03793
1.2196
1.17168
1.12222
1.07384
1.02917
0.986318
0.950375
0.938966
0.98258
1.04828
1.2129
1.1608
1.10936
1.06085
1.01656
0.974454
0.943391
0.939585
1.00517
1.05807
1.2129
1.16081
1.10935
1.06086
1.01656
0.974453
0.943392
0.939555
1.0052
1.05806
1.21961
1.17168
1.12223
1.07385
1.02918
0.986321
0.950363
0.938949
0.982539
1.04831
1.22404
1.17959
1.13201
1.08455
1.0398
0.996652
0.956289
0.939801
0.96254
1.03787
1.22606
1.18411
1.13896
1.09295
1.04871
1.00541
0.962051
0.940241
0.946059
1.02747
1.2267
1.18675
1.14414
1.10012
1.05652
1.01303
0.967299
0.939139
0.932928
1.01708
1.22718
1.18885
1.14877
1.10669
1.06363
1.01991
0.972386
0.937627
0.920143
1.00575
1.22901
1.1925
1.15421
1.11328
1.07032
1.02639
0.977791
0.936963
0.908801
0.992344
1.23362
1.19851
1.16091
1.1202
1.07698
1.03232
0.983604
0.936982
0.901018
0.97641
1.24136
1.20662
1.16841
1.12708
1.08349
1.03829
0.989646
0.93881
0.896667
0.958453
1.25062
1.21515
1.17559
1.13362
1.08967
1.04423
0.996116
0.942484
0.89529
0.940509
1.25822
1.22228
1.18167
1.13942
1.09555
1.04993
1.00256
0.948013
0.895614
0.924371
1.2627
1.22705
1.18639
1.14442
1.10092
1.05547
1.00881
0.954073
0.897445
0.910294
1.26484
1.22986
1.18986
1.14868
1.10577
1.06053
1.01458
0.960713
0.899299
0.899293
1.26576
1.23157
1.19253
1.15234
1.11009
1.06512
1.01961
0.966998
0.900276
0.89122
1.26631
1.23294
1.19471
1.15545
1.11387
1.06916
1.02403
0.972437
0.902433
0.885509
1.26684
1.23414
1.19649
1.15816
1.11717
1.07267
1.02775
0.977148
0.904219
0.881677
1.26735
1.23519
1.1979
1.16032
1.11982
1.07547
1.03051
0.980789
0.905112
0.879073
1.26783
1.23602
1.19887
1.16197
1.12186
1.07763
1.03261
0.983573
0.906098
0.877509
1.26813
1.23642
1.19947
1.16311
1.12328
1.07911
1.03401
0.985396
0.906698
0.876696
1.26836
1.23658
1.1999
1.16375
1.12407
1.07993
1.03472
0.986382
0.906952
0.875651
1.30953
1.3057
1.30217
1.29788
1.29295
1.28642
1.27841
1.26844
1.2571
1.24417
1.3137
1.30983
1.306
1.30126
1.29578
1.28875
1.28037
1.27042
1.25958
1.24769
1.31187
1.30957
1.3069
1.30255
1.29682
1.28943
1.28094
1.27138
1.26115
1.24999
1.31027
1.30759
1.30435
1.29978
1.29431
1.28751
1.27976
1.2711
1.26172
1.25107
1.30668
1.30291
1.29941
1.29528
1.29058
1.28472
1.27793
1.27027
1.26158
1.25119
1.30097
1.2984
1.29603
1.29257
1.28837
1.28318
1.27705
1.27
1.26179
1.2517
1.30807
1.30352
1.2994
1.29473
1.28971
1.28407
1.2778
1.2709
1.26284
1.25311
1.3161
1.31138
1.30632
1.3008
1.29489
1.28842
1.2816
1.27453
1.26646
1.25698
1.31273
1.31002
1.30739
1.30358
1.29849
1.29281
1.28675
1.28032
1.27294
1.26404
1.3055
1.30401
1.30303
1.30086
1.29762
1.29393
1.28989
1.28533
1.27976
1.2725
1.30036
1.2986
1.29796
1.29679
1.29523
1.29311
1.29054
1.28763
1.28391
1.2786
1.29881
1.29677
1.29595
1.29475
1.29353
1.29214
1.29045
1.28849
1.28583
1.28172
1.2989
1.29674
1.29586
1.29459
1.29335
1.29208
1.29074
1.28923
1.28705
1.2833
1.29983
1.2975
1.29659
1.29532
1.29412
1.29292
1.29179
1.29044
1.28831
1.28437
1.30103
1.29862
1.29773
1.29651
1.29539
1.2943
1.29325
1.29189
1.28957
1.2852
1.3021
1.29971
1.29883
1.29764
1.29659
1.29558
1.29458
1.2932
1.29069
1.28593
1.30295
1.30063
1.29975
1.2986
1.2976
1.29666
1.29569
1.29427
1.29162
1.28657
1.30359
1.30137
1.30052
1.29943
1.2985
1.29761
1.29665
1.29518
1.29239
1.28714
1.30395
1.30182
1.30103
1.30002
1.29915
1.29829
1.2973
1.29576
1.29288
1.2875
1.30406
1.30197
1.30127
1.30033
1.29952
1.29868
1.2977
1.29613
1.29321
1.28778
1.00198
1.0065
1.01197
1.01843
1.03033
1.06181
1.08496
1.09196
1.22242
1.30317
1.00198
1.0065
1.01197
1.01843
1.03033
1.0618
1.08509
1.09118
1.21714
1.29664
1.00198
1.0065
1.01197
1.01843
1.03033
1.06179
1.0852
1.09059
1.21211
1.29347
1.00198
1.0065
1.01197
1.01843
1.03033
1.06177
1.08531
1.09016
1.20735
1.2941
1.00198
1.0065
1.01197
1.01843
1.03032
1.06174
1.08543
1.08989
1.20282
1.29796
1.00198
1.0065
1.01197
1.01843
1.03031
1.0617
1.08556
1.0897
1.19821
1.30114
1.00198
1.0065
1.01196
1.01843
1.03031
1.06166
1.08568
1.08956
1.19329
1.29968
1.00198
1.0065
1.01196
1.01844
1.0303
1.06162
1.08581
1.08945
1.18817
1.29359
1.00198
1.0065
1.01196
1.01844
1.0303
1.06158
1.08593
1.08936
1.18375
1.28482
1.00198
1.00651
1.01196
1.01844
1.03029
1.06154
1.08603
1.08928
1.18014
1.27684
1.00198
1.00651
1.01196
1.01845
1.03029
1.0615
1.08613
1.08922
1.17706
1.27197
1.00198
1.00651
1.01196
1.01845
1.03029
1.06146
1.08621
1.08918
1.17435
1.26929
1.00198
1.00651
1.01196
1.01845
1.03029
1.06142
1.08628
1.08914
1.17204
1.26759
1.00198
1.00651
1.01196
1.01845
1.0303
1.06139
1.08633
1.08911
1.17007
1.26651
1.00198
1.00651
1.01196
1.01845
1.0303
1.06136
1.08638
1.08909
1.16845
1.26562
1.00198
1.00651
1.01196
1.01845
1.0303
1.06134
1.08641
1.08908
1.16708
1.2649
1.00198
1.00651
1.01196
1.01845
1.03031
1.06132
1.08643
1.08907
1.166
1.26436
1.00198
1.00651
1.01196
1.01845
1.03031
1.0613
1.08644
1.08907
1.1652
1.26401
1.00198
1.00651
1.01196
1.01845
1.03031
1.06129
1.08645
1.08908
1.16468
1.26379
1.00198
1.00651
1.01196
1.01845
1.03031
1.06129
1.08645
1.08908
1.16443
1.26368
1.00198
1.00651
1.01196
1.01845
1.03031
1.06129
1.08645
1.08908
1.16443
1.26368
1.00198
1.00651
1.01196
1.01845
1.03031
1.06129
1.08645
1.08908
1.16468
1.26379
1.00198
1.00651
1.01196
1.01845
1.03031
1.0613
1.08644
1.08907
1.1652
1.26401
1.00198
1.00651
1.01196
1.01845
1.03031
1.06132
1.08643
1.08907
1.166
1.26436
1.00198
1.00651
1.01196
1.01845
1.0303
1.06134
1.08641
1.08908
1.16708
1.2649
1.00198
1.00651
1.01196
1.01845
1.0303
1.06136
1.08638
1.08909
1.16845
1.26562
1.00198
1.00651
1.01196
1.01845
1.0303
1.06139
1.08633
1.08911
1.17007
1.26651
1.00198
1.00651
1.01196
1.01845
1.03029
1.06142
1.08628
1.08914
1.17204
1.26759
1.00198
1.00651
1.01196
1.01845
1.03029
1.06146
1.08621
1.08918
1.17435
1.26929
1.00198
1.00651
1.01196
1.01845
1.03029
1.0615
1.08613
1.08922
1.17706
1.27197
1.00198
1.00651
1.01196
1.01844
1.03029
1.06154
1.08603
1.08928
1.18014
1.27684
1.00198
1.0065
1.01196
1.01844
1.0303
1.06158
1.08593
1.08936
1.18375
1.28482
1.00198
1.0065
1.01196
1.01844
1.0303
1.06162
1.08581
1.08945
1.18817
1.29359
1.00198
1.0065
1.01196
1.01843
1.03031
1.06166
1.08568
1.08956
1.19329
1.29968
1.00198
1.0065
1.01197
1.01843
1.03031
1.0617
1.08556
1.0897
1.19821
1.30114
1.00198
1.0065
1.01197
1.01843
1.03032
1.06174
1.08543
1.08989
1.20282
1.29796
1.00198
1.0065
1.01197
1.01843
1.03033
1.06177
1.08531
1.09016
1.20735
1.2941
1.00198
1.0065
1.01197
1.01843
1.03033
1.06179
1.0852
1.09059
1.21211
1.29348
1.00198
1.0065
1.01197
1.01843
1.03033
1.0618
1.08509
1.09118
1.21714
1.29664
1.00198
1.0065
1.01197
1.01843
1.03033
1.06181
1.08496
1.09196
1.22242
1.30317
1.30406
1.30197
1.30127
1.30033
1.29952
1.29868
1.29769
1.29613
1.29321
1.28778
1.30395
1.30182
1.30103
1.30001
1.29915
1.29829
1.2973
1.29576
1.29288
1.2875
1.30359
1.30137
1.30052
1.29943
1.2985
1.29761
1.29665
1.29518
1.29239
1.28714
1.30295
1.30063
1.29975
1.2986
1.2976
1.29666
1.29569
1.29427
1.29162
1.28657
1.3021
1.29971
1.29883
1.29764
1.29659
1.29558
1.29458
1.2932
1.29069
1.28593
1.30103
1.29862
1.29773
1.29651
1.29539
1.2943
1.29325
1.29189
1.28957
1.2852
1.29983
1.2975
1.29659
1.29532
1.29412
1.29292
1.29179
1.29044
1.28831
1.28437
1.2989
1.29674
1.29586
1.29459
1.29335
1.29208
1.29074
1.28923
1.28705
1.2833
1.29881
1.29677
1.29595
1.29475
1.29353
1.29214
1.29045
1.28849
1.28583
1.28172
1.30036
1.2986
1.29796
1.29679
1.29523
1.29311
1.29054
1.28763
1.28391
1.2786
1.3055
1.30401
1.30303
1.30086
1.29762
1.29393
1.28989
1.28533
1.27976
1.2725
1.31273
1.31002
1.30739
1.30358
1.29849
1.29281
1.28675
1.28032
1.27294
1.26404
1.3161
1.31139
1.30632
1.3008
1.29489
1.28842
1.2816
1.27453
1.26646
1.25698
1.30807
1.30352
1.2994
1.29473
1.28971
1.28406
1.2778
1.2709
1.26284
1.25311
1.30097
1.2984
1.29603
1.29257
1.28837
1.28318
1.27705
1.27
1.26179
1.2517
1.30667
1.3029
1.2994
1.29528
1.29058
1.28471
1.27792
1.27026
1.26157
1.25119
1.31027
1.30758
1.30434
1.29978
1.2943
1.2875
1.27975
1.27109
1.26172
1.25107
1.31187
1.30957
1.3069
1.30255
1.29682
1.28943
1.28094
1.27138
1.26115
1.24998
1.3137
1.30983
1.306
1.30126
1.29578
1.28875
1.28037
1.27042
1.25957
1.24769
1.30953
1.30569
1.30217
1.29788
1.29295
1.28642
1.27841
1.26843
1.2571
1.24416
)
;

boundaryField
{
    inlet
    {
        type            fixedValue;
        value           uniform 1;
    }
    outlet
    {
        type            inletOutlet;
        inletValue      uniform 1;
        value           nonuniform List<scalar> 
100
(
1.05809
1.04832
1.03791
1.02755
1.01717
1.00584
0.992412
0.976441
0.95846
0.940515
0.924391
0.910323
0.899305
0.891253
0.885545
0.881708
0.879099
0.877537
0.876728
0.875685
1.10016
1.096
1.09238
1.09018
1.08896
1.08913
1.08724
1.08421
1.08151
1.07943
1.07794
1.07658
1.07476
1.07285
1.07142
1.07061
1.06974
1.06827
1.06639
1.06382
1.10341
1.10909
1.11969
1.13911
1.16834
1.20651
1.24189
1.26118
1.2686
1.2753
1.27683
1.27706
1.26245
1.23548
1.20116
1.16869
1.1427
1.11936
1.1068
1.10305
1.06375
1.06645
1.06842
1.06968
1.07053
1.07146
1.0729
1.07474
1.07645
1.0779
1.07952
1.08165
1.08436
1.08715
1.08893
1.08916
1.0902
1.0921
1.09489
1.0989
0.875685
0.876725
0.877536
0.879098
0.881711
0.885555
0.891273
0.89933
0.910351
0.924417
0.940536
0.958472
0.97645
0.992415
1.00582
1.01715
1.02754
1.03797
1.04831
1.05808
)
;
    }
    triangle
    {
        type            zeroGradient;
    }
    top
    {
        type            symmetryPlane;
    }
    bottom
    {
        type            symmetryPlane;
    }
    defaultFaces
    {
        type            empty;
    }
}


// ************************************************************************* //
