/*--------------------------------*- C++ -*----------------------------------*\
  =========                 |
  \\      /  F ield         | OpenFOAM: The Open Source CFD Toolbox
   \\    /   O peration     | Website:  https://openfoam.org
    \\  /    A nd           | Version:  8
     \\/     M anipulation  |
\*---------------------------------------------------------------------------*/
FoamFile
{
    version     2.0;
    format      ascii;
    class       volScalarField;
    location    "3.2";
    object      p;
}
// * * * * * * * * * * * * * * * * * * * * * * * * * * * * * * * * * * * * * //

dimensions      [1 -1 -2 0 0 0 0];

internalField   nonuniform List<scalar> 
2600
(
1.15913
1.0807
0.979285
1.10329
1.51363
1.9093
2.06947
2.13687
2.07988
1.90804
1.1576
1.04876
0.983483
1.12852
1.55811
1.94375
2.07613
2.14633
2.09202
1.92639
1.16153
1.03373
0.987184
1.15066
1.60285
1.98265
2.07419
2.14112
2.09235
1.93844
1.16721
1.03046
0.989475
1.17527
1.62816
1.96476
2.09734
2.13042
2.06538
1.91635
1.16976
1.02853
0.993803
1.18564
1.6254
1.95834
2.10498
2.13693
2.06708
1.91052
1.17218
1.03098
1.00307
1.19763
1.62952
2.01652
2.10719
2.14189
2.09721
1.93315
1.17065
1.03578
1.00051
1.21174
1.63588
2.02135
2.12207
2.13726
2.09027
1.93277
1.1734
1.03571
1.00661
1.21229
1.63777
2.01901
2.11918
2.1566
2.09208
1.93712
1.16898
1.03998
1.03744
1.24339
1.61864
2.00417
2.11096
2.1565
2.08645
1.95071
1.16471
1.04144
1.05763
1.28149
1.59578
1.93953
2.09981
2.15969
2.09083
1.94509
1.15956
1.04733
1.05912
1.28529
1.55828
1.94196
2.09176
2.15928
2.08994
1.92749
1.15699
1.04316
1.07803
1.31344
1.58437
1.93009
2.08685
2.18303
2.10428
1.91534
1.15498
1.0428
1.07782
1.32522
1.5976
1.93257
2.0973
2.17834
2.105
1.9271
1.15392
1.03946
1.09221
1.32088
1.58436
1.91471
2.08539
2.18963
2.09575
1.92785
1.14544
1.04047
1.12327
1.34301
1.57975
1.88717
2.11208
2.18463
2.08774
1.92424
1.1292
1.03904
1.14321
1.38579
1.54721
1.85534
2.13401
2.20044
2.10971
1.92128
1.11499
1.03671
1.1273
1.37357
1.5168
1.84243
2.09623
2.15832
2.07585
1.90178
1.1052
1.03692
1.11236
1.34096
1.50937
1.83513
2.08134
2.13945
2.06643
1.91472
1.1169
1.0528
1.11673
1.33245
1.48881
1.82329
2.08148
2.15969
2.08774
1.91925
1.11733
1.08287
1.12305
1.31769
1.45363
1.80656
2.07645
2.161
2.08299
1.90971
1.34453
1.09801
1.11907
1.28588
1.41518
1.78108
2.06681
2.15136
2.06908
1.89444
1.59271
1.13132
1.1355
1.25519
1.37084
1.74312
2.04465
2.11828
2.05394
1.88747
1.82249
1.20086
1.16907
1.23431
1.33061
1.69311
2.02151
2.10711
2.05075
1.88874
2.00948
1.30294
1.21249
1.22097
1.29458
1.62886
1.99977
2.10336
2.0522
1.89315
2.1733
1.41548
1.25799
1.22241
1.26417
1.5614
1.97886
2.10284
2.04656
1.88728
2.30918
1.53679
1.30382
1.22688
1.24122
1.48721
1.95163
2.09096
2.03335
1.87726
2.42467
1.65927
1.3635
1.23349
1.22828
1.41243
1.9062
2.07471
2.02054
1.87012
2.52227
1.76657
1.44201
1.26419
1.22572
1.35142
1.84362
2.06012
2.01372
1.86582
2.60851
1.86685
1.51202
1.32037
1.22869
1.31177
1.77138
2.0475
2.01071
1.86564
2.68499
1.96554
1.56877
1.37052
1.24326
1.29041
1.69753
2.03175
2.00629
1.86027
2.75108
2.06128
1.63534
1.40782
1.26445
1.28017
1.62429
2.00676
1.99857
1.85098
2.81075
2.14721
1.71415
1.44684
1.28206
1.27978
1.55272
1.9712
1.98857
1.84203
2.8649
2.22639
1.79042
1.50082
1.29921
1.28025
1.48525
1.92529
1.98357
1.83498
2.91453
2.30093
1.85659
1.56201
1.3254
1.28
1.42745
1.87491
1.97801
1.82945
2.95908
2.37065
1.92027
1.61564
1.36797
1.28171
1.38116
1.82012
1.96973
1.82199
2.9995
2.43381
1.98505
1.66442
1.41304
1.28833
1.34607
1.7624
1.95658
1.81075
3.03628
2.49151
2.0483
1.71737
1.45159
1.30111
1.32145
1.69939
1.9401
1.79893
3.07008
2.54567
2.10754
1.77267
1.49273
1.31511
1.30374
1.63188
1.91978
1.78789
3.10151
2.59674
2.16443
1.82467
1.53954
1.33052
1.29508
1.56436
1.89566
1.77758
3.13082
2.64532
2.21917
1.87439
1.58647
1.35185
1.2937
1.50125
1.86744
1.76523
5.67257
5.38035
5.16951
4.9612
4.76455
4.58383
4.39736
4.19452
3.89914
3.6004
5.2459
4.97402
4.84571
4.69965
4.56392
4.41945
4.2533
4.04841
3.74997
3.35778
5.08677
4.89657
4.80206
4.67906
4.56153
4.42366
4.25696
4.04685
3.74847
3.36502
4.89624
4.7687
4.70451
4.60068
4.49851
4.36755
4.20869
4.00101
3.71167
3.32463
4.74383
4.66333
4.6155
4.52043
4.4308
4.30983
4.16183
3.958
3.67931
3.29054
4.63165
4.56396
4.52287
4.44493
4.36919
4.25547
4.11623
3.91686
3.65043
3.27244
4.53088
4.48105
4.45164
4.3843
4.31099
4.19735
4.06474
3.87163
3.62171
3.26782
4.44237
4.40721
4.38364
4.32178
4.24822
4.1351
4.0091
3.82591
3.59564
3.27193
4.37017
4.34464
4.32058
4.26144
4.18821
4.07813
3.95963
3.78706
3.57468
3.28069
4.31391
4.28841
4.26079
4.20434
4.13392
4.02956
3.91904
3.75681
3.55992
3.292
4.26955
4.23835
4.20767
4.15378
4.08814
3.99088
3.88761
3.73564
3.5512
3.30536
4.2298
4.19287
4.16082
4.10956
4.04916
3.95896
3.86111
3.71819
3.54574
3.32079
4.19221
4.15164
4.11953
4.07134
4.01535
3.93246
3.83839
3.70397
3.5434
3.33694
4.15794
4.11635
4.08483
4.03913
3.98611
3.90932
3.81893
3.69329
3.54328
3.35289
4.12724
4.08641
4.05581
4.01158
3.96082
3.88861
3.80314
3.6845
3.54468
3.36866
4.09982
4.06042
4.03089
3.98765
3.93854
3.87022
3.78981
3.67798
3.54703
3.38409
4.07556
4.03764
4.00901
3.96683
3.91911
3.85421
3.77822
3.67394
3.54984
3.3988
4.05484
4.01801
3.98997
3.94897
3.90263
3.84074
3.76842
3.6714
3.55352
3.41282
4.03769
4.00151
3.97376
3.93397
3.889
3.82976
3.76049
3.66968
3.55812
3.42618
4.02359
3.98764
3.96005
3.92151
3.87793
3.8212
3.75446
3.66843
3.56347
3.43862
1.00312
1.00982
1.01733
1.02588
1.03555
1.04662
1.06038
1.07154
2.60948
4.38285
1.00312
1.00982
1.01733
1.02588
1.03556
1.04662
1.06038
1.07161
2.60691
4.37624
1.00312
1.00982
1.01733
1.02587
1.03556
1.04661
1.06038
1.07166
2.59311
4.37012
1.00312
1.00982
1.01733
1.02587
1.03556
1.0466
1.06038
1.07172
2.57441
4.35844
1.00312
1.00982
1.01733
1.02587
1.03556
1.0466
1.06038
1.07175
2.55127
4.34329
1.00312
1.00982
1.01733
1.02587
1.03556
1.04659
1.06038
1.07168
2.52336
4.31916
1.00312
1.00982
1.01733
1.02587
1.03557
1.04658
1.06039
1.07158
2.49015
4.29138
1.00312
1.00982
1.01733
1.02587
1.03557
1.04658
1.06041
1.0715
2.45299
4.26046
1.00312
1.00982
1.01733
1.02586
1.03557
1.04657
1.06042
1.07146
2.41586
4.23221
1.00312
1.00982
1.01733
1.02586
1.03558
1.04656
1.06044
1.07145
2.37956
4.20836
1.00312
1.00982
1.01734
1.02586
1.03558
1.04655
1.06045
1.07144
2.34397
4.18794
1.00312
1.00982
1.01734
1.02586
1.03558
1.04655
1.06046
1.07143
2.30846
4.16667
1.00312
1.00982
1.01734
1.02586
1.03558
1.04654
1.06047
1.07142
2.27184
4.1428
1.00312
1.00982
1.01734
1.02586
1.03559
1.04654
1.06048
1.07142
2.23369
4.11792
1.00312
1.00982
1.01734
1.02586
1.03559
1.04653
1.06049
1.07142
2.19501
4.09326
1.00312
1.00982
1.01734
1.02585
1.03559
1.04653
1.0605
1.07142
2.15665
4.06904
1.00312
1.00982
1.01734
1.02585
1.03559
1.04653
1.0605
1.07142
2.11865
4.04536
1.00312
1.00982
1.01734
1.02585
1.03559
1.04652
1.06051
1.07143
2.0802
4.02313
1.00312
1.00982
1.01734
1.02585
1.03559
1.04652
1.06051
1.07143
2.04117
4.00271
1.00312
1.00982
1.01734
1.02585
1.0356
1.04652
1.06051
1.07144
2.00188
3.98378
1.00312
1.00982
1.01734
1.02585
1.0356
1.04652
1.06051
1.07144
2.00171
3.98426
1.00312
1.00982
1.01734
1.02585
1.03559
1.04652
1.06051
1.07143
2.041
4.00319
1.00312
1.00982
1.01734
1.02585
1.03559
1.04652
1.06051
1.07143
2.08002
4.02361
1.00312
1.00982
1.01734
1.02585
1.03559
1.04653
1.0605
1.07142
2.11848
4.04584
1.00312
1.00982
1.01734
1.02585
1.03559
1.04653
1.0605
1.07142
2.15651
4.06948
1.00312
1.00982
1.01734
1.02586
1.03559
1.04653
1.06049
1.07142
2.19492
4.09365
1.00312
1.00982
1.01734
1.02586
1.03559
1.04654
1.06048
1.07142
2.23364
4.11825
1.00312
1.00982
1.01734
1.02586
1.03558
1.04654
1.06047
1.07142
2.27182
4.14309
1.00312
1.00982
1.01734
1.02586
1.03558
1.04655
1.06046
1.07143
2.30845
4.16692
1.00312
1.00982
1.01734
1.02586
1.03558
1.04655
1.06045
1.07144
2.34396
4.18814
1.00312
1.00982
1.01733
1.02586
1.03558
1.04656
1.06044
1.07145
2.37956
4.20849
1.00312
1.00982
1.01733
1.02586
1.03557
1.04657
1.06042
1.07146
2.41588
4.23226
1.00312
1.00982
1.01733
1.02587
1.03557
1.04658
1.06041
1.0715
2.45302
4.26049
1.00312
1.00982
1.01733
1.02587
1.03557
1.04658
1.06039
1.07158
2.49022
4.29143
1.00312
1.00982
1.01733
1.02587
1.03556
1.04659
1.06038
1.07168
2.52347
4.31925
1.00312
1.00982
1.01733
1.02587
1.03556
1.0466
1.06038
1.07176
2.5514
4.34341
1.00312
1.00982
1.01733
1.02587
1.03556
1.0466
1.06038
1.07172
2.57454
4.3586
1.00312
1.00982
1.01733
1.02587
1.03556
1.04661
1.06038
1.07166
2.59321
4.37025
1.00312
1.00982
1.01733
1.02588
1.03556
1.04662
1.06038
1.07161
2.60698
4.37631
1.00312
1.00982
1.01733
1.02588
1.03555
1.04662
1.06038
1.07159
2.6095
4.38288
4.0243
3.98828
3.96058
3.92181
3.8779
3.82072
3.75337
3.66664
3.56073
3.43535
4.03836
4.00205
3.97415
3.93409
3.88875
3.82899
3.7591
3.66756
3.5551
3.42282
4.05544
4.01844
3.99022
3.94889
3.90215
3.8397
3.76671
3.66895
3.55031
3.40942
4.0761
4.03796
4.0091
3.96656
3.9184
3.85293
3.7762
3.67123
3.54649
3.39542
4.10026
4.06061
4.03081
3.98719
3.93761
3.8687
3.7875
3.67513
3.5436
3.38079
4.12756
4.08645
4.05555
4.01091
3.95967
3.88689
3.80061
3.68156
3.54121
3.36556
4.15813
4.11625
4.08439
4.03828
3.98476
3.90745
3.81627
3.69027
3.53986
3.35006
4.1923
4.15141
4.11894
4.07033
4.01386
3.93045
3.83565
3.70094
3.54014
3.33442
4.22979
4.19251
4.16013
4.10843
4.04758
3.95686
3.85837
3.71522
3.54267
3.3185
4.26944
4.23788
4.20691
4.1526
4.08655
3.98874
3.88495
3.73279
3.54835
3.30329
4.31373
4.28787
4.25996
4.20315
4.13237
4.02747
3.91638
3.75403
3.55714
3.29026
4.36986
4.34406
4.31971
4.26025
4.18666
4.07604
3.95693
3.78426
3.57189
3.27934
4.44198
4.4066
4.38279
4.32062
4.24666
4.133
4.00645
3.82319
3.5929
3.27132
4.53046
4.48045
4.45087
4.38323
4.3095
4.19539
4.06232
3.8692
3.61935
3.26842
4.63127
4.56341
4.52218
4.44395
4.36786
4.25378
4.11423
3.91488
3.64859
3.27522
4.74352
4.66281
4.61483
4.51951
4.42962
4.30842
4.16019
3.95642
3.67775
3.29472
4.89596
4.76823
4.70388
4.5998
4.49745
4.3663
4.20728
3.99943
3.71084
3.32849
5.08659
4.89617
4.8015
4.67825
4.56051
4.4224
4.25557
4.04562
3.74842
3.36882
5.24582
4.97369
4.84521
4.6989
4.56289
4.41813
4.25178
4.04728
3.74983
3.36327
5.67271
5.38024
5.16919
4.96061
4.7637
4.58267
4.39594
4.19344
3.89886
3.60406
3.12783
2.64557
2.22027
1.87049
1.58265
1.3557
1.29895
1.49956
1.87192
1.76926
3.09873
2.59783
2.16597
1.82025
1.53232
1.33832
1.30667
1.57096
1.90093
1.78014
3.06764
2.54751
2.10996
1.76522
1.48251
1.32598
1.32165
1.64787
1.92544
1.7899
3.03437
2.49466
2.05095
1.70528
1.44043
1.31493
1.3475
1.72309
1.94531
1.80059
2.99832
2.43945
1.98729
1.64625
1.40105
1.30548
1.38435
1.79153
1.96025
1.8129
2.95917
2.37861
1.92076
1.59162
1.35599
1.30061
1.43224
1.84904
1.9716
1.82556
2.91551
2.31133
1.85418
1.53023
1.31581
1.29905
1.49041
1.8977
1.97847
1.83259
2.8669
2.23911
1.78603
1.46018
1.29441
1.29841
1.55908
1.93881
1.9838
1.83972
2.81262
2.16284
1.70718
1.39601
1.28338
1.30803
1.6322
1.97371
1.99134
1.84791
2.75385
2.07957
1.62332
1.34668
1.26967
1.32694
1.70098
2.00075
2.00296
1.8565
2.68871
1.9881
1.54543
1.30059
1.25445
1.35982
1.76618
2.02274
2.01171
1.86668
2.61502
1.89317
1.47802
1.24495
1.24181
1.40847
1.82999
2.04147
2.01494
1.87387
2.53209
1.79423
1.40155
1.19828
1.2341
1.47285
1.88963
2.05658
2.01285
1.8742
2.43597
1.69065
1.31283
1.17091
1.23566
1.54575
1.93692
2.07018
2.01958
1.87479
2.32102
1.57141
1.24053
1.15531
1.25392
1.61623
1.96868
2.08423
2.03314
1.88114
2.18328
1.4544
1.18767
1.13771
1.27792
1.6803
1.98853
2.0981
2.04792
1.89236
2.01736
1.34537
1.13828
1.10854
1.30672
1.74755
2.00465
2.10863
2.05425
1.90178
1.82795
1.24991
1.07995
1.08303
1.34473
1.80983
2.02109
2.11504
2.04757
1.90437
1.58968
1.17804
1.03245
1.07076
1.39868
1.85474
2.04455
2.11988
2.04735
1.89709
1.36469
1.11948
0.995865
1.07961
1.45979
1.88382
2.06143
2.12689
2.05881
1.89632
3.60301
3.35925
3.07752
2.7793
2.46418
2.1441
1.83747
1.56807
1.26327
0.970608
3.6007
3.3553
3.07158
2.77348
2.45902
2.13993
1.83432
1.56322
1.25942
0.973562
3.59555
3.34893
3.06525
2.76563
2.45084
2.13271
1.82829
1.5545
1.25295
0.978619
3.58892
3.33991
3.05423
2.75285
2.4385
2.12169
1.81903
1.54141
1.2449
0.986585
3.58083
3.3277
3.03923
2.73655
2.42233
2.1072
1.80649
1.52398
1.23576
0.99812
3.57026
3.31247
3.02066
2.71626
2.40227
2.08903
1.79046
1.50225
1.22709
1.01377
3.55636
3.295
2.99938
2.69223
2.37794
2.06693
1.77036
1.47629
1.2198
1.03424
3.53817
3.27397
2.97453
2.66428
2.34955
2.04099
1.7463
1.44674
1.21415
1.06228
3.51689
3.24972
2.94681
2.6325
2.3171
2.01124
1.71773
1.41482
1.20712
1.10059
3.49257
3.22155
2.91485
2.59691
2.28059
1.9777
1.68451
1.38175
1.19672
1.15365
3.4671
3.19045
2.8796
2.5571
2.24027
1.94025
1.6467
1.34913
1.18686
1.21645
3.44131
3.15665
2.83947
2.5131
2.19572
1.89895
1.60413
1.3201
1.18542
1.28453
3.41552
3.12004
2.79525
2.46415
2.14743
1.85322
1.55776
1.29832
1.19255
1.36031
3.3892
3.07988
2.74535
2.41016
2.09474
1.80329
1.50809
1.28387
1.21632
1.43605
3.36151
3.03505
2.68922
2.35038
2.03757
1.74784
1.45864
1.27281
1.26131
1.51175
3.33138
2.98465
2.62673
2.28423
1.97532
1.68669
1.41062
1.26465
1.33408
1.58329
3.29794
2.92749
2.55663
2.21166
1.90598
1.61907
1.37138
1.26312
1.43763
1.64297
3.26027
2.86308
2.47864
2.13066
1.83097
1.54371
1.33733
1.27895
1.56585
1.68853
3.21763
2.79126
2.39129
2.04309
1.745
1.46982
1.3116
1.32785
1.69575
1.72383
3.16832
2.71099
2.29685
1.94589
1.65483
1.39601
1.30074
1.4087
1.8075
1.75188
3.17155
2.71287
2.29724
1.94957
1.65479
1.39762
1.29924
1.41647
1.80494
1.7454
3.22095
2.79452
2.39425
2.04451
1.74553
1.46658
1.31134
1.33712
1.70059
1.71878
3.26328
2.86688
2.4814
2.13398
1.82843
1.53849
1.33787
1.28776
1.58059
1.68861
3.30037
2.93124
2.56069
2.21444
1.90469
1.61256
1.37015
1.26737
1.45778
1.64726
3.33317
2.98792
2.63066
2.28773
1.9752
1.68052
1.40717
1.26655
1.35295
1.59506
3.3626
3.03787
2.69308
2.35443
2.03857
1.74481
1.45486
1.27266
1.27289
1.52505
3.38966
3.08188
2.74886
2.4137
2.09731
1.80247
1.50479
1.28394
1.22094
1.44804
3.41539
3.12135
2.79777
2.46792
2.15037
1.85422
1.55656
1.29783
1.19345
1.36797
3.44077
3.15718
2.84165
2.51599
2.19886
1.90108
1.60399
1.31954
1.18524
1.2885
3.46626
3.19046
2.88066
2.55954
2.24308
1.94248
1.64778
1.34953
1.1865
1.21736
3.49159
3.22113
2.91549
2.59852
2.28275
1.97988
1.68617
1.38214
1.19639
1.1525
3.51587
3.24906
2.94683
2.63345
2.31859
2.01295
1.71926
1.41606
1.20684
1.0988
3.53723
3.27321
2.97426
2.6646
2.35034
2.04212
1.74762
1.44791
1.214
1.06058
3.55558
3.29428
2.99885
2.69207
2.37814
2.06741
1.77115
1.47742
1.22003
1.03285
3.56971
3.31187
3.02004
2.71574
2.40191
2.0889
1.79066
1.50297
1.22762
1.01284
3.58059
3.32724
3.03859
2.73578
2.42157
2.1065
1.80612
1.52422
1.23617
0.997452
3.58898
3.33961
3.05363
2.75192
2.43739
2.12053
1.81814
1.54106
1.24511
0.986146
3.59583
3.34878
3.06467
2.76464
2.44952
2.1312
1.82698
1.55364
1.25265
0.978314
3.60117
3.35525
3.07086
2.77239
2.45755
2.13823
1.83275
1.56199
1.25878
0.973289
3.60361
3.35928
3.07696
2.77811
2.46261
2.14226
1.83572
1.56657
1.26236
0.970365
4.00965
3.97314
3.94574
3.90837
3.86621
3.81247
3.74862
3.66812
3.57199
3.4564
3.9959
3.95847
3.93162
3.89543
3.85484
3.80425
3.7445
3.67117
3.5842
3.47945
3.98548
3.94739
3.92169
3.88674
3.84762
3.79982
3.74408
3.67717
3.59598
3.50059
3.97862
3.94011
3.91574
3.88206
3.84431
3.79886
3.74559
3.68347
3.60783
3.51991
3.9751
3.93634
3.91242
3.87957
3.843
3.79965
3.74881
3.68987
3.62025
3.53796
3.97449
3.93554
3.91164
3.87942
3.84373
3.8022
3.75341
3.69708
3.63249
3.55495
3.97638
3.93697
3.91311
3.88136
3.8464
3.8064
3.75941
3.70551
3.64471
3.5715
3.98026
3.94016
3.91656
3.88542
3.85133
3.81276
3.7678
3.7161
3.65824
3.58883
3.98565
3.94502
3.92199
3.89203
3.85929
3.82232
3.77964
3.72991
3.67444
3.60792
3.99222
3.9519
3.93024
3.90227
3.87137
3.83599
3.79528
3.74704
3.69306
3.62875
4.00067
3.96221
3.9431
3.91725
3.88794
3.85344
3.81371
3.76641
3.71337
3.65062
4.01413
3.97862
3.96172
3.93692
3.90807
3.87323
3.83312
3.78576
3.73268
3.67129
4.03917
4.00324
3.98415
3.95666
3.92624
3.89113
3.85086
3.8034
3.75047
3.68963
4.0733
4.03101
4.00516
3.97376
3.94139
3.90398
3.86292
3.81628
3.76388
3.70409
4.08524
4.04229
4.01726
3.98379
3.9501
3.91399
3.87227
3.82515
3.77349
3.71544
4.0879
4.0445
4.02118
3.98958
3.95674
3.92022
3.8777
3.83194
3.78168
3.72535
4.08782
4.04498
4.02165
3.9907
3.95896
3.92351
3.88225
3.83862
3.78878
3.73312
4.08462
4.04289
4.01966
3.98968
3.95877
3.9243
3.88495
3.8429
3.79409
3.73846
4.08109
4.03987
4.0177
3.98909
3.95868
3.92481
3.88624
3.8453
3.7976
3.74231
4.07915
4.03789
4.01652
3.98897
3.95916
3.92522
3.88699
3.84616
3.79902
3.74389
1.00312
1.00981
1.01734
1.02585
1.0356
1.04652
1.06052
1.07144
1.95272
3.96184
1.00312
1.00981
1.01734
1.02585
1.0356
1.04652
1.06052
1.07144
1.89429
3.93708
1.00312
1.00981
1.01734
1.02585
1.0356
1.04651
1.06052
1.07145
1.83699
3.91405
1.00312
1.00981
1.01734
1.02585
1.0356
1.04651
1.06052
1.07145
1.78123
3.89258
1.00312
1.00981
1.01734
1.02585
1.0356
1.04651
1.06052
1.07145
1.72745
3.87273
1.00312
1.00981
1.01734
1.02585
1.0356
1.04651
1.06053
1.07145
1.67605
3.85444
1.00312
1.00981
1.01734
1.02585
1.0356
1.04651
1.06053
1.07146
1.62723
3.83763
1.00312
1.00981
1.01734
1.02584
1.0356
1.04651
1.06053
1.07147
1.58092
3.82215
1.00312
1.00981
1.01734
1.02584
1.03561
1.04651
1.06054
1.07148
1.53657
3.80776
1.00312
1.00981
1.01734
1.02584
1.03561
1.0465
1.06054
1.07149
1.49316
3.79402
1.00312
1.00981
1.01735
1.02584
1.03561
1.0465
1.06055
1.07152
1.44921
3.78014
1.00312
1.00981
1.01735
1.02584
1.03561
1.04649
1.06056
1.07155
1.40418
3.76497
1.00312
1.00981
1.01735
1.02584
1.03562
1.04649
1.06057
1.07158
1.36141
3.74824
1.00312
1.00981
1.01735
1.02583
1.03562
1.04648
1.06059
1.0716
1.32691
3.73117
1.00312
1.00981
1.01735
1.02583
1.03563
1.04648
1.06061
1.07162
1.30185
3.71744
1.00312
1.00981
1.01735
1.02583
1.03563
1.04647
1.06063
1.07165
1.28305
3.70612
1.00312
1.00981
1.01735
1.02583
1.03564
1.04646
1.06065
1.07168
1.2706
3.69672
1.00312
1.00981
1.01735
1.02583
1.03564
1.04646
1.06066
1.07171
1.26251
3.68898
1.00312
1.00981
1.01735
1.02583
1.03564
1.04646
1.06065
1.07173
1.25898
3.6836
1.00312
1.00981
1.01736
1.02582
1.03565
1.04645
1.06068
1.07176
1.25745
3.68073
1.00312
1.00981
1.01736
1.02582
1.03565
1.04645
1.06068
1.07176
1.25753
3.68092
1.00312
1.00981
1.01735
1.02583
1.03564
1.04646
1.06065
1.07173
1.25904
3.68374
1.00312
1.00981
1.01735
1.02583
1.03564
1.04646
1.06066
1.07171
1.26254
3.68908
1.00312
1.00981
1.01735
1.02583
1.03564
1.04646
1.06065
1.07168
1.27062
3.69677
1.00312
1.00981
1.01735
1.02583
1.03563
1.04647
1.06063
1.07165
1.28306
3.70611
1.00312
1.00981
1.01735
1.02583
1.03563
1.04648
1.06061
1.07162
1.30184
3.71739
1.00312
1.00981
1.01735
1.02583
1.03562
1.04648
1.06059
1.0716
1.32691
3.73108
1.00312
1.00981
1.01735
1.02584
1.03562
1.04649
1.06057
1.07158
1.3614
3.74814
1.00312
1.00981
1.01735
1.02584
1.03561
1.04649
1.06056
1.07155
1.40417
3.76488
1.00312
1.00981
1.01735
1.02584
1.03561
1.0465
1.06055
1.07152
1.44919
3.78008
1.00312
1.00981
1.01734
1.02584
1.03561
1.0465
1.06054
1.07149
1.49312
3.79397
1.00312
1.00981
1.01734
1.02584
1.03561
1.04651
1.06054
1.07148
1.53651
3.80774
1.00312
1.00981
1.01734
1.02584
1.0356
1.04651
1.06053
1.07147
1.58084
3.82217
1.00312
1.00981
1.01734
1.02585
1.0356
1.04651
1.06053
1.07146
1.62714
3.83771
1.00312
1.00981
1.01734
1.02585
1.0356
1.04651
1.06053
1.07145
1.67594
3.85459
1.00312
1.00981
1.01734
1.02585
1.0356
1.04651
1.06052
1.07145
1.72732
3.87296
1.00312
1.00981
1.01734
1.02585
1.0356
1.04651
1.06052
1.07145
1.78109
3.89289
1.00312
1.00981
1.01734
1.02585
1.0356
1.04651
1.06052
1.07145
1.83684
3.91442
1.00312
1.00981
1.01734
1.02585
1.0356
1.04652
1.06052
1.07144
1.89413
3.93751
1.00312
1.00981
1.01734
1.02585
1.0356
1.04652
1.06052
1.07144
1.95255
3.96231
4.0793
4.038
4.01657
3.98894
3.95903
3.92496
3.88658
3.84558
3.79828
3.74308
4.08122
4.03995
4.01773
3.98906
3.95857
3.92458
3.88588
3.84481
3.797
3.74164
4.08473
4.04295
4.01967
3.98964
3.95867
3.92412
3.88468
3.84256
3.79368
3.73799
4.08787
4.045
4.02163
3.99062
3.95888
3.92337
3.88206
3.83844
3.78859
3.73292
4.08788
4.04446
4.02112
3.98947
3.95665
3.92009
3.87757
3.83186
3.78167
3.72541
4.08516
4.04218
4.01713
3.98364
3.95001
3.91394
3.87223
3.82521
3.77366
3.71574
4.07313
4.03084
4.005
3.97362
3.94129
3.90397
3.86301
3.8165
3.76426
3.70463
4.03895
4.00303
3.98397
3.95654
3.9262
3.89121
3.85105
3.8038
3.75105
3.69038
4.01392
3.97842
3.96158
3.93684
3.90809
3.87341
3.83344
3.7863
3.73345
3.67223
4.0005
3.96208
3.94303
3.91727
3.88808
3.85376
3.81419
3.76713
3.71428
3.65167
3.99211
3.95186
3.93029
3.90241
3.87165
3.83646
3.7959
3.74789
3.69408
3.62987
3.98562
3.9451
3.92217
3.89233
3.85975
3.82295
3.78041
3.73086
3.6755
3.60898
3.98033
3.94038
3.91689
3.88588
3.85194
3.81353
3.76869
3.7171
3.65925
3.58972
3.97658
3.93733
3.91359
3.88198
3.84715
3.80726
3.76035
3.70648
3.64558
3.57211
3.97484
3.93605
3.91226
3.88016
3.84457
3.8031
3.7543
3.69791
3.6331
3.5551
3.97558
3.93698
3.91315
3.88039
3.84386
3.80052
3.74957
3.69046
3.62046
3.53753
3.97923
3.94085
3.91652
3.88286
3.84509
3.79958
3.74613
3.68369
3.60751
3.51884
3.98618
3.94819
3.92248
3.88749
3.84827
3.80034
3.7443
3.67694
3.59503
3.49889
3.99665
3.95928
3.93238
3.89607
3.8553
3.80442
3.74422
3.67042
3.58263
3.47709
4.0104
3.97388
3.94641
3.90886
3.86644
3.81229
3.74786
3.66676
3.56974
3.45342
)
;

boundaryField
{
    inlet
    {
        type            fixedValue;
        value           uniform 1;
    }
    outlet
    {
        type            zeroGradient;
    }
    triangle
    {
        type            zeroGradient;
    }
    top
    {
        type            symmetryPlane;
    }
    bottom
    {
        type            symmetryPlane;
    }
    defaultFaces
    {
        type            empty;
    }
}


// ************************************************************************* //
