/*--------------------------------*- C++ -*----------------------------------*\
  =========                 |
  \\      /  F ield         | OpenFOAM: The Open Source CFD Toolbox
   \\    /   O peration     | Website:  https://openfoam.org
    \\  /    A nd           | Version:  8
     \\/     M anipulation  |
\*---------------------------------------------------------------------------*/
FoamFile
{
    version     2.0;
    format      ascii;
    class       volScalarField;
    location    "3.2";
    object      T;
}
// * * * * * * * * * * * * * * * * * * * * * * * * * * * * * * * * * * * * * //

dimensions      [0 0 0 1 0 0 0];

internalField   nonuniform List<scalar> 
2600
(
1.41665
1.33586
1.15619
1.14555
1.21489
1.28642
1.31036
1.30952
1.296
1.26012
1.46066
1.38561
1.203
1.1763
1.23892
1.3098
1.32051
1.31557
1.30061
1.26634
1.4733
1.40103
1.24701
1.21378
1.27084
1.34773
1.3414
1.32492
1.3062
1.27466
1.47561
1.40123
1.28246
1.26156
1.3088
1.39406
1.38943
1.3447
1.3116
1.28252
1.47459
1.40069
1.31911
1.31494
1.35769
1.46467
1.46059
1.38409
1.33088
1.30402
1.47309
1.40831
1.36563
1.37832
1.43118
1.55901
1.54062
1.43934
1.36891
1.34414
1.47089
1.42217
1.40556
1.44468
1.51584
1.62385
1.60136
1.49913
1.41643
1.38853
1.47179
1.43094
1.43342
1.49066
1.57703
1.65103
1.62341
1.55283
1.47311
1.43111
1.47143
1.43547
1.45415
1.51971
1.59552
1.65562
1.62558
1.57995
1.51765
1.4626
1.47104
1.43616
1.46206
1.53423
1.59551
1.64181
1.62142
1.58823
1.54303
1.47434
1.4697
1.43732
1.4621
1.53578
1.58806
1.63834
1.61058
1.58726
1.55029
1.47364
1.4689
1.43328
1.46708
1.5467
1.5961
1.62178
1.58194
1.58486
1.5521
1.46717
1.46736
1.43113
1.46278
1.54984
1.59569
1.57955
1.52871
1.5575
1.53735
1.45325
1.46518
1.42697
1.46205
1.53865
1.56215
1.50345
1.45544
1.50733
1.49662
1.41977
1.46017
1.42283
1.46083
1.51769
1.49439
1.42182
1.39761
1.44315
1.43775
1.37338
1.4533
1.41779
1.44575
1.47765
1.40541
1.35786
1.3592
1.39233
1.38546
1.32826
1.44778
1.41128
1.40667
1.40491
1.32851
1.31713
1.32828
1.34955
1.33852
1.29207
1.44141
1.39623
1.35235
1.32692
1.27772
1.2894
1.31435
1.32672
1.31353
1.27601
1.43102
1.36114
1.29125
1.26692
1.24125
1.27015
1.31012
1.32079
1.30617
1.26739
1.38976
1.30499
1.23242
1.22173
1.21185
1.25684
1.30902
1.31654
1.30026
1.26115
1.35678
1.23736
1.18338
1.18441
1.18724
1.24707
1.30988
1.31353
1.29617
1.2566
1.32983
1.20119
1.1549
1.15544
1.16661
1.23918
1.30935
1.30863
1.29371
1.25489
1.32407
1.19151
1.14274
1.13766
1.15383
1.231
1.30805
1.30757
1.29354
1.25518
1.32719
1.19191
1.13922
1.12914
1.14531
1.21944
1.30596
1.3072
1.29419
1.25639
1.33976
1.19789
1.14074
1.12898
1.13801
1.20571
1.30176
1.307
1.29334
1.25564
1.35821
1.21404
1.14892
1.13161
1.13221
1.18947
1.29408
1.30411
1.29047
1.2538
1.37854
1.23724
1.16543
1.13543
1.12866
1.17256
1.28205
1.29999
1.2871
1.25224
1.39772
1.26051
1.18765
1.14421
1.12816
1.15791
1.26641
1.29607
1.28481
1.25117
1.41453
1.28261
1.20637
1.15817
1.1291
1.14757
1.24816
1.29266
1.28362
1.25087
1.42797
1.30314
1.22017
1.16955
1.13305
1.14088
1.22902
1.28943
1.28273
1.24947
1.43774
1.32119
1.23449
1.17719
1.13884
1.13608
1.21062
1.28634
1.2815
1.24709
1.44499
1.3356
1.2499
1.18493
1.14315
1.1332
1.19406
1.28352
1.27882
1.24467
1.45057
1.3475
1.26351
1.19596
1.14577
1.13213
1.17911
1.2788
1.2762
1.24259
1.45526
1.35791
1.27439
1.2083
1.14976
1.13214
1.16614
1.27044
1.27356
1.24079
1.45935
1.36729
1.28456
1.21868
1.15819
1.13313
1.15536
1.25727
1.27105
1.23873
1.46308
1.37572
1.29498
1.22791
1.16778
1.13561
1.14641
1.24124
1.26822
1.23633
1.46648
1.38355
1.30529
1.23802
1.17609
1.1397
1.13894
1.22455
1.26523
1.23427
1.46955
1.39109
1.31508
1.24862
1.18511
1.14363
1.13259
1.20878
1.26198
1.23274
1.4723
1.39829
1.32459
1.25851
1.19539
1.14635
1.13019
1.19329
1.25835
1.2316
1.47477
1.40503
1.33368
1.26783
1.20545
1.15032
1.1299
1.17863
1.2541
1.23001
1.85166
1.82417
1.80025
1.77388
1.74706
1.72127
1.69483
1.66615
1.62549
1.59833
1.80087
1.77074
1.75239
1.73196
1.71258
1.69199
1.66882
1.6406
1.60002
1.55055
1.76293
1.73752
1.72116
1.70369
1.68817
1.67077
1.64995
1.62335
1.58488
1.53251
1.71547
1.69879
1.6881
1.67407
1.66131
1.64599
1.62758
1.60293
1.56735
1.5162
1.67866
1.67129
1.66593
1.6551
1.64475
1.63095
1.61401
1.59014
1.55667
1.50824
1.66974
1.66199
1.65756
1.64906
1.64018
1.62668
1.61005
1.58616
1.55375
1.50726
1.66525
1.6596
1.65692
1.64955
1.64043
1.62622
1.60952
1.58556
1.5543
1.50985
1.65908
1.65546
1.65416
1.64824
1.63963
1.62544
1.60895
1.58528
1.55552
1.51387
1.65049
1.64793
1.64683
1.64221
1.63525
1.6227
1.60746
1.58468
1.55627
1.51714
1.64063
1.63731
1.63505
1.63075
1.62563
1.61597
1.60336
1.5825
1.55573
1.51871
1.63107
1.62611
1.62214
1.61721
1.613
1.60576
1.59609
1.57804
1.55346
1.51888
1.62267
1.61638
1.61098
1.60492
1.60051
1.59426
1.58658
1.57141
1.54965
1.51837
1.61566
1.60881
1.60267
1.59564
1.5902
1.5838
1.57682
1.56399
1.54524
1.51747
1.61002
1.6033
1.59712
1.5896
1.58289
1.57554
1.56832
1.55697
1.54079
1.51652
1.60533
1.5991
1.59336
1.58586
1.5783
1.56978
1.56178
1.55086
1.53666
1.5156
1.60112
1.59548
1.59038
1.58327
1.57547
1.56618
1.55722
1.5461
1.53306
1.51469
1.59708
1.59197
1.58753
1.58105
1.57351
1.56404
1.55435
1.54286
1.53014
1.51377
1.59318
1.58846
1.58458
1.5788
1.57184
1.56271
1.55274
1.54098
1.52809
1.51298
1.58942
1.58495
1.58149
1.57638
1.57013
1.56167
1.55187
1.54008
1.52696
1.51246
1.58577
1.58141
1.57825
1.5737
1.56815
1.5605
1.55119
1.53962
1.52657
1.51232
1.00089
1.0028
1.00492
1.00732
1.01003
1.0131
1.0169
1.01992
1.42202
1.69024
1.00089
1.0028
1.00492
1.00732
1.01003
1.0131
1.0169
1.01994
1.42214
1.68745
1.00089
1.0028
1.00492
1.00732
1.01003
1.01309
1.0169
1.01995
1.4203
1.68407
1.00089
1.00279
1.00492
1.00732
1.01003
1.01309
1.0169
1.01996
1.41785
1.68283
1.00089
1.00279
1.00492
1.00732
1.01003
1.01309
1.0169
1.01997
1.4138
1.68361
1.00089
1.00279
1.00492
1.00732
1.01003
1.01309
1.0169
1.01995
1.40606
1.68227
1.00089
1.00279
1.00492
1.00732
1.01003
1.01309
1.0169
1.01993
1.3959
1.67826
1.00089
1.00279
1.00492
1.00732
1.01003
1.01308
1.0169
1.01991
1.38508
1.67103
1.00089
1.00279
1.00492
1.00732
1.01003
1.01308
1.01691
1.0199
1.37481
1.66165
1.00089
1.00279
1.00492
1.00732
1.01004
1.01308
1.01691
1.01989
1.36505
1.65172
1.00089
1.00279
1.00492
1.00732
1.01004
1.01308
1.01692
1.01989
1.35563
1.64247
1.00089
1.00279
1.00492
1.00732
1.01004
1.01308
1.01692
1.01989
1.34644
1.63391
1.00089
1.00279
1.00492
1.00732
1.01004
1.01308
1.01692
1.01989
1.33736
1.62604
1.00089
1.00279
1.00492
1.00732
1.01004
1.01307
1.01692
1.01989
1.32829
1.61909
1.00089
1.00279
1.00492
1.00732
1.01004
1.01307
1.01693
1.01989
1.31934
1.61299
1.00089
1.00279
1.00492
1.00732
1.01004
1.01307
1.01693
1.01989
1.31055
1.60759
1.00089
1.00279
1.00492
1.00732
1.01004
1.01307
1.01693
1.01989
1.30185
1.60278
1.00089
1.00279
1.00492
1.00732
1.01004
1.01307
1.01693
1.01989
1.29301
1.59854
1.00089
1.00279
1.00492
1.00732
1.01004
1.01307
1.01693
1.01989
1.28399
1.59483
1.00089
1.00279
1.00492
1.00732
1.01004
1.01307
1.01693
1.01989
1.27478
1.59153
1.00089
1.00279
1.00492
1.00732
1.01004
1.01307
1.01693
1.01989
1.27473
1.59162
1.00089
1.00279
1.00492
1.00732
1.01004
1.01307
1.01693
1.01989
1.28394
1.59492
1.00089
1.00279
1.00492
1.00732
1.01004
1.01307
1.01693
1.01989
1.29297
1.59863
1.00089
1.00279
1.00492
1.00732
1.01004
1.01307
1.01693
1.01989
1.30181
1.60286
1.00089
1.00279
1.00492
1.00732
1.01004
1.01307
1.01693
1.01989
1.31052
1.60766
1.00089
1.00279
1.00492
1.00732
1.01004
1.01307
1.01693
1.01989
1.31932
1.61305
1.00089
1.00279
1.00492
1.00732
1.01004
1.01307
1.01692
1.01989
1.32829
1.61915
1.00089
1.00279
1.00492
1.00732
1.01004
1.01308
1.01692
1.01989
1.33737
1.6261
1.00089
1.00279
1.00492
1.00732
1.01004
1.01308
1.01692
1.01989
1.34646
1.63397
1.00089
1.00279
1.00492
1.00732
1.01004
1.01308
1.01692
1.01989
1.35564
1.64252
1.00089
1.00279
1.00492
1.00732
1.01004
1.01308
1.01691
1.01989
1.36507
1.65176
1.00089
1.00279
1.00492
1.00732
1.01003
1.01308
1.01691
1.0199
1.37482
1.66166
1.00089
1.00279
1.00492
1.00732
1.01003
1.01308
1.0169
1.01991
1.3851
1.67103
1.00089
1.00279
1.00492
1.00732
1.01003
1.01309
1.0169
1.01993
1.39592
1.67825
1.00089
1.00279
1.00492
1.00732
1.01003
1.01309
1.0169
1.01995
1.40608
1.68226
1.00089
1.00279
1.00492
1.00732
1.01003
1.01309
1.0169
1.01997
1.41382
1.68361
1.00089
1.00279
1.00492
1.00732
1.01003
1.01309
1.0169
1.01996
1.41787
1.68284
1.00089
1.0028
1.00492
1.00732
1.01003
1.01309
1.0169
1.01995
1.42032
1.68407
1.00089
1.0028
1.00492
1.00732
1.01003
1.0131
1.0169
1.01994
1.42215
1.68745
1.00089
1.0028
1.00492
1.00732
1.01003
1.0131
1.0169
1.01993
1.42202
1.69024
1.58582
1.58145
1.57828
1.57369
1.5681
1.56038
1.55099
1.53932
1.52615
1.51183
1.58948
1.58498
1.5815
1.57635
1.57005
1.56151
1.55163
1.53973
1.52648
1.51196
1.59323
1.58849
1.58457
1.57875
1.57174
1.56252
1.55245
1.54059
1.52759
1.51247
1.59714
1.592
1.58752
1.58099
1.57338
1.56382
1.55402
1.54243
1.52963
1.51328
1.60117
1.5955
1.59036
1.58319
1.57532
1.56593
1.55685
1.54566
1.53255
1.51422
1.60538
1.59912
1.59333
1.58576
1.57812
1.5695
1.56139
1.55042
1.53618
1.51518
1.61008
1.60331
1.59708
1.58949
1.58268
1.57524
1.56793
1.55655
1.54034
1.51615
1.61572
1.60882
1.60262
1.59551
1.58998
1.5835
1.57645
1.5636
1.54483
1.51715
1.62272
1.61638
1.61091
1.60477
1.60029
1.59398
1.58624
1.57106
1.54928
1.51808
1.63111
1.62609
1.62206
1.61706
1.6128
1.6055
1.59579
1.57772
1.55312
1.51861
1.64066
1.63728
1.63497
1.63061
1.62546
1.61575
1.60308
1.58219
1.55539
1.51846
1.65051
1.6479
1.64676
1.6421
1.6351
1.62248
1.60717
1.58435
1.5559
1.5169
1.65908
1.65543
1.6541
1.64813
1.63947
1.62521
1.60863
1.58493
1.55514
1.5137
1.66524
1.65957
1.65687
1.64945
1.64027
1.62599
1.60922
1.58523
1.55394
1.50991
1.66973
1.66195
1.65749
1.64896
1.64002
1.62647
1.60978
1.58587
1.55344
1.50762
1.67863
1.67123
1.66585
1.65498
1.64459
1.63076
1.61378
1.5899
1.55636
1.50887
1.71539
1.69871
1.688
1.67395
1.66116
1.64581
1.62738
1.60269
1.56715
1.51706
1.76287
1.73744
1.72107
1.70357
1.68803
1.6706
1.64976
1.62316
1.58478
1.53342
1.80085
1.77069
1.75233
1.73186
1.71246
1.69183
1.66864
1.64045
1.59994
1.55126
1.85167
1.82416
1.80022
1.77382
1.74697
1.72115
1.69468
1.66604
1.62543
1.59863
1.47434
1.40505
1.33385
1.26713
1.20472
1.15093
1.13123
1.17825
1.25535
1.23109
1.4719
1.39844
1.32484
1.2577
1.19392
1.14788
1.13311
1.19451
1.25951
1.2324
1.4692
1.39136
1.31547
1.2472
1.18294
1.14581
1.1373
1.21151
1.263
1.23341
1.46621
1.38403
1.3057
1.23563
1.17365
1.14273
1.14547
1.22824
1.26602
1.23489
1.46292
1.3766
1.29528
1.22421
1.16512
1.13958
1.1556
1.24516
1.26863
1.23708
1.45938
1.36856
1.28448
1.21369
1.15559
1.13762
1.16735
1.26062
1.27108
1.23972
1.45542
1.35958
1.27367
1.20157
1.14764
1.13697
1.18067
1.27285
1.27346
1.24145
1.45089
1.34958
1.26225
1.18721
1.1438
1.13755
1.19556
1.28032
1.27648
1.24317
1.44531
1.33817
1.24787
1.17399
1.14131
1.14184
1.2113
1.28429
1.27961
1.24529
1.43823
1.32422
1.23104
1.16432
1.13777
1.14829
1.22732
1.28642
1.28254
1.24764
1.4287
1.30693
1.21383
1.1553
1.13414
1.15761
1.24336
1.28859
1.28412
1.25034
1.41595
1.28699
1.19739
1.14203
1.1331
1.17012
1.25907
1.29149
1.28466
1.25248
1.40024
1.26473
1.17741
1.12841
1.13317
1.18612
1.27387
1.29481
1.28462
1.25309
1.38234
1.24111
1.15319
1.11925
1.13398
1.20393
1.2862
1.29841
1.28653
1.25348
1.36358
1.21634
1.13333
1.11298
1.13848
1.22004
1.2946
1.302
1.28981
1.25493
1.34647
1.19811
1.12117
1.10547
1.14319
1.23301
1.29845
1.30489
1.29274
1.25717
1.33482
1.19094
1.11379
1.09633
1.14916
1.24481
1.29944
1.3062
1.2935
1.25867
1.33191
1.19457
1.10717
1.09519
1.15866
1.25448
1.29965
1.30622
1.29147
1.25874
1.33298
1.21478
1.10881
1.10152
1.17405
1.26253
1.30167
1.30604
1.29066
1.25719
1.36698
1.26383
1.12216
1.11969
1.19393
1.27234
1.30508
1.3067
1.29221
1.25724
1.49696
1.47047
1.43674
1.39802
1.3523
1.29926
1.24133
1.18368
1.10995
1.02833
1.49685
1.47005
1.43602
1.39727
1.35156
1.29858
1.24074
1.18264
1.10901
1.02919
1.49673
1.46951
1.43544
1.39643
1.3505
1.29746
1.23963
1.18078
1.10747
1.03067
1.49671
1.46885
1.43448
1.39513
1.34898
1.29579
1.23797
1.17803
1.1056
1.03304
1.49666
1.46806
1.43331
1.39361
1.34704
1.29361
1.23573
1.17438
1.10352
1.0365
1.49642
1.46717
1.43198
1.39174
1.34462
1.29087
1.23286
1.16983
1.10162
1.04122
1.49589
1.46626
1.43053
1.38949
1.34158
1.28747
1.22923
1.16439
1.10013
1.04744
1.49498
1.46513
1.42879
1.38672
1.33787
1.28338
1.22483
1.15817
1.0991
1.05615
1.49386
1.46375
1.42675
1.38338
1.33345
1.27858
1.21951
1.15143
1.09766
1.06823
1.49258
1.46196
1.42413
1.37938
1.32826
1.27303
1.2132
1.14441
1.09517
1.0846
1.49141
1.45984
1.42093
1.37459
1.32233
1.2667
1.20589
1.1374
1.09298
1.10276
1.49046
1.45738
1.41689
1.36898
1.31558
1.25957
1.19745
1.13117
1.09291
1.12164
1.4898
1.45458
1.41207
1.3624
1.30806
1.25152
1.188
1.12691
1.09493
1.14138
1.4893
1.45133
1.40632
1.35488
1.29964
1.24251
1.17748
1.125
1.10137
1.1597
1.4887
1.44751
1.39962
1.34629
1.29026
1.23222
1.16673
1.12387
1.11343
1.17651
1.48773
1.443
1.39198
1.33652
1.27974
1.22045
1.15648
1.12061
1.13409
1.19127
1.4862
1.43758
1.3831
1.32544
1.2676
1.20689
1.14855
1.11893
1.16129
1.20386
1.48403
1.43103
1.37271
1.31253
1.25395
1.19116
1.14165
1.12292
1.19402
1.21337
1.48121
1.42313
1.3603
1.2979
1.23757
1.17535
1.13539
1.1365
1.22379
1.22109
1.47755
1.4135
1.34603
1.28085
1.21962
1.15933
1.13221
1.15678
1.24469
1.22788
1.47802
1.41379
1.3461
1.28151
1.21956
1.15998
1.13163
1.15849
1.24353
1.22644
1.48168
1.42361
1.36078
1.29813
1.23765
1.17476
1.13518
1.13862
1.22404
1.22032
1.48445
1.43157
1.37314
1.3131
1.25344
1.19007
1.14185
1.12506
1.19742
1.2135
1.48652
1.43809
1.38371
1.3259
1.26735
1.20552
1.14834
1.12016
1.16645
1.20473
1.48796
1.44343
1.39256
1.33709
1.27972
1.21918
1.1558
1.12068
1.13904
1.19375
1.48883
1.44787
1.40017
1.34694
1.29044
1.23162
1.16597
1.12318
1.11713
1.17924
1.48934
1.45157
1.40681
1.35544
1.3001
1.24235
1.17678
1.12502
1.10269
1.16256
1.48976
1.45472
1.41242
1.36299
1.30857
1.25171
1.18774
1.12686
1.09517
1.14342
1.49037
1.45743
1.41718
1.36943
1.31611
1.25998
1.19743
1.13106
1.09286
1.12275
1.49128
1.45982
1.42108
1.37497
1.32281
1.26712
1.20611
1.13748
1.09291
1.10301
1.49244
1.4619
1.42422
1.37963
1.32862
1.27343
1.21355
1.14449
1.09513
1.08423
1.49372
1.46367
1.42676
1.38353
1.33369
1.27888
1.21982
1.15171
1.0976
1.06767
1.49485
1.46504
1.42876
1.38677
1.338
1.28358
1.22509
1.15843
1.09906
1.05562
1.49579
1.46618
1.43047
1.38947
1.34161
1.28755
1.22939
1.16464
1.10018
1.04703
1.49635
1.4671
1.4319
1.39167
1.34456
1.29085
1.2329
1.16999
1.10175
1.04094
1.49664
1.46801
1.43323
1.3935
1.34692
1.29349
1.23566
1.17443
1.10362
1.0363
1.49673
1.46882
1.4344
1.395
1.34881
1.29558
1.2378
1.17795
1.10565
1.03291
1.49677
1.46949
1.43536
1.39628
1.35029
1.2972
1.23938
1.1806
1.1074
1.03058
1.49692
1.47005
1.43592
1.39711
1.35133
1.29828
1.24043
1.18237
1.10885
1.0291
1.49704
1.47048
1.43666
1.39784
1.35205
1.29894
1.24099
1.18335
1.10972
1.02825
1.58125
1.57685
1.57387
1.56972
1.56478
1.55808
1.54965
1.53894
1.52657
1.51271
1.57592
1.57137
1.56853
1.56467
1.56021
1.55439
1.54712
1.53781
1.52657
1.51344
1.57081
1.56614
1.56351
1.55988
1.55576
1.55055
1.54421
1.53619
1.52604
1.51391
1.56593
1.56119
1.55877
1.55536
1.55148
1.54667
1.54086
1.53381
1.52479
1.51385
1.5614
1.5566
1.55429
1.55103
1.54734
1.54284
1.53742
1.53096
1.52302
1.51322
1.5574
1.55253
1.55024
1.54709
1.54355
1.5393
1.53417
1.52811
1.52097
1.51206
1.55402
1.54906
1.54678
1.54369
1.54025
1.53621
1.53132
1.52558
1.51896
1.51074
1.55129
1.5462
1.54394
1.54092
1.53757
1.5337
1.52906
1.52359
1.51736
1.50966
1.54915
1.54395
1.54174
1.53883
1.53562
1.53192
1.52756
1.52236
1.51645
1.50919
1.54751
1.54232
1.54025
1.53757
1.53459
1.53109
1.52698
1.52197
1.51627
1.50931
1.54633
1.54133
1.53964
1.53726
1.53449
1.53111
1.52711
1.52222
1.51663
1.50986
1.54557
1.54094
1.53965
1.53751
1.53488
1.53155
1.52759
1.52275
1.5172
1.51064
1.54534
1.54076
1.53946
1.5373
1.53479
1.5317
1.52792
1.52321
1.51781
1.51142
1.54603
1.54077
1.53877
1.53635
1.53392
1.53091
1.52738
1.52309
1.51798
1.51187
1.54677
1.54097
1.53842
1.53531
1.53248
1.52959
1.52627
1.52233
1.51763
1.51195
1.54835
1.54209
1.53901
1.5354
1.53202
1.5286
1.52493
1.5212
1.51696
1.51182
1.55053
1.54409
1.54046
1.53627
1.53239
1.52851
1.5244
1.52049
1.51622
1.51137
1.55284
1.54637
1.54236
1.53778
1.53341
1.52903
1.52453
1.52022
1.51565
1.51076
1.55456
1.54806
1.54398
1.53931
1.53463
1.52981
1.52489
1.52025
1.51546
1.51046
1.55518
1.54866
1.54459
1.53995
1.53521
1.53023
1.52514
1.52033
1.51546
1.51041
1.00089
1.00279
1.00492
1.00732
1.01004
1.01307
1.01693
1.01989
1.26298
1.58781
1.00089
1.00279
1.00492
1.00732
1.01004
1.01307
1.01693
1.01989
1.24858
1.58363
1.00089
1.00279
1.00492
1.00732
1.01004
1.01307
1.01694
1.01989
1.23404
1.57971
1.00089
1.00279
1.00492
1.00732
1.01004
1.01307
1.01694
1.01989
1.2195
1.57606
1.00089
1.00279
1.00492
1.00732
1.01004
1.01307
1.01694
1.01989
1.20515
1.57278
1.00089
1.00279
1.00492
1.00731
1.01004
1.01307
1.01694
1.01989
1.19123
1.56999
1.00089
1.00279
1.00492
1.00731
1.01004
1.01307
1.01694
1.0199
1.17788
1.56774
1.00089
1.00279
1.00492
1.00731
1.01004
1.01307
1.01694
1.0199
1.16514
1.56603
1.00089
1.00279
1.00492
1.00731
1.01004
1.01307
1.01694
1.0199
1.1529
1.5648
1.00089
1.00279
1.00492
1.00731
1.01004
1.01306
1.01694
1.01991
1.14095
1.56395
1.00089
1.00279
1.00492
1.00731
1.01004
1.01306
1.01694
1.01991
1.12891
1.56349
1.00089
1.00279
1.00492
1.00731
1.01005
1.01306
1.01695
1.01992
1.11642
1.56336
1.00089
1.00279
1.00492
1.00731
1.01005
1.01306
1.01695
1.01993
1.10403
1.56357
1.00089
1.00279
1.00492
1.00731
1.01005
1.01306
1.01695
1.01993
1.09382
1.56427
1.00089
1.00279
1.00493
1.00731
1.01005
1.01306
1.01696
1.01994
1.08705
1.56579
1.00089
1.00279
1.00493
1.00731
1.01005
1.01306
1.01697
1.01994
1.08271
1.56793
1.00089
1.00279
1.00493
1.00731
1.01005
1.01305
1.01697
1.01995
1.08057
1.57049
1.00089
1.00279
1.00493
1.00731
1.01005
1.01305
1.01698
1.01996
1.07987
1.57307
1.00089
1.00279
1.00493
1.00731
1.01005
1.01305
1.01697
1.01996
1.08018
1.57494
1.00089
1.00279
1.00493
1.00731
1.01006
1.01305
1.01698
1.01997
1.08039
1.57557
1.00089
1.00279
1.00493
1.00731
1.01006
1.01305
1.01698
1.01997
1.08042
1.5756
1.00089
1.00279
1.00493
1.00731
1.01005
1.01305
1.01697
1.01996
1.0802
1.57496
1.00089
1.00279
1.00493
1.00731
1.01005
1.01305
1.01698
1.01996
1.07988
1.57308
1.00089
1.00279
1.00493
1.00731
1.01005
1.01305
1.01697
1.01995
1.08057
1.57049
1.00089
1.00279
1.00493
1.00731
1.01005
1.01306
1.01697
1.01994
1.08271
1.56792
1.00089
1.00279
1.00493
1.00731
1.01005
1.01306
1.01696
1.01994
1.08705
1.56578
1.00089
1.00279
1.00492
1.00731
1.01005
1.01306
1.01695
1.01993
1.09382
1.56426
1.00089
1.00279
1.00492
1.00731
1.01005
1.01306
1.01695
1.01993
1.10403
1.56355
1.00089
1.00279
1.00492
1.00731
1.01005
1.01306
1.01695
1.01992
1.11643
1.56335
1.00089
1.00279
1.00492
1.00731
1.01004
1.01306
1.01694
1.01991
1.12891
1.56347
1.00089
1.00279
1.00492
1.00731
1.01004
1.01306
1.01694
1.01991
1.14095
1.56394
1.00089
1.00279
1.00492
1.00731
1.01004
1.01307
1.01694
1.0199
1.15289
1.56479
1.00089
1.00279
1.00492
1.00731
1.01004
1.01307
1.01694
1.0199
1.16512
1.56603
1.00089
1.00279
1.00492
1.00731
1.01004
1.01307
1.01694
1.0199
1.17785
1.56774
1.00089
1.00279
1.00492
1.00731
1.01004
1.01307
1.01694
1.01989
1.19119
1.57
1.00089
1.00279
1.00492
1.00732
1.01004
1.01307
1.01694
1.01989
1.20511
1.57281
1.00089
1.00279
1.00492
1.00732
1.01004
1.01307
1.01694
1.01989
1.21945
1.57611
1.00089
1.00279
1.00492
1.00732
1.01004
1.01307
1.01694
1.01989
1.23399
1.57978
1.00089
1.00279
1.00492
1.00732
1.01004
1.01307
1.01693
1.01989
1.24853
1.58371
1.00089
1.00279
1.00492
1.00732
1.01004
1.01307
1.01693
1.01989
1.26293
1.5879
1.55521
1.54868
1.54461
1.53996
1.53521
1.5302
1.52509
1.52025
1.51536
1.51031
1.55459
1.54808
1.54399
1.53932
1.53462
1.52979
1.52485
1.52019
1.51538
1.51038
1.55285
1.54638
1.54237
1.53778
1.5334
1.52901
1.5245
1.52018
1.5156
1.5107
1.55053
1.54409
1.54045
1.53626
1.53238
1.5285
1.52438
1.52047
1.51619
1.51134
1.54834
1.54208
1.53899
1.53539
1.53201
1.52859
1.52492
1.5212
1.51697
1.51182
1.54676
1.54096
1.53841
1.5353
1.53248
1.5296
1.52628
1.52235
1.51766
1.51199
1.54601
1.54076
1.53876
1.53635
1.53393
1.53093
1.52741
1.52313
1.51804
1.51194
1.54533
1.54075
1.53945
1.5373
1.5348
1.53173
1.52796
1.52327
1.5179
1.51152
1.54556
1.54093
1.53965
1.53751
1.5349
1.53159
1.52764
1.52283
1.5173
1.51077
1.54631
1.54132
1.53964
1.53727
1.53452
1.53116
1.52718
1.52232
1.51676
1.51001
1.5475
1.54231
1.54026
1.53759
1.53463
1.53115
1.52706
1.52208
1.5164
1.50946
1.54914
1.54396
1.54176
1.53886
1.53567
1.532
1.52766
1.52248
1.51659
1.50933
1.55128
1.54621
1.54397
1.54096
1.53763
1.53379
1.52916
1.52371
1.51749
1.50978
1.55402
1.54907
1.54681
1.54375
1.54032
1.53629
1.53142
1.52569
1.51907
1.51082
1.5574
1.55256
1.55028
1.54715
1.54362
1.53938
1.53426
1.5282
1.52103
1.51208
1.56142
1.55663
1.55433
1.55109
1.54741
1.54291
1.53749
1.53101
1.52303
1.51316
1.56595
1.56123
1.55882
1.55541
1.55153
1.54672
1.5409
1.53381
1.52473
1.51369
1.57085
1.56619
1.56355
1.55992
1.55579
1.55058
1.54421
1.53613
1.52589
1.51366
1.57596
1.57141
1.56858
1.5647
1.56022
1.55437
1.54705
1.53767
1.52633
1.51309
1.5813
1.57689
1.57391
1.56973
1.56476
1.558
1.5495
1.5387
1.52622
1.51226
)
;

boundaryField
{
    inlet
    {
        type            fixedValue;
        value           uniform 1;
    }
    outlet
    {
        type            inletOutlet;
        inletValue      uniform 1;
        value           nonuniform List<scalar> 
100
(
1.22629
1.22017
1.21337
1.2046
1.19361
1.17909
1.16239
1.14324
1.12258
1.10285
1.08407
1.06752
1.05549
1.0469
1.04082
1.03618
1.03279
1.03046
1.02898
1.02813
1.25629
1.2547
1.25532
1.25628
1.25542
1.25345
1.25206
1.25116
1.2508
1.24929
1.24689
1.24452
1.24249
1.24075
1.23857
1.23611
1.23407
1.2326
1.23147
1.22985
1.25954
1.26596
1.2746
1.28329
1.30401
1.34415
1.38875
1.43107
1.46254
1.47408
1.47371
1.467
1.45249
1.41938
1.37303
1.32744
1.29171
1.27634
1.26705
1.26067
1.23091
1.23225
1.23327
1.23472
1.23689
1.23953
1.24135
1.24307
1.24512
1.2474
1.25008
1.25233
1.25321
1.25337
1.2547
1.25679
1.25847
1.25887
1.25734
1.25701
1.02821
1.02908
1.03056
1.03292
1.03638
1.04109
1.04732
1.05601
1.0681
1.08446
1.10263
1.1215
1.14124
1.15956
1.17636
1.1911
1.20368
1.21319
1.22094
1.22772
)
;
    }
    triangle
    {
        type            zeroGradient;
    }
    top
    {
        type            symmetryPlane;
    }
    bottom
    {
        type            symmetryPlane;
    }
    defaultFaces
    {
        type            empty;
    }
}


// ************************************************************************* //
