/*--------------------------------*- C++ -*----------------------------------*\
  =========                 |
  \\      /  F ield         | OpenFOAM: The Open Source CFD Toolbox
   \\    /   O peration     | Website:  https://openfoam.org
    \\  /    A nd           | Version:  8
     \\/     M anipulation  |
\*---------------------------------------------------------------------------*/
FoamFile
{
    version     2.0;
    format      ascii;
    class       volVectorField;
    location    "3.2";
    object      U;
}
// * * * * * * * * * * * * * * * * * * * * * * * * * * * * * * * * * * * * * //

dimensions      [0 1 -1 0 0 0 0];

internalField   nonuniform List<vector> 
2600
(
(0.720479 0.049909 0)
(1.38009 0.165859 0)
(1.64408 0.376314 0)
(1.71871 0.442411 0)
(1.538 0.279155 0)
(1.46491 0.0942041 0)
(1.48452 0.0708052 0)
(1.42722 0.0660694 0)
(1.42564 0.0445687 0)
(1.45653 0.00556063 0)
(0.24746 -0.126261 0)
(0.964074 0.118958 0)
(1.5119 0.337073 0)
(1.69384 0.421566 0)
(1.52842 0.258905 0)
(1.4567 0.0692896 0)
(1.48308 0.064715 0)
(1.42635 0.0636242 0)
(1.42433 0.043916 0)
(1.45262 0.000931602 0)
(0.037194 -0.130575 0)
(0.547163 0.0475262 0)
(1.27027 0.277094 0)
(1.6293 0.396913 0)
(1.50918 0.232118 0)
(1.43113 0.0413961 0)
(1.46899 0.0663482 0)
(1.42455 0.0683875 0)
(1.42234 0.0469569 0)
(1.44588 -0.00289152 0)
(-0.0471821 -0.157753 0)
(0.251997 -0.0170011 0)
(0.952616 0.200131 0)
(1.50153 0.35481 0)
(1.46506 0.212299 0)
(1.36352 0.0451243 0)
(1.41149 0.0474733 0)
(1.41525 0.0780662 0)
(1.41626 0.0628824 0)
(1.43006 0.00968422 0)
(-0.104489 -0.155292 0)
(0.057544 -0.074589 0)
(0.620777 0.110035 0)
(1.30187 0.289092 0)
(1.37322 0.211001 0)
(1.20789 0.0642388 0)
(1.26734 0.0380483 0)
(1.37621 0.0718953 0)
(1.39202 0.0630188 0)
(1.39473 0.0212803 0)
(-0.151009 -0.159938 0)
(-0.0936077 -0.107087 0)
(0.302227 0.0268512 0)
(1.01315 0.232709 0)
(1.17562 0.194881 0)
(0.927697 0.049871 0)
(1.01802 0.0210529 0)
(1.27795 0.0665225 0)
(1.33829 0.0491391 0)
(1.3288 0.0131455 0)
(-0.191308 -0.147577 0)
(-0.223501 -0.113185 0)
(-0.0053793 -0.0466195 0)
(0.635866 0.144543 0)
(0.832005 0.185306 0)
(0.573868 0.0472858 0)
(0.716986 0.00654325 0)
(1.10839 0.034933 0)
(1.24399 0.0445237 0)
(1.235 0.0171763 0)
(-0.220942 -0.122289 0)
(-0.338412 -0.102147 0)
(-0.285408 -0.0669166 0)
(0.194574 0.10132 0)
(0.403252 0.203589 0)
(0.27412 0.0659776 0)
(0.492663 -0.0278993 0)
(0.898976 0.0290166 0)
(1.11079 0.0641546 0)
(1.13513 0.020484 0)
(-0.231381 -0.0846282 0)
(-0.426984 -0.0904316 0)
(-0.481345 -0.0648 0)
(-0.191396 0.0988546 0)
(0.0364747 0.213874 0)
(0.133358 0.0652771 0)
(0.403354 -0.0533183 0)
(0.732651 -0.0113439 0)
(0.970431 0.0325116 0)
(1.06516 0.020198 0)
(-0.248936 -0.0471057 0)
(-0.475738 -0.0792506 0)
(-0.566739 -0.0660057 0)
(-0.417804 0.104465 0)
(-0.145993 0.215274 0)
(0.120205 0.0335639 0)
(0.400887 -0.0875371 0)
(0.653008 -0.0176058 0)
(0.875292 0.0389704 0)
(1.03722 0.0186609 0)
(-0.252714 -0.00298346 0)
(-0.486509 -0.0617543 0)
(-0.579049 -0.0824388 0)
(-0.488711 0.0677708 0)
(-0.173821 0.162334 0)
(0.206806 -0.00815726 0)
(0.478566 -0.110103 0)
(0.645412 -0.0418927 0)
(0.845202 0.0264628 0)
(1.03507 0.0128996 0)
(-0.24065 0.0392264 0)
(-0.465443 -0.0397075 0)
(-0.553313 -0.0979183 0)
(-0.470377 0.0131029 0)
(-0.101227 0.105362 0)
(0.477638 -0.0235474 0)
(0.672697 -0.0985491 0)
(0.691718 -0.0666838 0)
(0.851882 0.00666184 0)
(1.05352 0.0156466 0)
(-0.220658 0.0757546 0)
(-0.400435 -0.0142871 0)
(-0.466162 -0.0761258 0)
(-0.348752 0.00634635 0)
(0.129143 0.0446541 0)
(0.855588 -0.0878067 0)
(0.925747 -0.127399 0)
(0.821419 -0.0380567 0)
(0.913807 -0.00285897 0)
(1.1134 0.00761605 0)
(-0.196175 0.107097 0)
(-0.292414 0.00918667 0)
(-0.282397 -0.0530983 0)
(-0.0721344 0.00190854 0)
(0.516054 0.00966637 0)
(1.18615 -0.097829 0)
(1.14545 -0.112503 0)
(1.00612 -0.0621761 0)
(1.04487 -0.023555 0)
(1.21416 -0.00681975 0)
(-0.159559 0.125576 0)
(-0.157437 0.0189201 0)
(0.00655099 -0.0586435 0)
(0.340981 -0.0258682 0)
(0.945582 -0.0458858 0)
(1.38724 -0.138747 0)
(1.28187 -0.113786 0)
(1.17371 -0.0377376 0)
(1.19746 -0.00619682 0)
(1.32426 0.003346 0)
(-0.114343 0.128304 0)
(0.00733825 0.00701024 0)
(0.36882 -0.104708 0)
(0.791594 -0.0742755 0)
(1.29033 -0.127568 0)
(1.48666 -0.159842 0)
(1.34356 -0.0960057 0)
(1.28425 -0.0277393 0)
(1.31771 -0.00160573 0)
(1.40819 -0.00479117 0)
(-0.0563745 0.136728 0)
(0.229797 -0.0355604 0)
(0.765495 -0.163063 0)
(1.17647 -0.149069 0)
(1.50315 -0.187027 0)
(1.52816 -0.165486 0)
(1.36242 -0.116132 0)
(1.33985 -0.0470866 0)
(1.3847 -0.0212013 0)
(1.45476 -0.0143062 0)
(0.0408972 0.120132 0)
(0.557357 -0.0889748 0)
(1.13978 -0.228817 0)
(1.44517 -0.202631 0)
(1.60906 -0.215866 0)
(1.54088 -0.164191 0)
(1.37116 -0.115896 0)
(1.36285 -0.0523167 0)
(1.4123 -0.0214737 0)
(1.47226 -0.00299192 0)
(0.276633 0.105441 0)
(0.97546 -0.160119 0)
(1.42165 -0.268799 0)
(1.58654 -0.227087 0)
(1.65726 -0.23873 0)
(1.54571 -0.168789 0)
(1.37467 -0.113682 0)
(1.36833 -0.0417765 0)
(1.41855 -0.0107328 0)
(1.47764 8.76513e-05 0)
(0.774676 -0.0884365 0)
(1.35196 -0.198245 0)
(1.58051 -0.288742 0)
(1.64825 -0.243316 0)
(1.67267 -0.267229 0)
(1.54621 -0.18024 0)
(1.37836 -0.113308 0)
(1.37131 -0.0415353 0)
(1.42096 -0.0131895 0)
(1.47931 -0.00380212 0)
(1.35299 -0.0150474 0)
(1.57596 -0.226069 0)
(1.65477 -0.319745 0)
(1.67552 -0.275197 0)
(1.67599 -0.290284 0)
(1.55097 -0.18981 0)
(1.38635 -0.115817 0)
(1.37601 -0.0461351 0)
(1.424 -0.0176858 0)
(1.48058 -0.00729327 0)
(1.48354 0.107613 0)
(1.66228 -0.215483 0)
(1.68575 -0.33104 0)
(1.68428 -0.309556 0)
(1.67828 -0.309276 0)
(1.57028 -0.201658 0)
(1.39682 -0.120948 0)
(1.38383 -0.0574724 0)
(1.43035 -0.0239821 0)
(1.48271 -0.00735422 0)
(1.47914 0.137934 0)
(1.67463 -0.197903 0)
(1.68511 -0.336118 0)
(1.68966 -0.336626 0)
(1.68525 -0.332513 0)
(1.59004 -0.21655 0)
(1.40839 -0.123551 0)
(1.39522 -0.0651148 0)
(1.43785 -0.0240638 0)
(1.48628 -0.0036644 0)
(1.43028 0.171757 0)
(1.65204 -0.15402 0)
(1.67629 -0.318977 0)
(1.68835 -0.363492 0)
(1.69208 -0.368076 0)
(1.60437 -0.236989 0)
(1.4237 -0.123408 0)
(1.41139 -0.0650597 0)
(1.44699 -0.0224899 0)
(1.48989 0.00027442 0)
(1.38959 0.181665 0)
(1.62268 -0.126861 0)
(1.66593 -0.29723 0)
(1.6904 -0.375485 0)
(1.69852 -0.400275 0)
(1.61838 -0.271826 0)
(1.44367 -0.126926 0)
(1.42689 -0.0636628 0)
(1.45543 -0.0215788 0)
(1.49352 0.00142278 0)
(1.35893 0.186583 0)
(1.58985 -0.0891871 0)
(1.65507 -0.268565 0)
(1.68857 -0.373 0)
(1.69928 -0.416345 0)
(1.63714 -0.311936 0)
(1.46565 -0.13809 0)
(1.43831 -0.0658026 0)
(1.4626 -0.0235294 0)
(1.49643 -8.89836e-05 0)
(1.33414 0.192097 0)
(1.5668 -0.0736568 0)
(1.64201 -0.245491 0)
(1.68661 -0.360548 0)
(1.69789 -0.421224 0)
(1.65453 -0.346116 0)
(1.48782 -0.154578 0)
(1.44481 -0.0706638 0)
(1.46658 -0.0256809 0)
(1.4975 -0.000589296 0)
(1.31452 0.192999 0)
(1.5402 -0.0427521 0)
(1.6311 -0.232089 0)
(1.67958 -0.349374 0)
(1.69725 -0.42068 0)
(1.66683 -0.373065 0)
(1.51219 -0.174611 0)
(1.44693 -0.0742968 0)
(1.46824 -0.0248677 0)
(1.49834 0.00148141 0)
(1.29549 0.194023 0)
(1.51659 -0.0201856 0)
(1.62 -0.215727 0)
(1.67244 -0.347501 0)
(1.69648 -0.418734 0)
(1.67434 -0.393206 0)
(1.54041 -0.197851 0)
(1.44459 -0.0752958 0)
(1.4689 -0.0233044 0)
(1.49922 0.00461925 0)
(1.27879 0.19144 0)
(1.48866 0.00197446 0)
(1.60369 -0.186053 0)
(1.6647 -0.337165 0)
(1.69441 -0.419671 0)
(1.67845 -0.407525 0)
(1.56638 -0.222536 0)
(1.43892 -0.0775952 0)
(1.46913 -0.0235955 0)
(1.49998 0.0063571 0)
(1.26296 0.189778 0)
(1.46689 0.0131572 0)
(1.58521 -0.162564 0)
(1.65546 -0.314201 0)
(1.69094 -0.419753 0)
(1.67975 -0.416346 0)
(1.58833 -0.249568 0)
(1.43693 -0.0797189 0)
(1.46943 -0.0250458 0)
(1.50112 0.00664326 0)
(1.24856 0.186655 0)
(1.44421 0.0270308 0)
(1.56646 -0.145108 0)
(1.64072 -0.288802 0)
(1.68743 -0.411996 0)
(1.67724 -0.418889 0)
(1.60752 -0.278582 0)
(1.44635 -0.0898729 0)
(1.4699 -0.0280465 0)
(1.50292 0.00792314 0)
(1.23552 0.183432 0)
(1.4231 0.0386593 0)
(1.54919 -0.130655 0)
(1.62582 -0.271623 0)
(1.6826 -0.396692 0)
(1.67303 -0.419082 0)
(1.6238 -0.30583 0)
(1.46194 -0.101624 0)
(1.47112 -0.0301133 0)
(1.50593 0.0100814 0)
(1.22381 0.179763 0)
(1.40261 0.0487541 0)
(1.53047 -0.111576 0)
(1.61203 -0.259071 0)
(1.67045 -0.378957 0)
(1.67217 -0.418345 0)
(1.63618 -0.32788 0)
(1.48315 -0.117072 0)
(1.47509 -0.0315046 0)
(1.51002 0.0129122 0)
(1.21332 0.176337 0)
(1.38443 0.0553615 0)
(1.51164 -0.0951138 0)
(1.5984 -0.242204 0)
(1.65844 -0.367019 0)
(1.67169 -0.416702 0)
(1.6463 -0.345949 0)
(1.50132 -0.130067 0)
(1.48109 -0.0337226 0)
(1.51452 0.0160231 0)
(1.20367 0.172528 0)
(1.36739 0.0608993 0)
(1.4931 -0.0812137 0)
(1.58258 -0.221296 0)
(1.64782 -0.354672 0)
(1.67026 -0.415122 0)
(1.65422 -0.360351 0)
(1.52964 -0.149272 0)
(1.49028 -0.0368281 0)
(1.51954 0.017626 0)
(1.19458 0.168351 0)
(1.35149 0.0654492 0)
(1.47638 -0.0699147 0)
(1.56672 -0.203993 0)
(1.63656 -0.334012 0)
(1.66802 -0.413541 0)
(1.66114 -0.371736 0)
(1.55139 -0.169271 0)
(1.49843 -0.0414299 0)
(1.52363 0.0184695 0)
(1.18583 0.163834 0)
(1.33643 0.0693372 0)
(1.45957 -0.057823 0)
(1.55179 -0.189298 0)
(1.62325 -0.313213 0)
(1.66557 -0.407261 0)
(1.66666 -0.379199 0)
(1.5739 -0.193275 0)
(1.50508 -0.0462026 0)
(1.52608 0.0204052 0)
(1.17718 0.159098 0)
(1.32211 0.0724507 0)
(1.44335 -0.0469163 0)
(1.53767 -0.175187 0)
(1.61093 -0.296192 0)
(1.66148 -0.396504 0)
(1.67092 -0.382984 0)
(1.59124 -0.21525 0)
(1.51117 -0.0508566 0)
(1.52813 0.0224474 0)
(1.16863 0.154326 0)
(1.30834 0.0753415 0)
(1.42804 -0.0372222 0)
(1.52318 -0.160287 0)
(1.5994 -0.279803 0)
(1.65899 -0.386635 0)
(1.67041 -0.382549 0)
(1.60782 -0.238778 0)
(1.52019 -0.0570225 0)
(1.53237 0.0235855 0)
(0.356526 0.0827645 0)
(0.448715 0.131222 0)
(0.499918 0.203949 0)
(0.554535 0.256425 0)
(0.59957 0.298839 0)
(0.644335 0.331245 0)
(0.692436 0.361597 0)
(0.753187 0.391164 0)
(0.836737 0.432167 0)
(0.987849 0.471774 0)
(0.391076 0.116013 0)
(0.459238 0.15027 0)
(0.492068 0.209997 0)
(0.542472 0.256889 0)
(0.588084 0.297917 0)
(0.636759 0.329858 0)
(0.688868 0.360665 0)
(0.752855 0.390767 0)
(0.838994 0.43062 0)
(0.984839 0.45719 0)
(0.451871 0.103728 0)
(0.499428 0.131031 0)
(0.516259 0.18042 0)
(0.557536 0.222944 0)
(0.598282 0.265307 0)
(0.648047 0.301182 0)
(0.702484 0.336455 0)
(0.7694 0.368312 0)
(0.860073 0.407634 0)
(1.01229 0.420335 0)
(0.511517 0.120016 0)
(0.545241 0.145918 0)
(0.55713 0.184695 0)
(0.59364 0.212778 0)
(0.624863 0.247844 0)
(0.667756 0.278469 0)
(0.716284 0.311669 0)
(0.781186 0.340567 0)
(0.872273 0.376972 0)
(1.02364 0.381172 0)
(0.568838 0.11982 0)
(0.594198 0.139953 0)
(0.602823 0.174687 0)
(0.634417 0.203908 0)
(0.659267 0.237692 0)
(0.698402 0.264769 0)
(0.743475 0.29466 0)
(0.805973 0.319553 0)
(0.894905 0.352021 0)
(1.03825 0.350571 0)
(0.625149 0.133377 0)
(0.644052 0.152582 0)
(0.650547 0.182486 0)
(0.677311 0.206322 0)
(0.697718 0.235804 0)
(0.734163 0.258773 0)
(0.776466 0.285975 0)
(0.836671 0.306467 0)
(0.920811 0.333267 0)
(1.05604 0.330439 0)
(0.674931 0.142985 0)
(0.689387 0.158917 0)
(0.69464 0.184284 0)
(0.718312 0.206482 0)
(0.735829 0.234719 0)
(0.769694 0.255193 0)
(0.809221 0.279581 0)
(0.867018 0.296548 0)
(0.946303 0.318005 0)
(1.07042 0.313309 0)
(0.715706 0.151198 0)
(0.726344 0.163657 0)
(0.731503 0.18479 0)
(0.753654 0.20558 0)
(0.769884 0.2333 0)
(0.801772 0.25272 0)
(0.838993 0.274893 0)
(0.894219 0.288833 0)
(0.9683 0.305217 0)
(1.07906 0.298423 0)
(0.748712 0.155848 0)
(0.756531 0.165542 0)
(0.762262 0.182994 0)
(0.782738 0.202794 0)
(0.798683 0.229894 0)
(0.829019 0.248617 0)
(0.863915 0.2686 0)
(0.915564 0.279537 0)
(0.983651 0.291711 0)
(1.08331 0.284986 0)
(0.77494 0.158466 0)
(0.782106 0.166021 0)
(0.788376 0.180305 0)
(0.806727 0.198429 0)
(0.822867 0.22417 0)
(0.852218 0.242979 0)
(0.885584 0.261532 0)
(0.934115 0.270458 0)
(0.996132 0.278769 0)
(1.0856 0.272134 0)
(0.796402 0.159813 0)
(0.804373 0.1659 0)
(0.810685 0.177629 0)
(0.826962 0.193634 0)
(0.843319 0.217223 0)
(0.871669 0.235788 0)
(0.903635 0.252917 0)
(0.949079 0.26053 0)
(1.00619 0.267097 0)
(1.08668 0.260164 0)
(0.814764 0.160776 0)
(0.823722 0.165729 0)
(0.829743 0.175325 0)
(0.844165 0.18862 0)
(0.860609 0.209525 0)
(0.888182 0.228044 0)
(0.919124 0.244812 0)
(0.961398 0.251302 0)
(1.01437 0.256234 0)
(1.087 0.249377 0)
(0.831084 0.162189 0)
(0.840681 0.166233 0)
(0.846352 0.174178 0)
(0.859241 0.184269 0)
(0.874952 0.201213 0)
(0.901772 0.218676 0)
(0.932169 0.23645 0)
(0.972344 0.242891 0)
(1.02088 0.245699 0)
(1.08658 0.239278 0)
(0.845947 0.163442 0)
(0.855713 0.166765 0)
(0.861132 0.173497 0)
(0.872928 0.180764 0)
(0.887188 0.193552 0)
(0.912407 0.208027 0)
(0.94232 0.226358 0)
(0.9812 0.234089 0)
(1.02615 0.235946 0)
(1.08567 0.229912 0)
(0.859421 0.163985 0)
(0.869011 0.166755 0)
(0.874346 0.172615 0)
(0.885372 0.177934 0)
(0.898261 0.187261 0)
(0.920861 0.197952 0)
(0.949096 0.214185 0)
(0.987549 0.224544 0)
(1.03002 0.226585 0)
(1.08457 0.221165 0)
(0.871384 0.163887 0)
(0.880655 0.166185 0)
(0.886041 0.171286 0)
(0.896525 0.175354 0)
(0.908496 0.182248 0)
(0.928404 0.189521 0)
(0.953982 0.202182 0)
(0.990935 0.21362 0)
(1.03231 0.217167 0)
(1.08285 0.212639 0)
(0.881713 0.163035 0)
(0.890703 0.1649 0)
(0.896212 0.169341 0)
(0.906314 0.17262 0)
(0.91775 0.177932 0)
(0.935478 0.182704 0)
(0.958395 0.191667 0)
(0.992291 0.202006 0)
(1.03287 0.207397 0)
(1.08049 0.204186 0)
(0.890532 0.161516 0)
(0.899332 0.162988 0)
(0.905007 0.166842 0)
(0.914821 0.169576 0)
(0.925947 0.173854 0)
(0.942035 0.177015 0)
(0.962614 0.182919 0)
(0.992918 0.190841 0)
(1.03172 0.197245 0)
(1.07723 0.195607 0)
(0.898029 0.159359 0)
(0.90674 0.160487 0)
(0.912622 0.16385 0)
(0.922223 0.166185 0)
(0.933188 0.169784 0)
(0.948234 0.172084 0)
(0.967157 0.175832 0)
(0.994279 0.181041 0)
(1.03036 0.187091 0)
(1.07399 0.187189 0)
(0.904433 0.156699 0)
(0.913115 0.157507 0)
(0.919185 0.160425 0)
(0.92857 0.162399 0)
(0.939381 0.165472 0)
(0.95368 0.167276 0)
(0.971325 0.169618 0)
(0.995629 0.172783 0)
(1.02821 0.177311 0)
(1.07009 0.179005 0)
(2.10865 1.50993e-07 0)
(2.09875 -5.59214e-07 0)
(2.08788 1.23745e-06 0)
(2.07584 -2.7673e-06 0)
(2.06249 4.55938e-06 0)
(2.0479 -9.95363e-06 0)
(2.0299 1.43536e-05 0)
(2.01796 -2.81033e-05 0)
(1.13366 0.0108309 0)
(0.396848 0.0200206 0)
(2.10865 4.40109e-07 0)
(2.09875 -1.62822e-06 0)
(2.08788 3.61231e-06 0)
(2.07584 -7.96226e-06 0)
(2.06249 1.31363e-05 0)
(2.0479 -2.82277e-05 0)
(2.02991 4.46408e-05 0)
(2.01798 -9.3818e-05 0)
(1.13544 0.0339114 0)
(0.433077 0.0484312 0)
(2.10865 7.28426e-07 0)
(2.09875 -2.68599e-06 0)
(2.08788 5.96548e-06 0)
(2.07584 -1.30968e-05 0)
(2.06249 2.15815e-05 0)
(2.0479 -4.55537e-05 0)
(2.02992 7.05208e-05 0)
(2.018 -0.00016669 0)
(1.15043 0.0569862 0)
(0.486875 0.0681226 0)
(2.10865 1.01354e-06 0)
(2.09875 -3.71808e-06 0)
(2.08788 8.25691e-06 0)
(2.07584 -1.80357e-05 0)
(2.06249 2.97775e-05 0)
(2.0479 -6.19637e-05 0)
(2.02993 9.33884e-05 0)
(2.01802 -0.000223968 0)
(1.17387 0.0744196 0)
(0.547896 0.0895119 0)
(2.10865 1.29326e-06 0)
(2.09875 -4.71289e-06 0)
(2.08788 1.04632e-05 0)
(2.07584 -2.27092e-05 0)
(2.06249 3.75252e-05 0)
(2.04791 -7.67176e-05 0)
(2.02994 0.000115755 0)
(2.01795 -0.000370204 0)
(1.19982 0.0885771 0)
(0.608659 0.105786 0)
(2.10865 1.56597e-06 0)
(2.09875 -5.66207e-06 0)
(2.08788 1.25652e-05 0)
(2.07584 -2.70708e-05 0)
(2.06249 4.47602e-05 0)
(2.04791 -8.95084e-05 0)
(2.02995 0.000131139 0)
(2.01778 -0.00044217 0)
(1.22565 0.0996388 0)
(0.660155 0.122792 0)
(2.10865 1.83006e-06 0)
(2.09875 -6.55897e-06 0)
(2.08788 1.45476e-05 0)
(2.07585 -3.10925e-05 0)
(2.06249 5.15365e-05 0)
(2.04792 -0.000102071 0)
(2.02995 0.000151424 0)
(2.01762 -0.000495038 0)
(1.24793 0.108759 0)
(0.70368 0.13544 0)
(2.10865 2.08396e-06 0)
(2.09875 -7.3985e-06 0)
(2.08788 1.63972e-05 0)
(2.07585 -3.47336e-05 0)
(2.06249 5.76215e-05 0)
(2.04792 -0.000112637 0)
(2.02994 0.000170902 0)
(2.01753 -0.000546754 0)
(1.26595 0.118229 0)
(0.738938 0.146422 0)
(2.10865 2.32615e-06 0)
(2.09875 -8.17747e-06 0)
(2.08788 1.81086e-05 0)
(2.07585 -3.80094e-05 0)
(2.06249 6.31846e-05 0)
(2.04793 -0.000122163 0)
(2.02994 0.000189957 0)
(2.01748 -0.000572693 0)
(1.28323 0.127094 0)
(0.767169 0.153666 0)
(2.10865 2.55519e-06 0)
(2.09876 -8.89386e-06 0)
(2.08787 1.96763e-05 0)
(2.07585 -4.09114e-05 0)
(2.06249 6.81597e-05 0)
(2.04794 -0.00013042 0)
(2.02994 0.000207887 0)
(2.01743 -0.000594224 0)
(1.30362 0.134385 0)
(0.789722 0.158537 0)
(2.10865 2.7698e-06 0)
(2.09876 -9.5473e-06 0)
(2.08787 2.11012e-05 0)
(2.07585 -4.34602e-05 0)
(2.06249 7.25993e-05 0)
(2.04794 -0.000137388 0)
(2.02995 0.000223624 0)
(2.01737 -0.000608549 0)
(1.3272 0.139753 0)
(0.808669 0.160561 0)
(2.10865 2.96889e-06 0)
(2.09876 -1.01385e-05 0)
(2.08787 2.23861e-05 0)
(2.07586 -4.56772e-05 0)
(2.06249 7.65437e-05 0)
(2.04795 -0.000143305 0)
(2.02995 0.000237746 0)
(2.0173 -0.000619918 0)
(1.35251 0.143182 0)
(0.825105 0.161354 0)
(2.10865 3.15166e-06 0)
(2.09876 -1.06691e-05 0)
(2.08787 2.35368e-05 0)
(2.07586 -4.75889e-05 0)
(2.06249 8.002e-05 0)
(2.04795 -0.00014818 0)
(2.02996 0.000250057 0)
(2.01723 -0.000626334 0)
(1.37788 0.145064 0)
(0.839924 0.1625 0)
(2.10865 3.31757e-06 0)
(2.09876 -1.11418e-05 0)
(2.08787 2.45611e-05 0)
(2.07586 -4.92281e-05 0)
(2.06249 8.30899e-05 0)
(2.04795 -0.000152288 0)
(2.02997 0.000261013 0)
(2.01717 -0.000629479 0)
(1.40224 0.146076 0)
(0.853709 0.163407 0)
(2.10865 3.46643e-06 0)
(2.09876 -1.15596e-05 0)
(2.08787 2.54675e-05 0)
(2.07586 -5.06238e-05 0)
(2.06249 8.57832e-05 0)
(2.04796 -0.000155666 0)
(2.02997 0.000270578 0)
(2.01712 -0.000628551 0)
(1.42533 0.146448 0)
(0.866445 0.163758 0)
(2.10865 3.59838e-06 0)
(2.09876 -1.19261e-05 0)
(2.08787 2.62658e-05 0)
(2.07586 -5.18066e-05 0)
(2.06249 8.81529e-05 0)
(2.04796 -0.00015847 0)
(2.02998 0.000278928 0)
(2.01708 -0.000625585 0)
(1.44744 0.146243 0)
(0.878032 0.163716 0)
(2.10865 3.71383e-06 0)
(2.09876 -1.22448e-05 0)
(2.08787 2.69646e-05 0)
(2.07586 -5.28006e-05 0)
(2.06249 9.02238e-05 0)
(2.04796 -0.000160702 0)
(2.02998 0.000286017 0)
(2.01705 -0.000620897 0)
(1.46912 0.145562 0)
(0.888354 0.163227 0)
(2.10865 3.8134e-06 0)
(2.09876 -1.25192e-05 0)
(2.08787 2.75723e-05 0)
(2.07586 -5.36295e-05 0)
(2.06249 9.20299e-05 0)
(2.04797 -0.000162443 0)
(2.02999 0.000291946 0)
(2.01702 -0.000614429 0)
(1.4907 0.144811 0)
(0.897568 0.162233 0)
(2.10865 3.8982e-06 0)
(2.09876 -1.27532e-05 0)
(2.08787 2.80974e-05 0)
(2.07586 -5.43142e-05 0)
(2.06249 9.3595e-05 0)
(2.04797 -0.000163749 0)
(2.02999 0.000296863 0)
(2.01699 -0.000607162 0)
(1.51237 0.143961 0)
(0.905835 0.160706 0)
(2.10865 3.9689e-06 0)
(2.09876 -1.29494e-05 0)
(2.08787 2.85446e-05 0)
(2.07587 -5.48674e-05 0)
(2.06249 9.49379e-05 0)
(2.04797 -0.00016468 0)
(2.03 0.000300927 0)
(2.01696 -0.00059868 0)
(1.53433 0.142898 0)
(0.913398 0.158798 0)
(2.10865 -3.96883e-06 0)
(2.09876 1.29503e-05 0)
(2.08787 -2.85472e-05 0)
(2.07587 5.48709e-05 0)
(2.06249 -9.49436e-05 0)
(2.04797 0.000164678 0)
(2.03 -0.000300937 0)
(2.01696 0.000598562 0)
(1.53447 -0.142905 0)
(0.913319 -0.158842 0)
(2.10865 -3.89817e-06 0)
(2.09876 1.27543e-05 0)
(2.08787 -2.81004e-05 0)
(2.07586 5.4318e-05 0)
(2.06249 -9.36004e-05 0)
(2.04797 0.000163747 0)
(2.02999 -0.000296869 0)
(2.01699 0.000607054 0)
(1.5125 -0.143986 0)
(0.905756 -0.160739 0)
(2.10865 -3.81342e-06 0)
(2.09876 1.25205e-05 0)
(2.08787 -2.75757e-05 0)
(2.07586 5.36335e-05 0)
(2.06249 -9.20347e-05 0)
(2.04797 0.000162441 0)
(2.02999 -0.000291948 0)
(2.01702 0.000614333 0)
(1.49083 -0.144854 0)
(0.89749 -0.162257 0)
(2.10865 -3.71393e-06 0)
(2.09876 1.22464e-05 0)
(2.08787 -2.69685e-05 0)
(2.07586 5.2805e-05 0)
(2.06249 -9.02282e-05 0)
(2.04796 0.000160699 0)
(2.02998 -0.000286014 0)
(2.01705 0.000620818 0)
(1.46924 -0.145622 0)
(0.888279 -0.16324 0)
(2.10865 -3.59858e-06 0)
(2.09876 1.1928e-05 0)
(2.08787 -2.62704e-05 0)
(2.07586 5.18116e-05 0)
(2.06249 -8.8157e-05 0)
(2.04796 0.000158465 0)
(2.02998 -0.000278917 0)
(2.01708 0.000625525 0)
(1.44753 -0.146308 0)
(0.877958 -0.163727 0)
(2.10865 -3.46673e-06 0)
(2.09876 1.15619e-05 0)
(2.08787 -2.54729e-05 0)
(2.07586 5.06299e-05 0)
(2.06249 -8.57877e-05 0)
(2.04796 0.00015566 0)
(2.02997 -0.000270559 0)
(2.01712 0.000628506 0)
(1.42539 -0.146514 0)
(0.866371 -0.163765 0)
(2.10865 -3.31798e-06 0)
(2.09876 1.11444e-05 0)
(2.08787 -2.45675e-05 0)
(2.07586 4.92358e-05 0)
(2.06249 -8.30958e-05 0)
(2.04795 0.000152279 0)
(2.02997 -0.000260983 0)
(2.01717 0.000629426 0)
(1.40226 -0.146138 0)
(0.853631 -0.163413 0)
(2.10865 -3.15219e-06 0)
(2.09876 1.06722e-05 0)
(2.08787 -2.35444e-05 0)
(2.07586 4.75987e-05 0)
(2.06249 -8.00287e-05 0)
(2.04795 0.00014817 0)
(2.02996 -0.000250016 0)
(2.01723 0.000626279 0)
(1.37787 -0.145121 0)
(0.839842 -0.162497 0)
(2.10865 -2.96955e-06 0)
(2.09876 1.01421e-05 0)
(2.08787 -2.2395e-05 0)
(2.07586 4.56898e-05 0)
(2.06249 -7.65568e-05 0)
(2.04795 0.000143296 0)
(2.02995 -0.000237693 0)
(2.0173 0.000619845 0)
(1.35249 -0.143236 0)
(0.825018 -0.161356 0)
(2.10865 -2.77058e-06 0)
(2.09876 9.55149e-06 0)
(2.08787 -2.11115e-05 0)
(2.07585 4.34762e-05 0)
(2.06249 -7.26187e-05 0)
(2.04794 0.000137383 0)
(2.02995 -0.000223562 0)
(2.01737 0.000608463 0)
(1.32717 -0.139806 0)
(0.80859 -0.16054 0)
(2.10865 -2.55609e-06 0)
(2.09876 8.89861e-06 0)
(2.08787 -1.96879e-05 0)
(2.07585 4.09312e-05 0)
(2.06249 -6.81868e-05 0)
(2.04794 0.000130422 0)
(2.02994 -0.000207812 0)
(2.01743 0.000594091 0)
(1.30359 -0.134435 0)
(0.789659 -0.158533 0)
(2.10865 -2.32718e-06 0)
(2.09875 8.18279e-06 0)
(2.08788 -1.81217e-05 0)
(2.07585 3.80334e-05 0)
(2.06249 -6.3221e-05 0)
(2.04793 0.000122178 0)
(2.02994 -0.000189881 0)
(2.01748 0.000572604 0)
(1.2832 -0.127142 0)
(0.76713 -0.153658 0)
(2.10865 -2.08511e-06 0)
(2.09875 7.40438e-06 0)
(2.08788 -1.64116e-05 0)
(2.07585 3.4762e-05 0)
(2.06249 -5.76679e-05 0)
(2.04792 0.000112671 0)
(2.02994 -0.000170813 0)
(2.01753 0.000546563 0)
(1.26593 -0.118267 0)
(0.738915 -0.146422 0)
(2.10865 -1.83132e-06 0)
(2.09875 6.56539e-06 0)
(2.08788 -1.45632e-05 0)
(2.07585 3.11253e-05 0)
(2.06249 -5.15935e-05 0)
(2.04792 0.00010213 0)
(2.02995 -0.000151358 0)
(2.01762 0.000495298 0)
(1.24791 -0.108781 0)
(0.703667 -0.135424 0)
(2.10865 -1.56732e-06 0)
(2.09875 5.66898e-06 0)
(2.08788 -1.25819e-05 0)
(2.07584 2.71073e-05 0)
(2.06249 -4.48254e-05 0)
(2.04791 8.96004e-05 0)
(2.02995 -0.000131094 0)
(2.01778 0.000441499 0)
(1.22562 -0.0996428 0)
(0.660143 -0.122762 0)
(2.10865 -1.2947e-06 0)
(2.09875 4.72024e-06 0)
(2.08788 -1.04809e-05 0)
(2.07584 2.27497e-05 0)
(2.06249 -3.76012e-05 0)
(2.04791 7.68554e-05 0)
(2.02994 -0.000115777 0)
(2.01795 0.00037071 0)
(1.19979 -0.0885695 0)
(0.608647 -0.105739 0)
(2.10865 -1.01505e-06 0)
(2.09875 3.72579e-06 0)
(2.08788 -8.27522e-06 0)
(2.07584 1.8078e-05 0)
(2.06249 -2.98521e-05 0)
(2.0479 6.20952e-05 0)
(2.02993 -9.34122e-05 0)
(2.01802 0.000223815 0)
(1.17384 -0.0744116 0)
(0.547884 -0.0894524 0)
(2.10865 -7.29991e-07 0)
(2.09875 2.694e-06 0)
(2.08788 -5.98448e-06 0)
(2.07584 1.31423e-05 0)
(2.06249 -2.16703e-05 0)
(2.0479 4.58197e-05 0)
(2.02992 -7.07864e-05 0)
(2.01801 0.000164784 0)
(1.1504 -0.0569778 0)
(0.486849 -0.0680686 0)
(2.10865 -4.41708e-07 0)
(2.09875 1.63641e-06 0)
(2.08788 -3.63152e-06 0)
(2.07584 8.00724e-06 0)
(2.06249 -1.32086e-05 0)
(2.0479 2.83394e-05 0)
(2.02991 -4.46034e-05 0)
(2.01799 9.44842e-05 0)
(1.13542 -0.0339036 0)
(0.433049 -0.0483719 0)
(2.10865 -1.52617e-07 0)
(2.09875 5.67541e-07 0)
(2.08788 -1.25702e-06 0)
(2.07584 2.81374e-06 0)
(2.06249 -4.64037e-06 0)
(2.0479 1.02307e-05 0)
(2.0299 -1.56212e-05 0)
(2.01797 3.18098e-05 0)
(1.13368 -0.0108264 0)
(0.396836 -0.0199504 0)
(0.904303 -0.156718 0)
(0.912992 -0.157514 0)
(0.919086 -0.160418 0)
(0.928504 -0.162371 0)
(0.939385 -0.165395 0)
(0.953759 -0.167153 0)
(0.971515 -0.169358 0)
(0.995967 -0.172479 0)
(1.02879 -0.176932 0)
(1.07078 -0.178526 0)
(0.897911 -0.159369 0)
(0.906641 -0.16048 0)
(0.912557 -0.163828 0)
(0.9222 -0.166137 0)
(0.933249 -0.169682 0)
(0.948381 -0.171935 0)
(0.967438 -0.175538 0)
(0.994701 -0.180693 0)
(1.03099 -0.186669 0)
(1.07468 -0.186695 0)
(0.890429 -0.161517 0)
(0.899261 -0.16297 0)
(0.904981 -0.166807 0)
(0.914845 -0.169511 0)
(0.926065 -0.173728 0)
(0.94224 -0.17683 0)
(0.962968 -0.182591 0)
(0.993429 -0.190462 0)
(1.03239 -0.196794 0)
(1.07799 -0.195128 0)
(0.881627 -0.163029 0)
(0.89066 -0.164871 0)
(0.896226 -0.169295 0)
(0.906388 -0.172537 0)
(0.917923 -0.177784 0)
(0.935741 -0.18248 0)
(0.958818 -0.191302 0)
(0.992865 -0.201612 0)
(1.03359 -0.20694 0)
(1.08127 -0.203723 0)
(0.871315 -0.163878 0)
(0.88064 -0.16615 0)
(0.886094 -0.171231 0)
(0.896646 -0.175255 0)
(0.908719 -0.182072 0)
(0.928718 -0.189253 0)
(0.954471 -0.201786 0)
(0.991566 -0.213227 0)
(1.03307 -0.216722 0)
(1.08366 -0.212216 0)
(0.859367 -0.163977 0)
(0.86902 -0.166719 0)
(0.874432 -0.172559 0)
(0.885533 -0.177819 0)
(0.898524 -0.187053 0)
(0.921217 -0.197642 0)
(0.949623 -0.213789 0)
(0.988225 -0.224172 0)
(1.03085 -0.226182 0)
(1.08537 -0.220791 0)
(0.845901 -0.16344 0)
(0.855739 -0.166734 0)
(0.86124 -0.173444 0)
(0.873119 -0.180633 0)
(0.887478 -0.19331 0)
(0.912796 -0.207692 0)
(0.942882 -0.225942 0)
(0.98194 -0.233775 0)
(1.02701 -0.235594 0)
(1.08646 -0.229611 0)
(0.831043 -0.162186 0)
(0.84072 -0.166201 0)
(0.846473 -0.174118 0)
(0.859449 -0.184116 0)
(0.875267 -0.200948 0)
(0.90221 -0.218364 0)
(0.932795 -0.236109 0)
(0.973109 -0.242618 0)
(1.02175 -0.245418 0)
(1.08733 -0.239032 0)
(0.814728 -0.160778 0)
(0.823773 -0.1657 0)
(0.829873 -0.175258 0)
(0.844384 -0.188455 0)
(0.860951 -0.209266 0)
(0.888664 -0.227785 0)
(0.919778 -0.244518 0)
(0.96218 -0.251069 0)
(1.01523 -0.25602 0)
(1.08777 -0.24919 0)
(0.796376 -0.1598 0)
(0.804437 -0.165861 0)
(0.810818 -0.177551 0)
(0.827188 -0.193469 0)
(0.843687 -0.216997 0)
(0.872181 -0.235612 0)
(0.904321 -0.252701 0)
(0.949872 -0.260352 0)
(1.00705 -0.266923 0)
(1.08743 -0.259986 0)
(0.774929 -0.15846 0)
(0.782179 -0.165993 0)
(0.788516 -0.180243 0)
(0.806964 -0.198301 0)
(0.823253 -0.224009 0)
(0.852734 -0.242878 0)
(0.886267 -0.261391 0)
(0.934889 -0.270353 0)
(0.996986 -0.278678 0)
(1.08641 -0.272067 0)
(0.74873 -0.155832 0)
(0.756606 -0.165505 0)
(0.762407 -0.18293 0)
(0.782983 -0.202689 0)
(0.799072 -0.229797 0)
(0.829519 -0.248609 0)
(0.864569 -0.268562 0)
(0.916303 -0.279529 0)
(0.984483 -0.29169 0)
(1.08389 -0.284983 0)
(0.715746 -0.151194 0)
(0.726427 -0.163628 0)
(0.731654 -0.184744 0)
(0.753909 -0.205522 0)
(0.770261 -0.233274 0)
(0.802228 -0.252775 0)
(0.839589 -0.274913 0)
(0.894911 -0.288892 0)
(0.969081 -0.305231 0)
(1.07962 -0.298469 0)
(0.674986 -0.142968 0)
(0.689481 -0.158877 0)
(0.694793 -0.184239 0)
(0.718553 -0.206438 0)
(0.73617 -0.234704 0)
(0.7701 -0.255254 0)
(0.809773 -0.279618 0)
(0.867685 -0.296644 0)
(0.94704 -0.318108 0)
(1.07068 -0.31354 0)
(0.625207 -0.133361 0)
(0.644153 -0.152556 0)
(0.650699 -0.182466 0)
(0.677528 -0.206307 0)
(0.698032 -0.235801 0)
(0.734543 -0.25882 0)
(0.776992 -0.285984 0)
(0.837316 -0.306594 0)
(0.921521 -0.333432 0)
(1.05565 -0.330432 0)
(0.568888 -0.119794 0)
(0.594297 -0.139922 0)
(0.602964 -0.174665 0)
(0.634608 -0.203891 0)
(0.659553 -0.237683 0)
(0.698765 -0.264805 0)
(0.743978 -0.2947 0)
(0.806598 -0.319741 0)
(0.895309 -0.35208 0)
(1.03796 -0.351334 0)
(0.511538 -0.119975 0)
(0.545317 -0.14588 0)
(0.557249 -0.184681 0)
(0.593815 -0.212786 0)
(0.62513 -0.247865 0)
(0.668098 -0.278532 0)
(0.71673 -0.311739 0)
(0.781696 -0.340738 0)
(0.872801 -0.37738 0)
(1.02263 -0.381985 0)
(0.451871 -0.103698 0)
(0.499478 -0.131003 0)
(0.516351 -0.180416 0)
(0.557681 -0.222974 0)
(0.598508 -0.265342 0)
(0.648336 -0.301247 0)
(0.702827 -0.336546 0)
(0.769721 -0.368527 0)
(0.859953 -0.408142 0)
(1.01125 -0.421229 0)
(0.391061 -0.115968 0)
(0.459274 -0.150248 0)
(0.492142 -0.210008 0)
(0.542598 -0.256928 0)
(0.588283 -0.297979 0)
(0.637027 -0.329963 0)
(0.689177 -0.360806 0)
(0.753133 -0.390936 0)
(0.838764 -0.430829 0)
(0.983534 -0.458368 0)
(0.356512 -0.0827226 0)
(0.448751 -0.131194 0)
(0.499996 -0.203951 0)
(0.554661 -0.256456 0)
(0.599763 -0.298897 0)
(0.644604 -0.331342 0)
(0.692751 -0.36174 0)
(0.753501 -0.391323 0)
(0.836566 -0.432332 0)
(0.986095 -0.471933 0)
(1.16912 -0.153943 0)
(1.30902 -0.0757569 0)
(1.42919 0.0368098 0)
(1.52494 0.162936 0)
(1.59589 0.283422 0)
(1.65602 0.384588 0)
(1.66931 0.379477 0)
(1.61357 0.237331 0)
(1.51987 0.0552921 0)
(1.53012 -0.0242007 0)
(1.17771 -0.158793 0)
(1.32232 -0.0734537 0)
(1.44474 0.0461704 0)
(1.53969 0.178786 0)
(1.60785 0.301788 0)
(1.65685 0.392001 0)
(1.67058 0.377224 0)
(1.59828 0.209626 0)
(1.51101 0.0491911 0)
(1.52647 -0.0233007 0)
(1.18616 -0.163605 0)
(1.33676 -0.0702388 0)
(1.46137 0.0570731 0)
(1.55411 0.194086 0)
(1.61916 0.318531 0)
(1.66044 0.401369 0)
(1.66495 0.369603 0)
(1.58199 0.183786 0)
(1.50508 0.0447903 0)
(1.52468 -0.0214547 0)
(1.19484 -0.168259 0)
(1.3512 -0.0673485 0)
(1.47834 0.0687763 0)
(1.5702 0.210983 0)
(1.63284 0.342933 0)
(1.66314 0.404616 0)
(1.65879 0.357496 0)
(1.55992 0.154778 0)
(1.49896 0.0409037 0)
(1.52201 -0.0191718 0)
(1.20374 -0.172666 0)
(1.36719 -0.0627321 0)
(1.49577 0.0802473 0)
(1.58675 0.230127 0)
(1.64201 0.363855 0)
(1.66515 0.404472 0)
(1.65116 0.339577 0)
(1.54189 0.134327 0)
(1.49213 0.0379098 0)
(1.51742 -0.0175444 0)
(1.21322 -0.176756 0)
(1.38327 -0.0590626 0)
(1.51496 0.0941051 0)
(1.60478 0.255949 0)
(1.64994 0.378563 0)
(1.66604 0.404364 0)
(1.64183 0.318061 0)
(1.52001 0.114807 0)
(1.48472 0.0359446 0)
(1.51202 -0.0160689 0)
(1.22345 -0.180579 0)
(1.40203 -0.0519121 0)
(1.53476 0.110714 0)
(1.62003 0.276829 0)
(1.65643 0.387997 0)
(1.66602 0.404618 0)
(1.6297 0.293471 0)
(1.50618 0.10395 0)
(1.47849 0.0363076 0)
(1.50582 -0.0141759 0)
(1.23485 -0.184159 0)
(1.42075 -0.0447567 0)
(1.55532 0.130837 0)
(1.63668 0.297268 0)
(1.66534 0.404551 0)
(1.6651 0.404889 0)
(1.61575 0.266312 0)
(1.48658 0.0915807 0)
(1.47404 0.0358769 0)
(1.50051 -0.011498 0)
(1.24755 -0.187745 0)
(1.44267 -0.0325125 0)
(1.57463 0.146449 0)
(1.65205 0.318185 0)
(1.66954 0.417768 0)
(1.66356 0.400734 0)
(1.6011 0.236826 0)
(1.47322 0.0842161 0)
(1.47133 0.0353658 0)