/*--------------------------------*- C++ -*----------------------------------*\
  =========                 |
  \\      /  F ield         | OpenFOAM: The Open Source CFD Toolbox
   \\    /   O peration     | Website:  https://openfoam.org
    \\  /    A nd           | Version:  8
     \\/     M anipulation  |
\*---------------------------------------------------------------------------*/
FoamFile
{
    version     2.0;
    format      ascii;
    class       volScalarField;
    location    "5.4";
    object      p;
}
// * * * * * * * * * * * * * * * * * * * * * * * * * * * * * * * * * * * * * //

dimensions      [1 -1 -2 0 0 0 0];

internalField   nonuniform List<scalar> 
2600
(
1.33668
1.3792
1.29369
1.45744
1.67818
1.56831
1.18104
1.3282
2.46811
3.07426
1.34894
1.37381
1.30286
1.45777
1.67407
1.55659
1.18725
1.32454
2.44684
3.0729
1.34397
1.35242
1.30184
1.44939
1.65359
1.54934
1.19562
1.33616
2.42379
3.07003
1.35386
1.34964
1.30353
1.43137
1.62319
1.53445
1.20533
1.37214
2.39803
3.06339
1.36885
1.35813
1.31485
1.40625
1.58642
1.51601
1.21842
1.42109
2.36454
3.05173
1.38344
1.37121
1.32588
1.38062
1.53775
1.49125
1.24289
1.4786
2.32698
3.04257
1.40186
1.38627
1.33522
1.35421
1.48375
1.46604
1.27206
1.53658
2.29167
3.02689
1.41901
1.39904
1.34087
1.32393
1.42635
1.4431
1.30164
1.59521
2.25973
3.0215
1.43511
1.40736
1.34238
1.29906
1.3727
1.42056
1.33269
1.6502
2.23289
3.00344
1.4484
1.41497
1.34452
1.27358
1.31441
1.39587
1.36872
1.70852
2.20803
2.9961
1.45935
1.42297
1.34916
1.2567
1.25721
1.37477
1.41192
1.7639
2.18346
2.98366
1.46693
1.43231
1.35802
1.2434
1.19909
1.34515
1.4708
1.82406
2.15937
2.97649
1.47364
1.44409
1.36749
1.23094
1.15029
1.32728
1.53044
1.88218
2.14115
2.96319
1.47663
1.45589
1.37636
1.22093
1.11074
1.30884
1.60357
1.9382
2.13016
2.94894
1.47525
1.46927
1.38687
1.21102
1.08515
1.29783
1.67633
1.98566
2.12815
2.93179
1.47345
1.48353
1.39455
1.20565
1.06676
1.28409
1.75333
2.02522
2.13185
2.91118
1.47021
1.49774
1.40652
1.20194
1.05632
1.2843
1.82834
2.06179
2.13729
2.88935
1.46188
1.51088
1.41541
1.20024
1.05305
1.2882
1.89549
2.09498
2.1425
2.86631
1.49703
1.51802
1.41148
1.20098
1.04502
1.29121
1.95166
2.12736
2.14688
2.84108
1.41158
1.50363
1.41034
1.20255
1.0443
1.28952
1.98859
2.15329
2.14856
2.81085
1.86415
1.47281
1.40946
1.21393
1.04798
1.27739
1.9978
2.17785
2.1466
2.7691
2.31828
1.50384
1.41629
1.2216
1.06217
1.27371
1.98169
2.19512
2.12335
2.71527
2.68842
1.579
1.44833
1.23542
1.07498
1.26362
1.93895
2.20042
2.09447
2.66779
2.95295
1.68442
1.46302
1.25572
1.09323
1.25951
1.88804
2.20635
2.07074
2.62987
3.17759
1.82495
1.49006
1.27215
1.11303
1.26271
1.8317
2.20829
2.05036
2.60101
3.35231
1.98228
1.52806
1.28235
1.12832
1.26375
1.77159
2.21185
2.04923
2.57792
3.51358
2.12128
1.57942
1.29882
1.14006
1.2728
1.72013
2.22
2.07262
2.5645
3.65062
2.26433
1.64632
1.32494
1.15015
1.26727
1.67767
2.24015
2.11416
2.56266
3.77478
2.40589
1.71281
1.35491
1.15974
1.2532
1.63675
2.26844
2.16085
2.5635
3.88623
2.54037
1.78628
1.3962
1.17213
1.23849
1.60157
2.30038
2.21347
2.56474
4.00015
2.67728
1.85675
1.44296
1.18591
1.23071
1.57552
2.32495
2.26707
2.56324
4.10925
2.80477
1.93111
1.49418
1.20103
1.22716
1.55427
2.34119
2.3277
2.55853
4.204
2.92268
2.00481
1.54951
1.2166
1.23054
1.53952
2.3528
2.39119
2.55568
4.31584
3.03642
2.07797
1.60919
1.23464
1.24231
1.53381
2.36715
2.45152
2.55325
4.42638
3.14811
2.15177
1.66811
1.2567
1.25516
1.53448
2.38549
2.5087
2.55515
4.41
3.26343
2.22907
1.72931
1.27429
1.27057
1.54078
2.40633
2.56243
2.5608
4.40876
3.38058
2.31628
1.78944
1.29346
1.28681
1.55286
2.42839
2.61947
2.56978
4.27345
3.45263
2.40349
1.85123
1.31512
1.30664
1.56736
2.4524
2.6786
2.58368
4.04153
3.52013
2.49755
1.91754
1.34057
1.32917
1.58329
2.47926
2.72544
2.60556
3.76754
3.46326
2.60019
1.98685
1.37046
1.35343
1.60469
2.52133
2.77155
2.63336
1.90298
3.0266
8.70956
8.8471
7.58794
6.96194
6.71263
6.62234
6.52473
6.29685
1.04379
1.08092
4.31782
7.06341
6.74131
6.6705
6.66496
6.6088
6.51172
6.1896
1.05129
1.05209
1.3724
6.19869
7.06969
6.7977
6.70506
6.62413
6.49449
6.1296
1.05136
1.05192
1.05292
3.1344
6.71671
6.7135
6.67456
6.58617
6.44353
6.04287
1.05138
1.05194
1.05284
1.16149
5.18319
6.79658
6.66685
6.56461
6.40693
5.97654
1.05136
1.05197
1.05257
1.05351
2.14162
6.27617
6.62738
6.52097
6.35055
5.91264
1.0514
1.05198
1.05261
1.05324
1.07817
4.51431
6.56108
6.4805
6.30363
5.88055
1.05148
1.05207
1.05273
1.05338
1.05441
1.86009
5.98836
6.44928
6.2581
5.85533
1.05148
1.05207
1.05272
1.05341
1.05409
1.0752
4.29947
6.39805
6.21858
5.83636
1.05145
1.05203
1.05267
1.05337
1.05406
1.05526
1.93007
5.88732
6.19462
5.81306
1.05144
1.05203
1.05266
1.05336
1.0541
1.05494
1.09771
4.43007
6.10715
5.79081
1.05146
1.05205
1.05269
1.05339
1.05417
1.05489
1.05661
2.30429
5.85678
5.82232
1.05148
1.05208
1.05274
1.05345
1.05422
1.05499
1.05616
1.20391
4.86184
5.73536
1.0515
1.0521
1.05276
1.05346
1.05422
1.05503
1.05578
1.06295
3.1397
5.60626
1.05151
1.05211
1.05275
1.05345
1.05419
1.05502
1.0558
1.05737
1.60016
5.01134
1.05153
1.05212
1.05275
1.05343
1.05417
1.05499
1.05583
1.05687
1.10382
3.94635
1.05153
1.05211
1.05273
1.05342
1.05416
1.05497
1.05587
1.05668
1.06107
2.73406
1.05154
1.05212
1.05274
1.05343
1.05417
1.05498
1.05588
1.05673
1.05849
1.61696
1.05153
1.05212
1.05276
1.05345
1.0542
1.05501
1.0559
1.05681
1.0581
1.13043
1.05152
1.05212
1.05277
1.05346
1.05422
1.05502
1.05592
1.05686
1.05782
1.0641
1.00156
1.00485
1.00846
1.01244
1.01684
1.0217
1.02705
1.03313
1.03971
1.04693
1.00156
1.00485
1.00846
1.01244
1.01684
1.0217
1.02705
1.03312
1.03974
1.04722
1.00156
1.00485
1.00846
1.01244
1.01684
1.0217
1.02706
1.03311
1.03973
1.04715
1.00156
1.00485
1.00846
1.01244
1.01684
1.0217
1.02706
1.0331
1.03973
1.04715
1.00156
1.00485
1.00846
1.01244
1.01684
1.02169
1.02707
1.03308
1.03974
1.04714
1.00156
1.00485
1.00846
1.01244
1.01684
1.02169
1.02707
1.03307
1.03974
1.04717
1.00156
1.00485
1.00846
1.01244
1.01684
1.02169
1.02707
1.03307
1.03973
1.04723
1.00156
1.00485
1.00846
1.01244
1.01684
1.02169
1.02708
1.03306
1.03974
1.04725
1.00156
1.00485
1.00846
1.01244
1.01683
1.02169
1.02708
1.03305
1.03974
1.04724
1.00156
1.00485
1.00846
1.01244
1.01683
1.02169
1.02708
1.03305
1.03975
1.04725
1.00156
1.00485
1.00846
1.01244
1.01683
1.02169
1.02708
1.03305
1.03976
1.04727
1.00156
1.00485
1.00846
1.01244
1.01683
1.02169
1.02708
1.03304
1.03976
1.04727
1.00156
1.00485
1.00846
1.01244
1.01683
1.02169
1.02708
1.03304
1.03977
1.04726
1.00156
1.00485
1.00846
1.01244
1.01683
1.02169
1.02708
1.03305
1.03976
1.04726
1.00156
1.00485
1.00846
1.01244
1.01683
1.02169
1.02708
1.03305
1.03976
1.04728
1.00156
1.00485
1.00846
1.01244
1.01683
1.02169
1.02708
1.03305
1.03975
1.04731
1.00156
1.00485
1.00846
1.01244
1.01683
1.02169
1.02708
1.03305
1.03974
1.04732
1.00156
1.00485
1.00846
1.01244
1.01683
1.02169
1.02707
1.03306
1.03973
1.04732
1.00156
1.00485
1.00846
1.01244
1.01683
1.0217
1.02707
1.03306
1.03973
1.04731
1.00156
1.00485
1.00846
1.01244
1.01683
1.0217
1.02707
1.03307
1.03973
1.04728
1.00156
1.00485
1.00846
1.01244
1.01683
1.0217
1.02707
1.03307
1.03973
1.04728
1.00156
1.00485
1.00846
1.01244
1.01683
1.0217
1.02707
1.03306
1.03973
1.04731
1.00156
1.00485
1.00846
1.01244
1.01683
1.02169
1.02707
1.03306
1.03973
1.04732
1.00156
1.00485
1.00846
1.01244
1.01683
1.02169
1.02708
1.03306
1.03974
1.04732
1.00156
1.00485
1.00846
1.01244
1.01683
1.02169
1.02708
1.03305
1.03975
1.04731
1.00156
1.00485
1.00846
1.01244
1.01683
1.02169
1.02708
1.03305
1.03976
1.04728
1.00156
1.00485
1.00846
1.01244
1.01683
1.02169
1.02708
1.03305
1.03976
1.04726
1.00156
1.00485
1.00846
1.01244
1.01683
1.02169
1.02708
1.03304
1.03977
1.04726
1.00156
1.00485
1.00846
1.01244
1.01683
1.02169
1.02708
1.03304
1.03977
1.04727
1.00156
1.00485
1.00846
1.01244
1.01683
1.02169
1.02708
1.03305
1.03976
1.04727
1.00156
1.00485
1.00846
1.01244
1.01683
1.02169
1.02708
1.03305
1.03975
1.04725
1.00156
1.00485
1.00846
1.01244
1.01683
1.02169
1.02708
1.03305
1.03974
1.04724
1.00156
1.00485
1.00846
1.01244
1.01684
1.02169
1.02708
1.03306
1.03974
1.04725
1.00156
1.00485
1.00846
1.01244
1.01684
1.02169
1.02707
1.03307
1.03973
1.04723
1.00156
1.00485
1.00846
1.01244
1.01684
1.02169
1.02707
1.03307
1.03974
1.04717
1.00156
1.00485
1.00846
1.01244
1.01684
1.02169
1.02707
1.03308
1.03974
1.04714
1.00156
1.00485
1.00846
1.01244
1.01684
1.0217
1.02706
1.0331
1.03973
1.04715
1.00156
1.00485
1.00846
1.01244
1.01684
1.0217
1.02706
1.03311
1.03973
1.04715
1.00156
1.00485
1.00846
1.01244
1.01684
1.0217
1.02705
1.03312
1.03974
1.04722
1.00156
1.00485
1.00846
1.01244
1.01684
1.0217
1.02705
1.03313
1.03971
1.04693
1.05152
1.05212
1.05277
1.05346
1.05422
1.05502
1.05592
1.05686
1.05782
1.06377
1.05153
1.05212
1.05276
1.05345
1.0542
1.05501
1.0559
1.05681
1.05808
1.12582
1.05154
1.05212
1.05274
1.05343
1.05417
1.05498
1.05588
1.05673
1.05849
1.60265
1.05153
1.05211
1.05273
1.05342
1.05416
1.05497
1.05587
1.05668
1.06107
2.71767
1.05153
1.05212
1.05275
1.05343
1.05417
1.05499
1.05583
1.05687
1.10375
3.93904
1.05151
1.05211
1.05275
1.05345
1.05419
1.05502
1.0558
1.05736
1.59968
5.00715
1.0515
1.0521
1.05276
1.05346
1.05422
1.05503
1.05578
1.06292
3.13896
5.60107
1.05148
1.05208
1.05274
1.05345
1.05422
1.05499
1.05616
1.20347
4.86157
5.72879
1.05146
1.05205
1.05269
1.05339
1.05417
1.05489
1.05661
2.30273
5.8572
5.81581
1.05144
1.05203
1.05266
1.05335
1.0541
1.05494
1.09757
4.42892
6.10806
5.78432
1.05145
1.05203
1.05267
1.05337
1.05405
1.05526
1.92894
5.88687
6.19576
5.80761
1.05148
1.05207
1.05272
1.05341
1.05408
1.07516
4.29807
6.39818
6.21986
5.83225
1.05148
1.05207
1.05273
1.05338
1.05441
1.8595
5.98775
6.44958
6.25936
5.85257
1.0514
1.05198
1.05261
1.05324
1.07814
4.51336
6.56083
6.48092
6.3051
5.8791
1.05136
1.05197
1.05257
1.05351
2.14111
6.27565
6.62705
6.52141
6.35222
5.91246
1.05137
1.05194
1.05284
1.16151
5.18274
6.79624
6.66646
6.56477
6.40841
5.97695
1.05136
1.05192
1.05292
3.13451
6.71642
6.71315
6.6741
6.58616
6.44474
6.0427
1.05129
1.05209
1.37259
6.19863
7.06951
6.79732
6.70474
6.62396
6.49543
6.12789
1.04378
1.08096
4.31839
7.06329
6.74116
6.67019
6.66473
6.60834
6.5127
6.1876
1.90298
3.02708
8.71026
8.84671
7.58761
6.96162
6.7126
6.62173
6.52572
6.29475
3.79425
3.44751
2.59261
1.95848
1.56882
1.35527
1.45392
2.20106
2.8016
2.94817
4.07341
3.49253
2.48441
1.89172
1.53767
1.35014
1.42741
2.15314
2.80745
2.95778
4.3124
3.41566
2.3804
1.83249
1.50804
1.35251
1.4045
2.10213
2.80624
2.96449
4.45471
3.33532
2.28074
1.78469
1.48501
1.3569
1.38202
2.04874
2.80008
2.96926
4.45805
3.21094
2.17469
1.73843
1.46623
1.35686
1.36338
1.99231
2.78871
2.97702
4.48292
3.08777
2.07414
1.69693
1.45412
1.35723
1.34804
1.93642
2.77598
2.98939
4.38543
2.97285
1.97096
1.65748
1.44963
1.35523
1.33267
1.88415
2.7634
3.00397
4.27991
2.85535
1.86381
1.62066
1.45169
1.35526
1.31567
1.83555
2.75293
3.02018
4.18892
2.73605
1.76204
1.5917
1.46005
1.36232
1.30481
1.7951
2.74673
3.03243
4.07528
2.60892
1.65846
1.56312
1.47346
1.37662
1.30225
1.76371
2.74519
3.04154
3.95384
2.4709
1.57191
1.53722
1.4893
1.39461
1.30299
1.73551
2.74804
3.04815
3.83253
2.33582
1.48256
1.51371
1.50577
1.41566
1.2993
1.70114
2.74849
3.05154
3.69064
2.19977
1.42448
1.48043
1.52039
1.4403
1.28309
1.64906
2.73609
3.05703
3.5382
2.05057
1.38585
1.44258
1.54405
1.47797
1.26486
1.57896
2.70438
3.05781
3.35097
1.90179
1.34997
1.42249
1.57279
1.52795
1.24968
1.51149
2.66059
3.05518
3.13903
1.75057
1.31662
1.41315
1.58677
1.54777
1.22462
1.45012
2.61603
3.06763
2.87373
1.60821
1.28744
1.41671
1.60721
1.55667
1.20806
1.39296
2.58561
3.06934
2.55807
1.50146
1.27385
1.42329
1.63944
1.56969
1.19587
1.35686
2.55136
3.06976
2.16649
1.42922
1.28143
1.43641
1.66288
1.57937
1.17497
1.34143
2.52076
3.07138
1.7205
1.39643
1.29139
1.44899
1.67681
1.57865
1.17568
1.33351
2.49092
3.0708
1.06182
1.06668
1.07096
1.07679
1.59339
5.57778
5.31922
4.25345
3.21846
2.32953
1.06184
1.06669
1.07076
1.07854
1.66533
5.51943
5.29731
4.22948
3.20991
2.33542
1.06187
1.0666
1.07049
1.0834
1.73555
5.47919
5.2698
4.19935
3.19413
2.34427
1.06187
1.06639
1.0702
1.09883
1.79669
5.34218
5.19691
4.14762
3.17809
2.3569
1.06188
1.0662
1.07022
1.14934
1.84617
5.14202
5.02771
4.05762
3.14398
2.3643
1.06188
1.0659
1.07176
1.29221
1.92736
4.87604
4.8262
3.98327
3.10936
2.37179
1.06184
1.06554
1.07888
1.57739
2.07673
4.48317
4.48214
3.79062
3.06747
2.38607
1.0618
1.06538
1.10747
1.95552
2.27979
3.97356
4.19959
3.65539
3.06933
2.4067
1.0617
1.06569
1.20103
2.28611
2.43418
3.47691
3.9608
3.50925
2.99502
2.42079
1.06152
1.06786
1.44475
2.48907
2.53046
3.03343
3.70077
3.35581
2.96357
2.44828
1.06133
1.0778
1.84476
2.61385
2.52534
2.64592
3.38732
3.19256
2.93335
2.48164
1.0612
1.12145
2.28249
2.73553
2.45938
2.34848
3.03933
3.04629
2.91623
2.52625
1.06112
1.27444
2.63182
2.84458
2.39194
2.13601
2.68247
2.91616
2.90486
2.58871
1.06121
1.62603
2.87569
2.87017
2.30077
1.96256
2.38068
2.81326
2.90643
2.62659
1.06498
2.11836
3.04102
2.80264
2.17187
1.80179
2.14167
2.74129
2.89511
2.66339
1.11655
2.59397
3.12171
2.71515
2.05147
1.66797
1.96555
2.69062
2.85622
2.69396
1.38654
2.98019
3.14648
2.60455
1.93934
1.56264
1.82162
2.61886
2.82682
2.74048
1.84859
3.25897
3.05647
2.44934
1.83487
1.48909
1.70212
2.52104
2.79856
2.80412
2.43915
3.33916
2.93229
2.26589
1.72888
1.42688
1.59424
2.40235
2.78463
2.87228
3.31396
3.39353
2.75078
2.08119
1.63182
1.38027
1.50789
2.2807
2.78881
2.92288
3.28285
3.41023
2.75707
2.10472
1.43679
1.39648
1.64773
2.58569
2.81668
2.67771
2.40975
3.36991
2.94327
2.27961
1.55645
1.45043
1.71114
2.66386
2.85088
2.69482
1.81307
3.28116
3.06878
2.44893
1.69727
1.51027
1.79714
2.73339
2.86924
2.67719
1.36433
2.99406
3.15911
2.5975
1.83957
1.57994
1.9082
2.82815
2.88904
2.65248
1.10935
2.60345
3.12943
2.70541
1.98714
1.67303
2.05279
2.91564
2.90944
2.6288
1.06421
2.12097
3.04017
2.78885
2.12912
1.78967
2.22154
3.01177
2.93606
2.60983
1.06116
1.62713
2.87791
2.85697
2.27398
1.94374
2.42776
3.07951
2.97028
2.60056
1.06112
1.27549
2.63338
2.82744
2.37204
2.12561
2.70402
3.10544
2.98692
2.56233
1.06119
1.12195
2.28187
2.7168
2.4414
2.34432
3.07965
3.15725
2.99291
2.53493
1.06132
1.078
1.83889
2.60598
2.50939
2.63729
3.45747
3.27814
2.99787
2.48905
1.06151
1.06792
1.43787
2.47538
2.51214
3.01577
3.77373
3.43999
3.01692
2.45705
1.0617
1.0657
1.19782
2.26935
2.40561
3.45715
4.0068
3.58521
3.0392
2.42545
1.0618
1.06539
1.10601
1.92807
2.24571
3.96408
4.21083
3.72116
3.09568
2.40107
1.06184
1.06556
1.07828
1.55055
2.04712
4.47372
4.47177
3.82496
3.07004
2.36868
1.06189
1.06592
1.07154
1.27465
1.90898
4.84523
4.80553
3.97783
3.09071
2.34105
1.06188
1.06622
1.07019
1.14192
1.83592
5.10077
4.98626
4.03969
3.11467
2.31835
1.06187
1.0664
1.07021
1.09644
1.78394
5.28229
5.14163
4.11888
3.13537
2.29931
1.06186
1.0666
1.07051
1.08268
1.71243
5.39918
5.20371
4.15975
3.14614
2.27958
1.06183
1.06668
1.07078
1.07832
1.63457
5.43126
5.23101
4.19069
3.15709
2.26488
1.06181
1.0667
1.07098
1.07676
1.56143
5.47073
5.23761
4.20615
3.16409
2.25684
1.05149
1.05209
1.05274
1.05345
1.05421
1.05502
1.05591
1.05688
1.05789
1.05915
1.05149
1.05209
1.05273
1.05343
1.05419
1.05502
1.0559
1.05686
1.05797
1.05878
1.05149
1.05208
1.05273
1.05342
1.05418
1.055
1.05589
1.05684
1.05797
1.05878
1.05149
1.05208
1.05272
1.05342
1.05417
1.05499
1.05588
1.05683
1.05797
1.05879
1.05147
1.05206
1.05271
1.05341
1.05417
1.05499
1.05588
1.05684
1.05796
1.05881
1.05145
1.05204
1.05269
1.0534
1.05416
1.05499
1.05589
1.05685
1.05795
1.05895
1.05143
1.05203
1.05269
1.05339
1.05416
1.05499
1.0559
1.05687
1.05794
1.05913
1.05142
1.05202
1.05268
1.05338
1.05416
1.05499
1.05591
1.05689
1.05796
1.05922
1.05144
1.05204
1.0527
1.05341
1.05418
1.05502
1.05593
1.05693
1.05798
1.05924
1.05147
1.05207
1.05273
1.05344
1.05421
1.05505
1.05596
1.05694
1.05799
1.05922
1.05151
1.05211
1.05277
1.05348
1.05424
1.05507
1.05597
1.05695
1.058
1.05919
1.05155
1.05215
1.05279
1.0535
1.05426
1.05508
1.05597
1.05694
1.05798
1.05915
1.05157
1.05217
1.0528
1.0535
1.05425
1.05507
1.05595
1.05692
1.05797
1.05912
1.05158
1.05217
1.05281
1.05351
1.05425
1.05507
1.05596
1.05693
1.05797
1.05911
1.05155
1.05215
1.0528
1.05351
1.05427
1.05509
1.05598
1.05695
1.05799
1.05912
1.05152
1.05212
1.05278
1.05349
1.05426
1.05509
1.05599
1.05696
1.05802
1.05914
1.05148
1.05209
1.05274
1.05345
1.05423
1.05506
1.05596
1.05694
1.058
1.05914
1.05145
1.05205
1.0527
1.05341
1.05418
1.05501
1.05592
1.0569
1.05798
1.05913
1.05143
1.05203
1.05268
1.05339
1.05415
1.05499
1.05589
1.05688
1.05795
1.05912
1.05141
1.05201
1.05266
1.05336
1.05413
1.05496
1.05587
1.05686
1.05793
1.0591
1.00156
1.00485
1.00846
1.01244
1.01683
1.0217
1.02707
1.03307
1.03974
1.04727
1.00156
1.00485
1.00846
1.01244
1.01683
1.0217
1.02708
1.03306
1.03975
1.04728
1.00156
1.00485
1.00846
1.01244
1.01683
1.0217
1.02708
1.03306
1.03975
1.04728
1.00156
1.00485
1.00846
1.01244
1.01683
1.0217
1.02708
1.03306
1.03976
1.04728
1.00156
1.00485
1.00846
1.01244
1.01683
1.0217
1.02708
1.03305
1.03977
1.04727
1.00156
1.00485
1.00846
1.01244
1.01683
1.02169
1.02708
1.03305
1.03978
1.04725
1.00156
1.00485
1.00846
1.01244
1.01683
1.02169
1.02708
1.03305
1.03978
1.04724
1.00156
1.00485
1.00846
1.01244
1.01683
1.02169
1.02708
1.03306
1.03978
1.04723
1.00156
1.00485
1.00846
1.01244
1.01683
1.02169
1.02708
1.03306
1.03977
1.04724
1.00156
1.00485
1.00846
1.01244
1.01683
1.02169
1.02708
1.03306
1.03975
1.04725
1.00156
1.00485
1.00846
1.01244
1.01683
1.02169
1.02708
1.03307
1.03973
1.04728
1.00156
1.00485
1.00846
1.01244
1.01683
1.02169
1.02708
1.03307
1.03972
1.04731
1.00156
1.00485
1.00846
1.01244
1.01683
1.02169
1.02708
1.03308
1.03971
1.04733
1.00156
1.00485
1.00846
1.01244
1.01683
1.02169
1.02708
1.03308
1.03971
1.04733
1.00156
1.00485
1.00846
1.01244
1.01683
1.02169
1.02708
1.03308
1.03972
1.04731
1.00156
1.00485
1.00846
1.01244
1.01683
1.02169
1.02708
1.03308
1.03973
1.04728
1.00156
1.00485
1.00846
1.01244
1.01683
1.02169
1.02708
1.03307
1.03974
1.04726
1.00156
1.00485
1.00846
1.01244
1.01683
1.02169
1.02708
1.03307
1.03975
1.04724
1.00156
1.00485
1.00846
1.01244
1.01683
1.02169
1.02708
1.03306
1.03976
1.04724
1.00156
1.00485
1.00846
1.01244
1.01683
1.02169
1.02708
1.03306
1.03977
1.04723
1.00156
1.00485
1.00846
1.01244
1.01683
1.02169
1.02708
1.03306
1.03977
1.04723
1.00156
1.00485
1.00846
1.01244
1.01683
1.02169
1.02708
1.03306
1.03976
1.04724
1.00156
1.00485
1.00846
1.01244
1.01683
1.02169
1.02708
1.03307
1.03975
1.04724
1.00156
1.00485
1.00846
1.01244
1.01683
1.02169
1.02708
1.03307
1.03974
1.04726
1.00156
1.00485
1.00846
1.01244
1.01683
1.02169
1.02708
1.03308
1.03973
1.04728
1.00156
1.00485
1.00846
1.01244
1.01683
1.02169
1.02708
1.03308
1.03972
1.04731
1.00156
1.00485
1.00846
1.01244
1.01683
1.02169
1.02708
1.03308
1.03971
1.04733
1.00156
1.00485
1.00846
1.01244
1.01683
1.02169
1.02708
1.03308
1.03971
1.04733
1.00156
1.00485
1.00846
1.01244
1.01683
1.02169
1.02708
1.03307
1.03972
1.0473
1.00156
1.00485
1.00846
1.01244
1.01683
1.02169
1.02708
1.03307
1.03973
1.04728
1.00156
1.00485
1.00846
1.01244
1.01683
1.02169
1.02708
1.03306
1.03975
1.04725
1.00156
1.00485
1.00846
1.01244
1.01683
1.02169
1.02708
1.03306
1.03977
1.04724
1.00156
1.00485
1.00846
1.01244
1.01683
1.02169
1.02708
1.03306
1.03978
1.04723
1.00156
1.00485
1.00846
1.01244
1.01683
1.02169
1.02708
1.03305
1.03978
1.04724
1.00156
1.00485
1.00846
1.01244
1.01683
1.02169
1.02708
1.03305
1.03978
1.04725
1.00156
1.00485
1.00846
1.01244
1.01683
1.0217
1.02708
1.03305
1.03977
1.04727
1.00156
1.00485
1.00846
1.01244
1.01683
1.0217
1.02708
1.03306
1.03976
1.04728
1.00156
1.00485
1.00846
1.01244
1.01683
1.0217
1.02708
1.03306
1.03975
1.04728
1.00156
1.00485
1.00846
1.01244
1.01683
1.0217
1.02708
1.03306
1.03975
1.04728
1.00156
1.00485
1.00846
1.01244
1.01683
1.0217
1.02707
1.03307
1.03974
1.04727
1.05141
1.05201
1.05266
1.05336
1.05413
1.05496
1.05587
1.05686
1.05793
1.0591
1.05143
1.05203
1.05268
1.05339
1.05415
1.05499
1.05589
1.05688
1.05795
1.05912
1.05145
1.05205
1.0527
1.05341
1.05418
1.05501
1.05592
1.0569
1.05798
1.05913
1.05148
1.05209
1.05274
1.05345
1.05423
1.05506
1.05596
1.05694
1.058
1.05914
1.05152
1.05212
1.05278
1.05349
1.05426
1.05509
1.05599
1.05696
1.05801
1.05914
1.05156
1.05215
1.0528
1.05351
1.05427
1.05509
1.05598
1.05695
1.05799
1.05912
1.05158
1.05217
1.05281
1.05351
1.05425
1.05507
1.05596
1.05693
1.05797
1.05911
1.05157
1.05217
1.0528
1.0535
1.05425
1.05507
1.05595
1.05693
1.05797
1.05912
1.05155
1.05215
1.05279
1.0535
1.05426
1.05508
1.05597
1.05694
1.05798
1.05915
1.05151
1.05211
1.05277
1.05348
1.05424
1.05508
1.05597
1.05695
1.058
1.05919
1.05147
1.05207
1.05273
1.05344
1.05421
1.05505
1.05596
1.05694
1.05799
1.05922
1.05144
1.05204
1.0527
1.05341
1.05418
1.05502
1.05593
1.05693
1.05798
1.05924
1.05142
1.05202
1.05268
1.05338
1.05416
1.05499
1.05591
1.05689
1.05796
1.05922
1.05143
1.05203
1.05269
1.05339
1.05416
1.05499
1.0559
1.05687
1.05794
1.05913
1.05145
1.05204
1.05269
1.0534
1.05416
1.05499
1.05589
1.05685
1.05795
1.05893
1.05147
1.05206
1.05271
1.05341
1.05417
1.05499
1.05588
1.05684
1.05796
1.05881
1.05149
1.05208
1.05272
1.05342
1.05417
1.05499
1.05588
1.05683
1.05797
1.05878
1.05149
1.05208
1.05273
1.05342
1.05418
1.055
1.05589
1.05684
1.05797
1.05878
1.05149
1.05209
1.05273
1.05343
1.05419
1.05501
1.0559
1.05686
1.05797
1.05878
1.05149
1.05209
1.05274
1.05345
1.05421
1.05502
1.05591
1.05688
1.05789
1.05913
)
;

boundaryField
{
    inlet
    {
        type            fixedValue;
        value           uniform 1;
    }
    outlet
    {
        type            zeroGradient;
    }
    triangle
    {
        type            zeroGradient;
    }
    top
    {
        type            symmetryPlane;
    }
    bottom
    {
        type            symmetryPlane;
    }
    defaultFaces
    {
        type            empty;
    }
}


// ************************************************************************* //
