/*--------------------------------*- C++ -*----------------------------------*\
  =========                 |
  \\      /  F ield         | OpenFOAM: The Open Source CFD Toolbox
   \\    /   O peration     | Website:  https://openfoam.org
    \\  /    A nd           | Version:  8
     \\/     M anipulation  |
\*---------------------------------------------------------------------------*/
FoamFile
{
    version     2.0;
    format      ascii;
    class       volScalarField;
    location    "5.4";
    object      T;
}
// * * * * * * * * * * * * * * * * * * * * * * * * * * * * * * * * * * * * * //

dimensions      [0 0 0 1 0 0 0];

internalField   nonuniform List<scalar> 
2600
(
1.74797
1.7667
1.7418
1.84568
2.00189
1.97973
1.78946
1.69526
1.80548
1.94548
1.86275
1.86305
1.82739
1.91246
2.02272
1.97696
1.79864
1.73428
1.85354
1.96501
1.88086
1.887
1.86675
1.93539
2.0177
1.96037
1.80046
1.76551
1.89201
1.97634
1.88431
1.89069
1.88074
1.93382
1.99494
1.92798
1.7963
1.79388
1.91367
1.98089
1.88555
1.89261
1.8871
1.91948
1.9577
1.89258
1.78756
1.81518
1.91843
1.9812
1.88621
1.89303
1.88627
1.89392
1.91356
1.85885
1.77939
1.82995
1.91392
1.98112
1.88957
1.89286
1.87898
1.86345
1.87253
1.83211
1.77173
1.83785
1.90329
1.97976
1.89358
1.89083
1.86512
1.8336
1.83933
1.81465
1.76405
1.84113
1.88874
1.98056
1.89792
1.88785
1.85175
1.81223
1.81696
1.80453
1.75737
1.84043
1.87341
1.97928
1.90212
1.88678
1.84604
1.79992
1.80267
1.80007
1.75363
1.8396
1.8586
1.97997
1.90676
1.88818
1.84679
1.79877
1.79768
1.80302
1.75267
1.83667
1.84535
1.97951
1.91155
1.89323
1.85322
1.80336
1.79619
1.80745
1.76394
1.83545
1.83474
1.97979
1.91741
1.90292
1.86609
1.8139
1.79863
1.82083
1.78264
1.8354
1.82873
1.97686
1.92262
1.91531
1.88362
1.82979
1.80155
1.83557
1.81343
1.83875
1.827
1.96977
1.92619
1.92898
1.90362
1.84575
1.80372
1.84963
1.85238
1.8465
1.82826
1.95878
1.92877
1.94078
1.91867
1.85625
1.79595
1.85383
1.89885
1.85994
1.83164
1.94472
1.92797
1.94707
1.92733
1.85762
1.77751
1.85589
1.94516
1.88023
1.83724
1.92844
1.91574
1.94642
1.92741
1.85122
1.74314
1.84231
1.98212
1.90482
1.84454
1.90953
1.87016
1.92246
1.9084
1.83006
1.67964
1.79839
2.00209
1.93108
1.85283
1.88674
1.68732
1.83868
1.85566
1.77967
1.60098
1.72083
2.00439
1.9536
1.86139
1.85886
1.59974
1.69971
1.75271
1.68452
1.50929
1.6114
1.97441
1.96901
1.8692
1.82231
1.57081
1.57753
1.61701
1.55905
1.42027
1.50343
1.90235
1.97465
1.86465
1.7791
1.58804
1.48842
1.50513
1.45195
1.34938
1.41627
1.80063
1.96792
1.84297
1.73599
1.61657
1.44875
1.42733
1.3785
1.30258
1.3564
1.69094
1.94557
1.80246
1.69298
1.64948
1.45041
1.38781
1.3355
1.27526
1.31936
1.5914
1.89957
1.7433
1.65153
1.67775
1.46379
1.37282
1.31278
1.25957
1.29603
1.51345
1.83238
1.67757
1.61433
1.70204
1.48256
1.37123
1.3033
1.25033
1.28448
1.45903
1.75477
1.61728
1.58463
1.71979
1.50613
1.3772
1.30105
1.24452
1.27363
1.42094
1.68125
1.56987
1.56297
1.7332
1.5296
1.38729
1.30165
1.24095
1.2628
1.3909
1.6204
1.5374
1.54634
1.74343
1.55025
1.40043
1.30712
1.23985
1.2541
1.36783
1.57575
1.51804
1.53364
1.75308
1.56974
1.41282
1.31578
1.24014
1.24874
1.35088
1.54427
1.50738
1.52349
1.76106
1.58651
1.42554
1.32594
1.24177
1.24561
1.33766
1.52289
1.50356
1.51454
1.76754
1.60047
1.43744
1.33677
1.24437
1.24517
1.32791
1.51031
1.50359
1.50731
1.7743
1.61255
1.44867
1.34821
1.2482
1.24711
1.32233
1.50503
1.50624
1.50265
1.77661
1.62432
1.46006
1.35921
1.25362
1.24915
1.32042
1.50356
1.51117
1.5012
1.77533
1.63795
1.47215
1.37066
1.25762
1.25277
1.32061
1.50366
1.51685
1.50163
1.77082
1.65052
1.4857
1.38162
1.26199
1.25694
1.32249
1.50508
1.52411
1.5033
1.74364
1.6514
1.49739
1.39227
1.26692
1.26188
1.32541
1.50845
1.53307
1.50552
1.71779
1.65507
1.50885
1.40293
1.27241
1.26721
1.32874
1.51403
1.54067
1.5083
1.69609
1.64942
1.52241
1.41421
1.27885
1.27262
1.33326
1.52392
1.54784
1.51135
1.23286
1.42867
2.08856
2.13825
2.06447
2.0299
2.01475
2.00801
2.0002
1.98655
1.01221
1.02637
1.76335
2.04602
2.0189
2.01567
2.01606
2.01148
2.00302
1.98101
1.01439
1.01461
1.13935
2.06741
2.07154
2.04579
2.0351
2.02595
2.01249
1.98467
1.01441
1.01456
1.01485
1.60245
2.06765
2.0615
2.05286
2.03972
2.02238
1.98645
1.01441
1.01457
1.01484
1.05587
1.92784
2.0771
2.0619
2.04786
2.02886
1.98698
1.01441
1.01458
1.01474
1.015
1.35406
1.99522
2.05312
2.04299
2.02541
1.9819
1.01442
1.01458
1.01475
1.01494
1.02376
1.81381
2.04091
2.03311
2.01661
1.97427
1.01444
1.01461
1.01479
1.01497
1.01525
1.27324
1.95148
2.02093
2.00473
1.96547
1.01444
1.01461
1.01479
1.01498
1.01517
1.02247
1.77165
2.0098
1.9943
1.95745
1.01443
1.0146
1.01477
1.01496
1.01515
1.01549
1.28548
1.92864
1.98596
1.94956
1.01443
1.01459
1.01477
1.01496
1.01516
1.01541
1.02999
1.78386
1.97523
1.94208
1.01444
1.0146
1.01478
1.01497
1.01518
1.01538
1.01586
1.37254
1.93103
1.93449
1.01444
1.01461
1.01479
1.01499
1.0152
1.01541
1.01573
1.06373
1.84176
1.92515
1.01445
1.01462
1.0148
1.01499
1.0152
1.01542
1.01563
1.01769
1.56525
1.90634
1.01445
1.01462
1.01479
1.01499
1.01519
1.01542
1.01563
1.01607
1.17905
1.82934
1.01446
1.01462
1.01479
1.01498
1.01518
1.01541
1.01564
1.01594
1.03076
1.73213
1.01446
1.01462
1.01479
1.01498
1.01518
1.0154
1.01565
1.01587
1.0171
1.50965
1.01446
1.01462
1.01479
1.01498
1.01518
1.01541
1.01566
1.01589
1.01637
1.18696
1.01446
1.01462
1.0148
1.01499
1.01519
1.01541
1.01566
1.01591
1.01627
1.03676
1.01446
1.01462
1.0148
1.01499
1.0152
1.01542
1.01567
1.01592
1.01619
1.01786
1.00045
1.00138
1.00241
1.00354
1.00478
1.00615
1.00765
1.00935
1.01119
1.01318
1.00045
1.00138
1.00241
1.00354
1.00478
1.00615
1.00765
1.00935
1.0112
1.01327
1.00045
1.00138
1.00241
1.00354
1.00478
1.00615
1.00766
1.00935
1.01119
1.01325
1.00045
1.00138
1.00241
1.00354
1.00478
1.00615
1.00766
1.00934
1.01119
1.01325
1.00045
1.00138
1.00241
1.00354
1.00478
1.00615
1.00766
1.00934
1.01119
1.01325
1.00045
1.00138
1.00241
1.00354
1.00478
1.00615
1.00766
1.00934
1.01119
1.01325
1.00045
1.00138
1.00241
1.00354
1.00478
1.00615
1.00766
1.00934
1.01119
1.01327
1.00045
1.00138
1.00241
1.00354
1.00478
1.00615
1.00766
1.00933
1.01119
1.01328
1.00045
1.00138
1.00241
1.00354
1.00478
1.00615
1.00766
1.00933
1.0112
1.01327
1.00045
1.00138
1.00241
1.00354
1.00478
1.00615
1.00766
1.00933
1.0112
1.01328
1.00045
1.00138
1.00241
1.00354
1.00478
1.00615
1.00766
1.00933
1.0112
1.01328
1.00045
1.00138
1.00241
1.00354
1.00478
1.00615
1.00766
1.00933
1.0112
1.01328
1.00045
1.00138
1.00241
1.00354
1.00478
1.00615
1.00766
1.00933
1.0112
1.01328
1.00045
1.00138
1.00241
1.00354
1.00478
1.00615
1.00766
1.00933
1.0112
1.01328
1.00045
1.00138
1.00241
1.00354
1.00478
1.00615
1.00766
1.00933
1.0112
1.01328
1.00045
1.00138
1.00241
1.00354
1.00478
1.00615
1.00766
1.00933
1.0112
1.01329
1.00045
1.00138
1.00241
1.00354
1.00478
1.00615
1.00766
1.00933
1.01119
1.0133
1.00045
1.00138
1.00241
1.00354
1.00478
1.00615
1.00766
1.00933
1.01119
1.0133
1.00045
1.00138
1.00241
1.00354
1.00478
1.00615
1.00766
1.00934
1.01119
1.01329
1.00045
1.00138
1.00241
1.00354
1.00478
1.00615
1.00766
1.00934
1.01119
1.01328
1.00045
1.00138
1.00241
1.00354
1.00478
1.00615
1.00766
1.00934
1.01119
1.01328
1.00045
1.00138
1.00241
1.00354
1.00478
1.00615
1.00766
1.00934
1.01119
1.01329
1.00045
1.00138
1.00241
1.00354
1.00478
1.00615
1.00766
1.00933
1.01119
1.0133
1.00045
1.00138
1.00241
1.00354
1.00478
1.00615
1.00766
1.00933
1.01119
1.0133
1.00045
1.00138
1.00241
1.00354
1.00478
1.00615
1.00766
1.00933
1.0112
1.01329
1.00045
1.00138
1.00241
1.00354
1.00478
1.00615
1.00766
1.00933
1.0112
1.01328
1.00045
1.00138
1.00241
1.00354
1.00478
1.00615
1.00766
1.00933
1.0112
1.01328
1.00045
1.00138
1.00241
1.00354
1.00478
1.00615
1.00766
1.00933
1.0112
1.01328
1.00045
1.00138
1.00241
1.00354
1.00478
1.00615
1.00766
1.00933
1.0112
1.01328
1.00045
1.00138
1.00241
1.00354
1.00478
1.00615
1.00766
1.00933
1.0112
1.01328
1.00045
1.00138
1.00241
1.00354
1.00478
1.00615
1.00766
1.00933
1.0112
1.01328
1.00045
1.00138
1.00241
1.00354
1.00478
1.00615
1.00766
1.00933
1.0112
1.01327
1.00045
1.00138
1.00241
1.00354
1.00478
1.00615
1.00766
1.00933
1.01119
1.01328
1.00045
1.00138
1.00241
1.00354
1.00478
1.00615
1.00766
1.00934
1.01119
1.01327
1.00045
1.00138
1.00241
1.00354
1.00478
1.00615
1.00766
1.00934
1.01119
1.01325
1.00045
1.00138
1.00241
1.00354
1.00478
1.00615
1.00766
1.00934
1.01119
1.01325
1.00045
1.00138
1.00241
1.00354
1.00478
1.00615
1.00766
1.00934
1.01119
1.01325
1.00045
1.00138
1.00241
1.00354
1.00478
1.00615
1.00766
1.00935
1.01119
1.01325
1.00045
1.00138
1.00241
1.00354
1.00478
1.00615
1.00765
1.00935
1.0112
1.01327
1.00045
1.00138
1.00241
1.00354
1.00478
1.00615
1.00765
1.00935
1.01119
1.01318
1.01446
1.01462
1.0148
1.01499
1.0152
1.01542
1.01567
1.01592
1.01619
1.01777
1.01446
1.01462
1.0148
1.01499
1.01519
1.01541
1.01566
1.01591
1.01626
1.03547
1.01446
1.01462
1.01479
1.01498
1.01518
1.01541
1.01566
1.01589
1.01637
1.18229
1.01446
1.01462
1.01479
1.01498
1.01518
1.0154
1.01565
1.01587
1.0171
1.50486
1.01446
1.01462
1.01479
1.01498
1.01518
1.01541
1.01564
1.01594
1.03073
1.73054
1.01445
1.01462
1.01479
1.01499
1.01519
1.01542
1.01563
1.01607
1.17894
1.82887
1.01445
1.01462
1.0148
1.01499
1.0152
1.01542
1.01563
1.01769
1.56524
1.90583
1.01444
1.01461
1.01479
1.01499
1.0152
1.01541
1.01573
1.06359
1.84196
1.92438
1.01444
1.0146
1.01478
1.01497
1.01518
1.01538
1.01586
1.37217
1.93119
1.93357
1.01443
1.01459
1.01477
1.01496
1.01516
1.01541
1.02994
1.78372
1.97529
1.94146
1.01443
1.0146
1.01477
1.01496
1.01515
1.01549
1.28518
1.92861
1.98603
1.94909
1.01444
1.01461
1.01479
1.01498
1.01517
1.02245
1.77142
2.00978
1.99438
1.95712
1.01444
1.01461
1.01479
1.01497
1.01525
1.27308
1.95144
2.02093
2.00482
1.96523
1.01442
1.01458
1.01475
1.01494
1.02374
1.81366
2.04087
2.03312
2.01672
1.97416
1.01441
1.01458
1.01474
1.015
1.35393
1.99514
2.05306
2.04299
2.02553
1.98188
1.01441
1.01457
1.01484
1.05588
1.92777
2.07704
2.06183
2.04784
2.02896
1.98699
1.01441
1.01456
1.01485
1.60247
2.06761
2.06146
2.0528
2.0397
2.02247
1.98654
1.01439
1.01461
1.13942
2.06737
2.07152
2.04576
2.03506
2.02591
2.01255
1.98479
1.01221
1.02639
1.76346
2.046
2.01889
2.01565
2.01604
2.01143
2.00309
1.98125
1.23286
1.42877
2.08871
2.1382
2.06445
2.02988
2.01475
2.00796
2.00027
1.98668
1.70061
1.64776
1.52116
1.41074
1.32555
1.27
1.29384
1.4869
1.57186
1.5624
1.72217
1.65175
1.50671
1.40005
1.32028
1.26939
1.28754
1.47691
1.57824
1.56697
1.74767
1.64656
1.49386
1.39075
1.31519
1.27045
1.28204
1.46609
1.58302
1.57048
1.7754
1.64416
1.48032
1.38283
1.31141
1.27203
1.27658
1.45483
1.58672
1.57333
1.7804
1.6303
1.46365
1.37461
1.30864
1.27303
1.27204
1.44291
1.58915
1.57616
1.78241
1.61473
1.4474
1.36746
1.30756
1.27551
1.26798
1.43113
1.59073
1.57891
1.78183
1.6012
1.43062
1.36117
1.30807
1.27824
1.26536
1.41988
1.59164
1.58116
1.77545
1.58737
1.41272
1.35563
1.3109
1.28227
1.26426
1.40958
1.59238
1.58299
1.76906
1.57201
1.39481
1.35196
1.3166
1.28918
1.26607
1.40158
1.59349
1.58403
1.76014
1.55393
1.37471
1.3487
1.32456
1.29935
1.27151
1.39687
1.59554
1.58543
1.74896
1.53271
1.35725
1.34719
1.33451
1.31218
1.28015
1.39506
1.59941
1.58831
1.73691
1.51034
1.33886
1.34747
1.34687
1.32846
1.29043
1.39421
1.60498
1.594
1.72116
1.4857
1.32861
1.34599
1.36265
1.34947
1.3018
1.39233
1.61
1.60614
1.70281
1.45645
1.32502
1.34422
1.38619
1.38265
1.32144
1.39109
1.61107
1.62833
1.6787
1.42598
1.3261
1.3524
1.42095
1.43764
1.35708
1.39889
1.60982
1.66347
1.65177
1.39781
1.33742
1.37566
1.47119
1.51631
1.41163
1.42152
1.61125
1.71218
1.62256
1.38186
1.36317
1.42022
1.55354
1.62786
1.49715
1.45788
1.62389
1.76532
1.59835
1.39841
1.4093
1.49157
1.67343
1.76218
1.60215
1.50964
1.65105
1.81919
1.58569
1.46937
1.49293
1.59737
1.81123
1.88255
1.69311
1.57341
1.69457
1.86967
1.61778
1.61062
1.61886
1.72866
1.93324
1.95624
1.75942
1.63955
1.74994
1.91304
1.01728
1.01861
1.01978
1.02135
1.15854
1.82629
1.81916
1.71947
1.58721
1.44985
1.01729
1.01861
1.01972
1.02182
1.16776
1.80701
1.80591
1.71076
1.58301
1.44964
1.0173
1.01859
1.01965
1.02313
1.17575
1.77663
1.7774
1.69021
1.57162
1.447
1.0173
1.01853
1.01957
1.02721
1.18628
1.73423
1.73963
1.66053
1.55432
1.44122
1.0173
1.01848
1.01957
1.04046
1.19806
1.69351
1.69735
1.62637
1.53093
1.43112
1.0173
1.0184
1.01999
1.07815
1.21942
1.65968
1.66126
1.595
1.50625
1.41899
1.01729
1.0183
1.0219
1.15218
1.2581
1.62401
1.62292
1.55765
1.48403
1.40762
1.01728
1.01825
1.02941
1.23906
1.30674
1.58142
1.59963
1.53954
1.47364
1.39839
1.01725
1.01834
1.05339
1.30123
1.34585
1.53644
1.58618
1.5269
1.45894
1.39171
1.0172
1.01893
1.11389
1.34274
1.37561
1.48413
1.57282
1.5186
1.45808
1.39135
1.01715
1.02159
1.20771
1.38561
1.38966
1.43002
1.55163
1.51185
1.46107
1.39408
1.01711
1.03297
1.29975
1.42523
1.39163
1.39798
1.52385
1.50664
1.46994
1.40221
1.01709
1.07194
1.37105
1.45672
1.39475
1.38042
1.49136
1.49939
1.48236
1.41903
1.01712
1.16002
1.43918
1.47101
1.39962
1.36459
1.45558
1.50334
1.49433
1.43648
1.01808
1.27922
1.50262
1.48389
1.39921
1.34708
1.42348
1.51441
1.50456
1.45379
1.03057
1.38528
1.54325
1.49535
1.39648
1.33051
1.3989
1.52842
1.5129
1.47028
1.09662
1.48133
1.56675
1.49824
1.3902
1.3149
1.37612
1.53537
1.52355
1.49048
1.24601
1.5876
1.5718
1.49066
1.37901
1.30134
1.35289
1.53305
1.5333
1.51345
1.45714
1.6321
1.57491
1.46761
1.35917
1.28688
1.32819
1.52131
1.54564
1.53512
1.64272
1.64187
1.54769
1.43378
1.33822
1.27548
1.30699
1.5018
1.56035
1.55236
1.63628
1.64251
1.54822
1.43648
1.29456
1.28232
1.34289
1.5379
1.55303
1.51545
1.44709
1.63364
1.57521
1.46831
1.32308
1.29501
1.3577
1.54997
1.55478
1.51247
1.23436
1.58819
1.57177
1.48841
1.3517
1.30847
1.37676
1.55366
1.55212
1.50013
1.09081
1.4831
1.56703
1.49542
1.3707
1.32092
1.39773
1.5559
1.54617
1.48319
1.02878
1.38913
1.54444
1.49323
1.38349
1.33366
1.41992
1.55225
1.5354
1.46496
1.01788
1.28164
1.50347
1.48212
1.39041
1.3462
1.44097
1.54786
1.52191
1.44753
1.0171
1.16083
1.44186
1.46864
1.39425
1.36175
1.46381
1.53883
1.50906
1.4329
1.01709
1.07222
1.37299
1.45398
1.39003
1.37832
1.49301
1.5262
1.49486
1.41576
1.01711
1.03309
1.30041
1.4217
1.38734
1.39581
1.52898
1.521
1.48015
1.4035
1.01715
1.02164
1.20682
1.38315
1.38523
1.42635
1.55836
1.5216
1.46839
1.39453
1.0172
1.01894
1.11249
1.3395
1.37046
1.47751
1.57802
1.52653
1.46368
1.3924
1.01725
1.01834
1.05265
1.2979
1.33877
1.52888
1.58787
1.53336
1.46367
1.39233
1.01728
1.01826
1.02904
1.23323
1.29865
1.57656
1.59808
1.54559
1.47569
1.39739
1.01729
1.01831
1.02174
1.14554
1.25098
1.62102
1.62013
1.56143
1.48354
1.40497
1.0173
1.0184
1.01993
1.07363
1.2149
1.65579
1.65913
1.59428
1.5037
1.41443
1.0173
1.01849
1.01956
1.03854
1.19558
1.69006
1.69453
1.62426
1.52695
1.42379
1.0173
1.01854
1.01957
1.02658
1.1834
1.7298
1.73584
1.6578
1.54841
1.43134
1.01729
1.01859
1.01965
1.02293
1.17117
1.77069
1.77239
1.68639
1.56479
1.43534
1.01729
1.01861
1.01973
1.02177
1.16147
1.80057
1.80077
1.70665
1.57504
1.43663
1.01728
1.01862
1.01978
1.02134
1.15127
1.81774
1.81233
1.7141
1.57872
1.43635
1.01445
1.01461
1.01479
1.01499
1.01519
1.01542
1.01566
1.01593
1.01621
1.01655
1.01445
1.01461
1.01479
1.01498
1.01519
1.01542
1.01566
1.01592
1.01623
1.01645
1.01445
1.01461
1.01479
1.01498
1.01519
1.01541
1.01566
1.01592
1.01623
1.01645
1.01445
1.01461
1.01479
1.01498
1.01518
1.01541
1.01566
1.01592
1.01623
1.01645
1.01444
1.0146
1.01478
1.01497
1.01518
1.01541
1.01566
1.01592
1.01623
1.01646
1.01443
1.0146
1.01478
1.01497
1.01518
1.01541
1.01566
1.01592
1.01622
1.0165
1.01443
1.0146
1.01478
1.01497
1.01518
1.01541
1.01566
1.01593
1.01622
1.01655
1.01443
1.01459
1.01477
1.01497
1.01518
1.01541
1.01566
1.01593
1.01623
1.01657
1.01443
1.0146
1.01478
1.01497
1.01519
1.01542
1.01567
1.01594
1.01623
1.01658
1.01444
1.01461
1.01479
1.01498
1.0152
1.01543
1.01568
1.01595
1.01623
1.01657
1.01445
1.01462
1.0148
1.01499
1.0152
1.01543
1.01568
1.01595
1.01624
1.01656
1.01446
1.01463
1.01481
1.015
1.01521
1.01544
1.01568
1.01595
1.01623
1.01655
1.01447
1.01463
1.01481
1.015
1.01521
1.01543
1.01567
1.01594
1.01623
1.01654
1.01447
1.01463
1.01481
1.015
1.01521
1.01543
1.01568
1.01594
1.01623
1.01654
1.01446
1.01463
1.01481
1.015
1.01521
1.01544
1.01568
1.01595
1.01624
1.01654
1.01445
1.01462
1.0148
1.015
1.01521
1.01544
1.01568
1.01595
1.01624
1.01655
1.01444
1.01461
1.01479
1.01499
1.0152
1.01543
1.01568
1.01595
1.01624
1.01655
1.01444
1.0146
1.01478
1.01498
1.01519
1.01542
1.01567
1.01594
1.01623
1.01655
1.01443
1.0146
1.01477
1.01497
1.01518
1.01541
1.01566
1.01593
1.01622
1.01654
1.01442
1.01459
1.01477
1.01496
1.01517
1.0154
1.01565
1.01592
1.01622
1.01654
1.00045
1.00138
1.00241
1.00354
1.00478
1.00615
1.00766
1.00934
1.01119
1.01328
1.00045
1.00138
1.00241
1.00354
1.00478
1.00615
1.00766
1.00934
1.0112
1.01328
1.00045
1.00138
1.00241
1.00354
1.00478
1.00615
1.00766
1.00933
1.0112
1.01328
1.00045
1.00138
1.00241
1.00354
1.00478
1.00615
1.00766
1.00933
1.0112
1.01328
1.00045
1.00138
1.00241
1.00354
1.00478
1.00615
1.00766
1.00933
1.0112
1.01328
1.00045
1.00138
1.00241
1.00354
1.00478
1.00615
1.00766
1.00933
1.01121
1.01328
1.00045
1.00138
1.00241
1.00354
1.00478
1.00615
1.00766
1.00933
1.01121
1.01327
1.00045
1.00138
1.00241
1.00354
1.00478
1.00615
1.00766
1.00933
1.0112
1.01327
1.00045
1.00138
1.00241
1.00354
1.00478
1.00615
1.00766
1.00933
1.0112
1.01327
1.00045
1.00138
1.00241
1.00354
1.00478
1.00615
1.00766
1.00934
1.0112
1.01328
1.00045
1.00138
1.00241
1.00354
1.00478
1.00615
1.00766
1.00934
1.01119
1.01328
1.00045
1.00138
1.00241
1.00354
1.00478
1.00615
1.00766
1.00934
1.01119
1.01329
1.00045
1.00138
1.00241
1.00354
1.00478
1.00615
1.00766
1.00934
1.01119
1.0133
1.00045
1.00138
1.00241
1.00354
1.00478
1.00615
1.00766
1.00934
1.01119
1.0133
1.00045
1.00138
1.00241
1.00354
1.00478
1.00615
1.00766
1.00934
1.01119
1.01329
1.00045
1.00138
1.00241
1.00354
1.00478
1.00615
1.00766
1.00934
1.01119
1.01328
1.00045
1.00138
1.00241
1.00354
1.00478
1.00615
1.00766
1.00934
1.01119
1.01328
1.00045
1.00138
1.00241
1.00354
1.00478
1.00615
1.00766
1.00934
1.0112
1.01327
1.00045
1.00138
1.00241
1.00354
1.00478
1.00615
1.00766
1.00934
1.0112
1.01327
1.00045
1.00138
1.00241
1.00354
1.00478
1.00615
1.00766
1.00933
1.0112
1.01327
1.00045
1.00138
1.00241
1.00354
1.00478
1.00615
1.00766
1.00933
1.0112
1.01327
1.00045
1.00138
1.00241
1.00354
1.00478
1.00615
1.00766
1.00934
1.0112
1.01327
1.00045
1.00138
1.00241
1.00354
1.00478
1.00615
1.00766
1.00934
1.0112
1.01327
1.00045
1.00138
1.00241
1.00354
1.00478
1.00615
1.00766
1.00934
1.01119
1.01328
1.00045
1.00138
1.00241
1.00354
1.00478
1.00615
1.00766
1.00934
1.01119
1.01328
1.00045
1.00138
1.00241
1.00354
1.00478
1.00615
1.00766
1.00934
1.01119
1.01329
1.00045
1.00138
1.00241
1.00354
1.00478
1.00615
1.00766
1.00934
1.01119
1.0133
1.00045
1.00138
1.00241
1.00354
1.00478
1.00615
1.00766
1.00934
1.01119
1.0133
1.00045
1.00138
1.00241
1.00354
1.00478
1.00615
1.00766
1.00934
1.01119
1.01329
1.00045
1.00138
1.00241
1.00354
1.00478
1.00615
1.00766
1.00934
1.01119
1.01328
1.00045
1.00138
1.00241
1.00354
1.00478
1.00615
1.00766
1.00934
1.0112
1.01328
1.00045
1.00138
1.00241
1.00354
1.00478
1.00615
1.00766
1.00933
1.0112
1.01327
1.00045
1.00138
1.00241
1.00354
1.00478
1.00615
1.00766
1.00933
1.0112
1.01327
1.00045
1.00138
1.00241
1.00354
1.00478
1.00615
1.00766
1.00933
1.01121
1.01327
1.00045
1.00138
1.00241
1.00354
1.00478
1.00615
1.00766
1.00933
1.01121
1.01328
1.00045
1.00138
1.00241
1.00354
1.00478
1.00615
1.00766
1.00933
1.0112
1.01328
1.00045
1.00138
1.00241
1.00354
1.00478
1.00615
1.00766
1.00933
1.0112
1.01328
1.00045
1.00138
1.00241
1.00354
1.00478
1.00615
1.00766
1.00933
1.0112
1.01328
1.00045
1.00138
1.00241
1.00354
1.00478
1.00615
1.00766
1.00934
1.0112
1.01328
1.00045
1.00138
1.00241
1.00354
1.00478
1.00615
1.00766
1.00934
1.01119
1.01328
1.01442
1.01459
1.01477
1.01496
1.01517
1.0154
1.01565
1.01592
1.01622
1.01654
1.01443
1.0146
1.01477
1.01497
1.01518
1.01541
1.01566
1.01593
1.01622
1.01654
1.01444
1.0146
1.01478
1.01498
1.01519
1.01542
1.01567
1.01594
1.01623
1.01655
1.01445
1.01461
1.01479
1.01499
1.0152
1.01543
1.01568
1.01595
1.01624
1.01655
1.01446
1.01462
1.0148
1.015
1.01521
1.01544
1.01568
1.01595
1.01624
1.01655
1.01446
1.01463
1.01481
1.015
1.01521
1.01544
1.01568
1.01595
1.01623
1.01654
1.01447
1.01463
1.01481
1.015
1.01521
1.01543
1.01568
1.01594
1.01623
1.01654
1.01447
1.01463
1.01481
1.015
1.01521
1.01543
1.01567
1.01594
1.01623
1.01654
1.01446
1.01463
1.01481
1.015
1.01521
1.01544
1.01568
1.01595
1.01623
1.01655
1.01445
1.01462
1.0148
1.01499
1.0152
1.01543
1.01568
1.01595
1.01624
1.01656
1.01444
1.01461
1.01479
1.01498
1.0152
1.01543
1.01568
1.01595
1.01623
1.01657
1.01443
1.0146
1.01478
1.01497
1.01519
1.01542
1.01567
1.01594
1.01623
1.01658
1.01443
1.01459
1.01477
1.01497
1.01518
1.01541
1.01566
1.01593
1.01623
1.01657
1.01443
1.0146
1.01478
1.01497
1.01518
1.01541
1.01566
1.01593
1.01622
1.01655
1.01443
1.0146
1.01478
1.01497
1.01518
1.01541
1.01566
1.01592
1.01622
1.01649
1.01444
1.0146
1.01478
1.01497
1.01518
1.01541
1.01566
1.01592
1.01623
1.01646
1.01445
1.01461
1.01479
1.01498
1.01518
1.01541
1.01566
1.01592
1.01623
1.01645
1.01445
1.01461
1.01479
1.01498
1.01519
1.01541
1.01566
1.01592
1.01623
1.01645
1.01445
1.01461
1.01479
1.01498
1.01519
1.01542
1.01566
1.01592
1.01623
1.01645
1.01445
1.01461
1.01479
1.01499
1.01519
1.01542
1.01566
1.01593
1.01621
1.01655
)
;

boundaryField
{
    inlet
    {
        type            fixedValue;
        value           uniform 1;
    }
    outlet
    {
        type            inletOutlet;
        inletValue      uniform 1;
        value           nonuniform List<scalar> 
100
(
1.51545
1.51231
1.49989
1.48301
1.46485
1.44747
1.43286
1.41565
1.40338
1.39448
1.39236
1.39233
1.39739
1.40497
1.4144
1.42374
1.43126
1.43523
1.43651
1.43623
1.8214
1.77823
1.73525
1.69237
1.65104
1.61395
1.58437
1.56279
1.54617
1.53346
1.52333
1.51446
1.50724
1.5026
1.50115
1.50156
1.50324
1.50547
1.50826
1.51136
1.94596
1.96531
1.97652
1.98098
1.9813
1.98121
1.97984
1.98065
1.97934
1.98007
1.97957
1.9798
1.97678
1.96957
1.95845
1.94425
1.92787
1.90886
1.88597
1.858
1.56228
1.56684
1.57037
1.57323
1.57607
1.57881
1.58105
1.58287
1.5839
1.58529
1.5882
1.59393
1.60615
1.62852
1.66381
1.71271
1.76606
1.82004
1.87049
1.91371
1.44979
1.44958
1.44693
1.44116
1.43109
1.41897
1.40762
1.3984
1.3917
1.39131
1.39403
1.40214
1.41895
1.43641
1.45374
1.4702
1.49032
1.51323
1.53493
1.55221
)
;
    }
    triangle
    {
        type            zeroGradient;
    }
    top
    {
        type            symmetryPlane;
    }
    bottom
    {
        type            symmetryPlane;
    }
    defaultFaces
    {
        type            empty;
    }
}


// ************************************************************************* //
