/*--------------------------------*- C++ -*----------------------------------*\
  =========                 |
  \\      /  F ield         | OpenFOAM: The Open Source CFD Toolbox
   \\    /   O peration     | Website:  https://openfoam.org
    \\  /    A nd           | Version:  8
     \\/     M anipulation  |
\*---------------------------------------------------------------------------*/
FoamFile
{
    version     2.0;
    format      ascii;
    class       volVectorField;
    location    "1.3";
    object      U;
}
// * * * * * * * * * * * * * * * * * * * * * * * * * * * * * * * * * * * * * //

dimensions      [0 1 -1 0 0 0 0];

internalField   nonuniform List<vector> 
325
(
(2.05809 0.678934 0)
(2.56543 0.280416 0)
(2.74484 0.34923 0)
(1.45647 0.107306 0)
(2.08848 0.14408 0)
(2.53177 0.29641 0)
(0.706197 0.0630668 0)
(1.44279 0.214702 0)
(2.11908 0.291413 0)
(0.204926 -0.0766855 0)
(0.818435 0.0753432 0)
(1.55876 0.191292 0)
(-0.00978577 -0.0857173 0)
(0.341897 0.035072 0)
(0.951961 0.138224 0)
(-0.102425 -0.0868607 0)
(0.0532461 -0.0116614 0)
(0.422655 0.066619 0)
(-0.14868 -0.0730971 0)
(-0.110701 -0.0261733 0)
(0.0352755 0.0375029 0)
(-0.172739 -0.0589697 0)
(-0.199798 -0.0357768 0)
(-0.199814 0.00237098 0)
(-0.178137 -0.0344171 0)
(-0.245702 -0.0353042 0)
(-0.309857 -0.00687824 0)
(-0.181973 -0.0137588 0)
(-0.261604 -0.0122679 0)
(-0.339991 -0.0013517 0)
(-0.181597 0.0121996 0)
(-0.261509 0.0133208 0)
(-0.339875 0.00415258 0)
(-0.31684 0.00163865 0)
(-0.178134 0.0328641 0)
(-0.2456 0.0361228 0)
(-0.309549 0.0106128 0)
(-0.259791 0.000312723 0)
(-0.172938 0.0577394 0)
(-0.199795 0.036728 0)
(-0.199936 0.00201235 0)
(-0.0541725 -0.00722032 0)
(-0.148748 0.0725913 0)
(-0.111216 0.0271801 0)
(0.0336217 -0.0341828 0)
(3 -2.8888e-07 0)
(3 -3.58591e-07 0)
(3 -4.40624e-07 0)
(3 -5.83291e-07 0)
(3 -3.12699e-07 0)
(3 -3.56467e-07 0)
(3 -5.30891e-07 0)
(3 1.32091e-06 0)
(3 -3.27036e-07 0)
(3 -3.82546e-07 0)
(3 -5.24613e-07 0)
(3.00001 2.36835e-05 0)
(3 -3.38185e-07 0)
(3 -4.03828e-07 0)
(3 -5.52689e-07 0)
(3.00007 0.000167491 0)
(3 -3.43125e-07 0)
(3 -4.13234e-07 0)
(3 -5.60335e-07 0)
(3.00037 0.000848641 0)
(3 -3.44273e-07 0)
(3 -4.19644e-07 0)
(3 -5.7567e-07 0)
(3.00134 0.00188997 0)
(3 -3.34508e-07 0)
(3 -4.17267e-07 0)
(3 -5.68617e-07 0)
(3.00458 0.00320807 0)
(3 -3.48236e-07 0)
(3 -4.11178e-07 0)
(3 -6.16771e-07 0)
(3.12111 0.0567191 0)
(3 -3.39053e-07 0)
(3 -4.23231e-07 0)
(3 -3.8328e-06 0)
(2.88774 -0.425018 0)
(3 -3.30208e-07 0)
(3 -4.94318e-07 0)
(3.00003 -0.00115969 0)
(1.98098 -0.750504 0)
(3 -3.25088e-07 0)
(3 -4.55525e-07 0)
(3.02688 -0.0420953 0)
(1.73018 -0.820192 0)
(3 -3.94999e-07 0)
(3 -6.53759e-05 0)
(2.65511 -0.525767 0)
(1.61065 -0.885224 0)
(3 -3.27343e-07 0)
(3.011 -0.0322023 0)
(1.78167 -0.846728 0)
(1.53731 -0.898353 0)
(3 -1.62729e-06 0)
(2.54075 -0.549292 0)
(1.61618 -0.917604 0)
(1.54029 -0.895847 0)
(2.95955 -0.0988591 0)
(1.6882 -0.857875 0)
(1.5545 -0.928406 0)
(1.54878 -0.905091 0)
(2.10314 -0.737169 0)
(1.56207 -0.945894 0)
(1.59522 -0.941394 0)
(1.59695 -0.926365 0)
(1.5393 -0.994446 0)
(1.6124 -0.976854 0)
(1.65822 -0.968233 0)
(1.66132 -0.960086 0)
(1.59026 -1.02467 0)
(1.67185 -1.00675 0)
(1.71447 -0.97129 0)
(1.71208 -0.972793 0)
(1.56892 -1.1108 0)
(1.68597 -1.05914 0)
(1.71641 -1.01098 0)
(1.7314 -0.985387 0)
(1.71847 -1.00131 0)
(1.77807 -1.05773 0)
(1.75475 -1.03109 0)
(1.73096 -1.00932 0)
(2.76854 -0.439883 0)
(2.12986 -0.724464 0)
(2.205 -0.639151 0)
(2.54428 -0.514044 0)
(2.10158 -0.722706 0)
(2.21521 -0.625708 0)
(2.39311 -0.580302 0)
(2.08925 -0.721697 0)
(2.23826 -0.598716 0)
(2.22171 -0.614264 0)
(2.08203 -0.722917 0)
(2.26327 -0.57161 0)
(2.13892 -0.644636 0)
(2.08459 -0.723429 0)
(2.29711 -0.536979 0)
(2.05314 -0.693791 0)
(2.08394 -0.707789 0)
(2.33287 -0.490768 0)
(1.99126 -0.73594 0)
(2.08785 -0.688455 0)
(2.35381 -0.438419 0)
(1.94652 -0.767297 0)
(2.10289 -0.656729 0)
(2.37617 -0.378865 0)
(1.90436 -0.786139 0)
(2.12268 -0.629056 0)
(2.41351 -0.30991 0)
(1.855 -0.807424 0)
(2.16533 -0.593124 0)
(2.44651 -0.252072 0)
(1.86245 -0.806842 0)
(2.23049 -0.560127 0)
(2.51869 -0.164881 0)
(1.88051 -0.788461 0)
(2.2816 -0.511022 0)
(2.54511 -0.112554 0)
(1.91158 -0.75326 0)
(2.32271 -0.47029 0)
(2.59519 -0.0119784 0)
(1.96413 -0.724148 0)
(2.38406 -0.412428 0)
(2.62011 0.0425767 0)
(1.99758 -0.692211 0)
(2.45299 -0.329917 0)
(2.6825 0.171828 0)
(2.08512 -0.645745 0)
(2.50794 -0.27006 0)
(2.70234 0.217372 0)
(2.14612 -0.583338 0)
(2.61565 -0.0746143 0)
(2.72224 0.324253 0)
(2.22644 -0.473742 0)
(2.69562 -0.0522516 0)
(2.71858 0.341894 0)
(2.3102 -0.268399 0)
(2.84178 0.216835 0)
(2.78182 0.354866 0)
(2.30376 -0.0898924 0)
(2.8227 0.234271 0)
(2.81808 0.350326 0)
(3 -3.30606e-09 0)
(3 -4.77964e-09 0)
(3 -3.82653e-08 0)
(3 -1.09194e-08 0)
(3 -1.80473e-08 0)
(3 -4.13517e-08 0)
(3 -2.23759e-08 0)
(3 -3.0295e-08 0)
(3 -2.32994e-07 0)
(3 -3.6708e-08 0)
(3 -5.36082e-08 0)
(3 -8.56043e-07 0)
(3 -5.52421e-08 0)
(3 -9.06514e-08 0)
(3 -3.59969e-06 0)
(3 -7.94053e-08 0)
(3 -1.41305e-07 0)
(2.99999 -1.65132e-05 0)
(3 -1.08007e-07 0)
(3 -2.267e-07 0)
(2.99997 -8.12552e-05 0)
(3 -1.33788e-07 0)
(3 -5.36392e-07 0)
(2.99985 -0.0003519 0)
(3 -1.75644e-07 0)
(3 -2.1295e-06 0)
(2.99929 -0.00162361 0)
(3 -2.2444e-07 0)
(3 -1.20336e-05 0)
(2.99724 -0.00651538 0)
(3 -2.79335e-07 0)
(2.99997 -7.25241e-05 0)
(2.99233 -0.0236095 0)
(3 -2.65819e-07 0)
(2.99981 -0.000413575 0)
(2.98872 -0.077879 0)
(3 4.55666e-07 0)
(2.99905 -0.00227801 0)
(2.9733 -0.190161 0)
(3 5.13385e-06 0)
(2.99742 -0.0111958 0)
(2.84727 -0.364359 0)
(3 1.79078e-05 0)
(3.00699 -0.0471886 0)
(2.65031 -0.525669 0)
(3.00008 4.92513e-05 0)
(3.02663 -0.133511 0)
(2.47389 -0.644616 0)
(3.00048 3.30953e-05 0)
(2.88659 -0.329594 0)
(2.36887 -0.690215 0)
(3.01627 -0.00132036 0)
(2.61512 -0.524046 0)
(2.31081 -0.693957 0)
(3.12566 -0.0136754 0)
(2.38997 -0.659764 0)
(2.29792 -0.671796 0)
(3.07488 -0.208816 0)
(2.23557 -0.721338 0)
(2.22499 -0.677312 0)
(3 -7.70534e-10 0)
(3 -7.9937e-10 0)
(3 -1.15047e-09 0)
(3 -1.21724e-09 0)
(3 -2.55844e-09 0)
(3 -2.69242e-09 0)
(3 -3.85409e-09 0)
(3 -4.07026e-09 0)
(3 -5.06317e-09 0)
(3 -5.40447e-09 0)
(3 -7.74467e-09 0)
(3 -8.10614e-09 0)
(3 -8.83856e-09 0)
(3 -9.6307e-09 0)
(3 -1.35135e-08 0)
(3 -1.45139e-08 0)
(3 -1.44178e-08 0)
(3 -1.61703e-08 0)
(3 -2.19271e-08 0)
(3 -2.47206e-08 0)
(3 -2.27781e-08 0)
(3 -2.6468e-08 0)
(3 -3.42332e-08 0)
(3 -4.02351e-08 0)
(3 -3.29394e-08 0)
(3 -3.75423e-08 0)
(3 -4.95399e-08 0)
(3 -5.83448e-08 0)
(3 -4.5561e-08 0)
(3 -5.63387e-08 0)
(3 -6.76858e-08 0)
(3 -8.62539e-08 0)
(3 -5.99321e-08 0)
(3 -6.93641e-08 0)
(3 -8.94214e-08 0)
(3 -1.0763e-07 0)
(3 -7.74431e-08 0)
(3 -9.4405e-08 0)
(3 -1.14897e-07 0)
(3 -1.45561e-07 0)
(3 -1.00855e-07 0)
(3 -1.14134e-07 0)
(3 -1.48163e-07 0)
(3 -1.74251e-07 0)
(3 -1.20281e-07 0)
(3 -1.47764e-07 0)
(3 -1.72076e-07 0)
(3 -2.48439e-07 0)
(3 -1.44704e-07 0)
(3 -1.81818e-07 0)
(3 -2.13757e-07 0)
(3 -3.13831e-07 0)
(3 -1.76468e-07 0)
(3 -2.14442e-07 0)
(3 -2.48117e-07 0)
(3 -3.48729e-07 0)
(3 -1.93416e-07 0)
(3 -2.33467e-07 0)
(3 -2.76607e-07 0)
(3 -3.94261e-07 0)
(3 -2.09862e-07 0)
(3 -2.45947e-07 0)
(3 -2.88035e-07 0)
(3 -4.0843e-07 0)
(3 -2.07983e-07 0)
(3 -2.87105e-07 0)
(3 -2.81202e-07 0)
(3 -4.37872e-07 0)
(3 -2.13522e-07 0)
(3 -2.85714e-07 0)
(3 -3.09257e-07 0)
(3 -4.30547e-07 0)
(3 -2.09755e-07 0)
(3 -3.29063e-07 0)
(3 -3.06973e-07 0)
(3 -5.2281e-07 0)
(3 -2.60317e-07 0)
(3 -3.31281e-07 0)
(3 -3.88138e-07 0)
(3 -5.19176e-07 0)
)
;

boundaryField
{
    inlet
    {
        type            fixedValue;
        value           nonuniform List<vector> 0();
    }
    outlet
    {
        type            inletOutlet;
        inletValue      nonuniform List<vector> 0();
        value           nonuniform List<vector> 0();
    }
    triangle
    {
        type            slip;
    }
    top
    {
        type            symmetryPlane;
    }
    bottom
    {
        type            symmetryPlane;
    }
    defaultFaces
    {
        type            empty;
    }
    procBoundary2to1
    {
        type            processor;
        value           nonuniform List<vector> 
40
(
(3 -2.37872e-07 0)
(3 -2.47564e-07 0)
(3 -2.7028e-07 0)
(3 -2.84277e-07 0)
(3 -2.89e-07 0)
(3 -2.88804e-07 0)
(3 -2.84871e-07 0)
(3 -2.81961e-07 0)
(3 -2.76812e-07 0)
(3 -3.12081e-07 0)
(3 -2.78739e-07 0)
(3 -2.41151e-07 0)
(3 -2.2184e-07 0)
(3 -2.55106e-07 0)
(3 -2.17703e-07 0)
(2.99998 -1.93265e-05 0)
(2.74746 -0.381131 0)
(1.89699 -0.973334 0)
(1.4583 -1.18026 0)
(1.66184 -0.931962 0)
(3 -5.59342e-10 0)
(3 -1.90609e-09 0)
(3 -3.82573e-09 0)
(3 -6.78241e-09 0)
(3 -1.12119e-08 0)
(3 -1.84249e-08 0)
(3 -2.57097e-08 0)
(3 -3.91355e-08 0)
(3 -4.74585e-08 0)
(3 -6.58695e-08 0)
(3 -7.91756e-08 0)
(3 -1.03584e-07 0)
(3 -1.22158e-07 0)
(3 -1.51322e-07 0)
(3 -1.64853e-07 0)
(3 -1.71042e-07 0)
(3 -2.03183e-07 0)
(3 -1.98314e-07 0)
(3 -2.16148e-07 0)
(3 -2.1147e-07 0)
)
;
    }
    procBoundary2to3
    {
        type            processor;
        value           nonuniform List<vector> 
47
(
(2.80669 0.313003 0)
(2.72406 0.276765 0)
(2.50885 0.261637 0)
(2.11947 0.200653 0)
(1.56328 0.155323 0)
(0.931536 0.0974445 0)
(0.355572 0.053483 0)
(2.36991 -0.470904 0)
(2.39766 -0.443445 0)
(2.42323 -0.414441 0)
(2.45111 -0.384288 0)
(2.48698 -0.339414 0)
(2.51372 -0.303649 0)
(2.5425 -0.250596 0)
(2.56234 -0.212599 0)
(2.60546 -0.138453 0)
(2.63346 -0.0996753 0)
(2.70444 -0.00919275 0)
(2.7308 0.0466973 0)
(2.76229 0.134637 0)
(2.77131 0.163386 0)
(2.80894 0.228873 0)
(2.81286 0.257463 0)
(2.82654 0.28303 0)
(2.84312 0.293121 0)
(2.83478 0.310909 0)
(2.83091 0.313878 0)
(3 -8.63081e-09 0)
(3 -1.36693e-06 0)
(3 -1.15469e-05 0)
(2.99997 -9.25233e-05 0)
(2.9998 -0.000588569 0)
(2.99895 -0.00288871 0)
(2.99623 -0.0115027 0)
(2.99198 -0.0422636 0)
(2.99465 -0.109161 0)
(2.9493 -0.232647 0)
(2.80192 -0.386955 0)
(2.65152 -0.514424 0)
(2.52731 -0.622966 0)
(2.45773 -0.664442 0)
(2.41348 -0.67163 0)
(2.40537 -0.656836 0)
(2.35399 -0.662519 0)
(2.33408 -0.635088 0)
(2.34824 -0.560261 0)
(2.3389 -0.527966 0)
)
;
    }
    procBoundary2to6
    {
        type            processor;
        value           nonuniform List<vector> 5((0.356318 -0.0480455 0) (-0.102454 0.0864045 0) (0.051937 0.0127461 0) (0.356318 -0.0480455 0) (0.419413 -0.063587 0));
    }
    procBoundary2to7
    {
        type            processor;
        value           nonuniform List<vector> 7((-0.0563115 0.014813 0) (-0.261198 0.00980485 0) (-0.317003 0.00651106 0) (-0.317003 0.00651106 0) (-0.183615 -0.00390384 0) (-0.105775 -0.00853281 0) (0.165446 -0.0161197 0));
    }
}


// ************************************************************************* //
