/*--------------------------------*- C++ -*----------------------------------*\
  =========                 |
  \\      /  F ield         | OpenFOAM: The Open Source CFD Toolbox
   \\    /   O peration     | Website:  https://openfoam.org
    \\  /    A nd           | Version:  7
     \\/     M anipulation  |
\*---------------------------------------------------------------------------*/
FoamFile
{
    version     2.0;
    format      ascii;
    class       volVectorField;
    location    "1.3";
    object      U;
}
// * * * * * * * * * * * * * * * * * * * * * * * * * * * * * * * * * * * * * //

dimensions      [0 1 -1 0 0 0 0];

internalField   nonuniform List<vector> 
325
(
(2.05802 0.678808 0)
(2.56524 0.280148 0)
(2.74451 0.349098 0)
(1.45708 0.107307 0)
(2.08819 0.144124 0)
(2.53155 0.296237 0)
(0.706523 0.0625901 0)
(1.44233 0.214257 0)
(2.1188 0.291377 0)
(0.204826 -0.0767916 0)
(0.817797 0.0748983 0)
(1.55836 0.190761 0)
(-0.00982718 -0.0860111 0)
(0.341403 0.0347967 0)
(0.951374 0.138037 0)
(-0.102419 -0.0866397 0)
(0.05296 -0.0120814 0)
(0.422187 0.0657867 0)
(-0.148708 -0.0729879 0)
(-0.110869 -0.0264992 0)
(0.0350208 0.0367066 0)
(-0.172789 -0.0587019 0)
(-0.199829 -0.0361199 0)
(-0.199712 0.00124686 0)
(-0.178113 -0.0341179 0)
(-0.24558 -0.0356047 0)
(-0.309587 -0.00794772 0)
(-0.181876 -0.0135539 0)
(-0.26126 -0.0125521 0)
(-0.339727 -0.00184289 0)
(-0.181682 0.0126206 0)
(-0.261204 0.0129494 0)
(-0.339667 0.00336007 0)
(-0.316986 0.000105137 0)
(-0.178148 0.0332107 0)
(-0.245512 0.0358304 0)
(-0.309479 0.00974273 0)
(-0.260261 -0.00150035 0)
(-0.172905 0.0579762 0)
(-0.199885 0.0363201 0)
(-0.200015 0.000890694 0)
(-0.0549735 -0.00941086 0)
(-0.148768 0.0726694 0)
(-0.111215 0.0268785 0)
(0.0335769 -0.0351833 0)
(3 -2.88909e-07 0)
(3 -3.58607e-07 0)
(3 -4.40637e-07 0)
(3 -5.83342e-07 0)
(3 -3.12724e-07 0)
(3 -3.5649e-07 0)
(3 -5.3092e-07 0)
(3 1.32058e-06 0)
(3 -3.27059e-07 0)
(3 -3.82568e-07 0)
(3 -5.24641e-07 0)
(3.00001 2.36823e-05 0)
(3 -3.38212e-07 0)
(3 -4.03855e-07 0)
(3 -5.52722e-07 0)
(3.00007 0.00016751 0)
(3 -3.43149e-07 0)
(3 -4.13256e-07 0)
(3 -5.60364e-07 0)
(3.00037 0.000848923 0)
(3 -3.44296e-07 0)
(3 -4.19668e-07 0)
(3 -5.75699e-07 0)
(3.00134 0.00189057 0)
(3 -3.34523e-07 0)
(3 -4.17283e-07 0)
(3 -5.68639e-07 0)
(3.00458 0.00320967 0)
(3 -3.48251e-07 0)
(3 -4.11189e-07 0)
(3 -6.16802e-07 0)
(3.12113 0.0567112 0)
(3 -3.39054e-07 0)
(3 -4.23245e-07 0)
(3 -3.83369e-06 0)
(2.8877 -0.425049 0)
(3 -3.30211e-07 0)
(3 -4.94324e-07 0)
(3.00003 -0.00115989 0)
(1.98095 -0.750507 0)
(3 -3.25088e-07 0)
(3 -4.55531e-07 0)
(3.02688 -0.0420984 0)
(1.73017 -0.820189 0)
(3 -3.95008e-07 0)
(3 -6.53861e-05 0)
(2.65509 -0.525781 0)
(1.61064 -0.885223 0)
(3 -3.27352e-07 0)
(3.011 -0.0322047 0)
(1.78166 -0.846728 0)
(1.53731 -0.898351 0)
(3 -1.6273e-06 0)
(2.54073 -0.549303 0)
(1.61617 -0.917605 0)
(1.54029 -0.895845 0)
(2.95955 -0.0988615 0)
(1.6882 -0.857874 0)
(1.5545 -0.928405 0)
(1.54878 -0.90509 0)
(2.10313 -0.737171 0)
(1.56206 -0.945894 0)
(1.59522 -0.941394 0)
(1.59695 -0.926364 0)
(1.5393 -0.994445 0)
(1.6124 -0.976852 0)
(1.65821 -0.96823 0)
(1.66132 -0.960085 0)
(1.59026 -1.02467 0)
(1.67185 -1.00675 0)
(1.71447 -0.971289 0)
(1.71208 -0.972792 0)
(1.56892 -1.1108 0)
(1.68597 -1.05914 0)
(1.71641 -1.01098 0)
(1.7314 -0.985386 0)
(1.71847 -1.00131 0)
(1.77807 -1.05773 0)
(1.75475 -1.03109 0)
(1.73096 -1.00932 0)
(2.76853 -0.439897 0)
(2.12986 -0.72444 0)
(2.20499 -0.639141 0)
(2.54428 -0.514054 0)
(2.10159 -0.722693 0)
(2.21519 -0.625735 0)
(2.3931 -0.580301 0)
(2.08924 -0.721724 0)
(2.23828 -0.598737 0)
(2.2217 -0.614249 0)
(2.08204 -0.722971 0)
(2.26325 -0.571669 0)
(2.13893 -0.644627 0)
(2.08456 -0.72344 0)
(2.29713 -0.536985 0)
(2.05315 -0.693794 0)
(2.08392 -0.707771 0)
(2.3328 -0.490805 0)
(1.99126 -0.735946 0)
(2.08792 -0.688433 0)
(2.35378 -0.43842 0)
(1.94653 -0.767298 0)
(2.10291 -0.656708 0)
(2.37609 -0.378946 0)
(1.90436 -0.786142 0)
(2.12266 -0.62905 0)
(2.41349 -0.30994 0)
(1.855 -0.807428 0)
(2.16531 -0.593141 0)
(2.44647 -0.252126 0)
(1.86244 -0.806849 0)
(2.23052 -0.560093 0)
(2.51864 -0.164954 0)
(1.88052 -0.78846 0)
(2.28155 -0.511031 0)
(2.54506 -0.112625 0)
(1.91157 -0.753258 0)
(2.32272 -0.470236 0)
(2.59513 -0.012093 0)
(1.96411 -0.724137 0)
(2.38403 -0.41243 0)
(2.62005 0.0424643 0)
(1.99755 -0.692202 0)
(2.45301 -0.329886 0)
(2.68252 0.171661 0)
(2.0851 -0.64573 0)
(2.50798 -0.270123 0)
(2.70245 0.217318 0)
(2.14608 -0.583331 0)
(2.61586 -0.0746521 0)
(2.72228 0.323955 0)
(2.22636 -0.473732 0)
(2.69594 -0.052282 0)
(2.71844 0.341606 0)
(2.31013 -0.268354 0)
(2.84185 0.216612 0)
(2.78164 0.354377 0)
(2.30366 -0.0898431 0)
(2.82253 0.234003 0)
(2.81766 0.349871 0)
(3 -3.3064e-09 0)
(3 -4.7796e-09 0)
(3 -3.82727e-08 0)
(3 -1.09212e-08 0)
(3 -1.80453e-08 0)
(3 -4.13574e-08 0)
(3 -2.23779e-08 0)
(3 -3.0293e-08 0)
(3 -2.33019e-07 0)
(3 -3.671e-08 0)
(3 -5.36074e-08 0)
(3 -8.56132e-07 0)
(3 -5.52437e-08 0)
(3 -9.06526e-08 0)
(3 -3.60002e-06 0)
(3 -7.9408e-08 0)
(3 -1.41306e-07 0)
(2.99999 -1.65148e-05 0)
(3 -1.0801e-07 0)
(3 -2.26708e-07 0)
(2.99997 -8.12618e-05 0)
(3 -1.33795e-07 0)
(3 -5.36416e-07 0)
(2.99985 -0.000351931 0)
(3 -1.75655e-07 0)
(3 -2.12962e-06 0)
(2.99929 -0.00162376 0)
(3 -2.24454e-07 0)
(3 -1.20345e-05 0)
(2.99724 -0.0065159 0)
(3 -2.79335e-07 0)
(2.99997 -7.25297e-05 0)
(2.99233 -0.0236109 0)
(3 -2.65753e-07 0)
(2.99981 -0.000413603 0)
(2.98872 -0.0778824 0)
(3 4.57596e-07 0)
(2.99905 -0.00227809 0)
(2.9733 -0.190166 0)
(3 5.1408e-06 0)
(2.99742 -0.011196 0)
(2.84727 -0.364362 0)
(3 1.79214e-05 0)
(3.00699 -0.0471888 0)
(2.65031 -0.525675 0)
(3.00008 4.92708e-05 0)
(3.02663 -0.133512 0)
(2.47389 -0.64462 0)
(3.00048 3.30988e-05 0)
(2.88658 -0.329596 0)
(2.36887 -0.690216 0)
(3.01627 -0.00132045 0)
(2.61511 -0.524042 0)
(2.31081 -0.693957 0)
(3.12567 -0.0136781 0)
(2.38997 -0.659757 0)
(2.29791 -0.671787 0)
(3.07489 -0.208828 0)
(2.23556 -0.721324 0)
(2.22498 -0.677305 0)
(3 -7.70406e-10 0)
(3 -7.99293e-10 0)
(3 -1.15055e-09 0)
(3 -1.21724e-09 0)
(3 -2.5581e-09 0)
(3 -2.69223e-09 0)
(3 -3.85429e-09 0)
(3 -4.07022e-09 0)
(3 -5.06293e-09 0)
(3 -5.40391e-09 0)
(3 -7.74454e-09 0)
(3 -8.10591e-09 0)
(3 -8.83829e-09 0)
(3 -9.6306e-09 0)
(3 -1.3514e-08 0)
(3 -1.4514e-08 0)
(3 -1.44185e-08 0)
(3 -1.61712e-08 0)
(3 -2.19283e-08 0)
(3 -2.47211e-08 0)
(3 -2.27794e-08 0)
(3 -2.64687e-08 0)
(3 -3.42345e-08 0)
(3 -4.02361e-08 0)
(3 -3.29406e-08 0)
(3 -3.75434e-08 0)
(3 -4.95416e-08 0)
(3 -5.83468e-08 0)
(3 -4.55626e-08 0)
(3 -5.63404e-08 0)
(3 -6.76884e-08 0)
(3 -8.62566e-08 0)
(3 -5.99357e-08 0)
(3 -6.93676e-08 0)
(3 -8.9427e-08 0)
(3 -1.07635e-07 0)
(3 -7.74472e-08 0)
(3 -9.44092e-08 0)
(3 -1.14902e-07 0)
(3 -1.45568e-07 0)
(3 -1.00862e-07 0)
(3 -1.14141e-07 0)
(3 -1.48174e-07 0)
(3 -1.74264e-07 0)
(3 -1.20288e-07 0)
(3 -1.47773e-07 0)
(3 -1.72084e-07 0)
(3 -2.48468e-07 0)
(3 -1.44709e-07 0)
(3 -1.81827e-07 0)
(3 -2.13771e-07 0)
(3 -3.13848e-07 0)
(3 -1.76481e-07 0)
(3 -2.14457e-07 0)
(3 -2.48136e-07 0)
(3 -3.48751e-07 0)
(3 -1.93425e-07 0)
(3 -2.3348e-07 0)
(3 -2.7662e-07 0)
(3 -3.94281e-07 0)
(3 -2.09875e-07 0)
(3 -2.45964e-07 0)
(3 -2.88056e-07 0)
(3 -4.08459e-07 0)
(3 -2.07996e-07 0)
(3 -2.87125e-07 0)
(3 -2.81224e-07 0)
(3 -4.37908e-07 0)
(3 -2.13536e-07 0)
(3 -2.8574e-07 0)
(3 -3.09282e-07 0)
(3 -4.30576e-07 0)
(3 -2.09765e-07 0)
(3 -3.29086e-07 0)
(3 -3.06991e-07 0)
(3 -5.22842e-07 0)
(3 -2.60342e-07 0)
(3 -3.31298e-07 0)
(3 -3.8816e-07 0)
(3 -5.19215e-07 0)
)
;

boundaryField
{
    inlet
    {
        type            fixedValue;
        value           nonuniform 0();
    }
    outlet
    {
        type            inletOutlet;
        inletValue      nonuniform 0();
        value           nonuniform 0();
    }
    triangle
    {
        type            slip;
    }
    top
    {
        type            symmetryPlane;
    }
    bottom
    {
        type            symmetryPlane;
    }
    defaultFaces
    {
        type            empty;
    }
    procBoundary2to1
    {
        type            processor;
        value           nonuniform List<vector> 
40
(
(3 -2.37875e-07 0)
(3 -2.47578e-07 0)
(3 -2.70296e-07 0)
(3 -2.84299e-07 0)
(3 -2.89021e-07 0)
(3 -2.88826e-07 0)
(3 -2.84889e-07 0)
(3 -2.81975e-07 0)
(3 -2.76829e-07 0)
(3 -3.12093e-07 0)
(3 -2.78747e-07 0)
(3 -2.41161e-07 0)
(3 -2.21847e-07 0)
(3 -2.55119e-07 0)
(3 -2.17715e-07 0)
(2.99998 -1.93498e-05 0)
(2.74746 -0.381132 0)
(1.89699 -0.973335 0)
(1.4583 -1.18026 0)
(1.66184 -0.931962 0)
(3 -5.5924e-10 0)
(3 -1.90563e-09 0)
(3 -3.82561e-09 0)
(3 -6.78197e-09 0)
(3 -1.12123e-08 0)
(3 -1.84255e-08 0)
(3 -2.57106e-08 0)
(3 -3.91369e-08 0)
(3 -4.74603e-08 0)
(3 -6.58742e-08 0)
(3 -7.91795e-08 0)
(3 -1.03593e-07 0)
(3 -1.22164e-07 0)
(3 -1.51331e-07 0)
(3 -1.64861e-07 0)
(3 -1.71055e-07 0)
(3 -2.03193e-07 0)
(3 -1.98322e-07 0)
(3 -2.16157e-07 0)
(3 -2.11478e-07 0)
)
;
    }
    procBoundary2to3
    {
        type            processor;
        value           nonuniform List<vector> 
47
(
(2.80699 0.312765 0)
(2.72427 0.276661 0)
(2.5089 0.261451 0)
(2.11901 0.200958 0)
(1.56274 0.154794 0)
(0.931454 0.096469 0)
(0.356084 0.0524273 0)
(2.36986 -0.470968 0)
(2.39772 -0.443415 0)
(2.42322 -0.414554 0)
(2.45119 -0.38426 0)
(2.48701 -0.339461 0)
(2.51376 -0.303724 0)
(2.5426 -0.250663 0)
(2.56249 -0.212518 0)
(2.60548 -0.138521 0)
(2.63352 -0.0997894 0)
(2.70467 -0.00917539 0)
(2.73094 0.0466396 0)
(2.7625 0.134759 0)
(2.77159 0.163293 0)
(2.80909 0.228791 0)
(2.81306 0.257488 0)
(2.82667 0.283133 0)
(2.8433 0.293241 0)
(2.8351 0.311071 0)
(2.83133 0.314056 0)
(3 -8.57424e-09 0)
(3 -1.36673e-06 0)
(3 -1.15451e-05 0)
(2.99997 -9.25129e-05 0)
(2.9998 -0.000588532 0)
(2.99895 -0.00288862 0)
(2.99623 -0.0115028 0)
(2.99198 -0.0422647 0)
(2.99465 -0.109161 0)
(2.94931 -0.232644 0)
(2.80192 -0.386952 0)
(2.65153 -0.514421 0)
(2.52731 -0.622963 0)
(2.45773 -0.664439 0)
(2.41348 -0.671627 0)
(2.40537 -0.656836 0)
(2.354 -0.662521 0)
(2.33409 -0.635081 0)
(2.34823 -0.560267 0)
(2.3389 -0.527926 0)
)
;
    }
    procBoundary2to6
    {
        type            processor;
        value           nonuniform List<vector> 5((0.355578 -0.0491329 0) (-0.1025 0.0865086 0) (0.0520787 0.0123998 0) (0.355578 -0.0491329 0) (0.419632 -0.0640665 0));
    }
    procBoundary2to7
    {
        type            processor;
        value           nonuniform List<vector> 7((-0.0556323 0.0130731 0) (-0.260885 0.00738773 0) (-0.317014 0.0048469 0) (-0.317014 0.0048469 0) (-0.183859 -0.00471114 0) (-0.107019 -0.00987498 0) (0.161857 -0.0155577 0));
    }
}


// ************************************************************************* //
