/*--------------------------------*- C++ -*----------------------------------*\
  =========                 |
  \\      /  F ield         | OpenFOAM: The Open Source CFD Toolbox
   \\    /   O peration     | Website:  https://openfoam.org
    \\  /    A nd           | Version:  8
     \\/     M anipulation  |
\*---------------------------------------------------------------------------*/
FoamFile
{
    version     2.0;
    format      ascii;
    class       volScalarField;
    location    "3.3";
    object      p;
}
// * * * * * * * * * * * * * * * * * * * * * * * * * * * * * * * * * * * * * //

dimensions      [1 -1 -2 0 0 0 0];

internalField   nonuniform List<scalar> 
2600
(
1.18623
1.16273
1.18587
1.13117
1.39514
1.91421
2.16941
2.19871
2.12144
1.96213
1.19599
1.15927
1.17844
1.15075
1.43559
1.95243
2.1869
2.22541
2.13472
1.97829
1.19676
1.14557
1.16302
1.18439
1.48118
1.97534
2.17211
2.23324
2.12404
1.99011
1.19509
1.13199
1.14985
1.21695
1.53023
1.9748
2.14847
2.21232
2.09928
1.96818
1.19087
1.12553
1.15032
1.23567
1.58603
1.96465
2.1876
2.24629
2.13034
1.96361
1.19653
1.12629
1.16906
1.27199
1.59881
1.98559
2.2151
2.25546
2.1489
1.98293
1.20696
1.12286
1.1643
1.31267
1.59806
1.96197
2.21408
2.24072
2.14762
1.97806
1.21348
1.11094
1.14013
1.30795
1.6164
1.94085
2.20211
2.2541
2.14037
1.98525
1.21061
1.09122
1.13491
1.29372
1.63182
1.93144
2.21191
2.231
2.1412
1.98456
1.20272
1.06805
1.13197
1.32158
1.67173
1.93748
2.16724
2.2249
2.13836
1.98273
1.18564
1.04896
1.09924
1.33749
1.72624
1.96654
2.17373
2.21612
2.17626
1.97862
1.17069
1.03369
1.0789
1.35504
1.72445
1.96198
2.16492
2.22677
2.1743
1.97596
1.16377
1.02249
1.0675
1.39362
1.76442
1.97207
2.16032
2.22057
2.17932
1.97898
1.15392
1.01495
1.04963
1.42026
1.77014
1.95369
2.13167
2.2046
2.16434
1.9887
1.15358
1.00906
1.03532
1.41124
1.79183
1.95397
2.13935
2.20876
2.16315
1.97636
1.14999
1.00082
1.03851
1.42887
1.79391
1.96404
2.12948
2.21756
2.17234
1.98664
1.14112
0.992898
1.03908
1.39065
1.79839
1.98608
2.10644
2.19367
2.1475
1.9616
1.13116
1.0007
1.03082
1.32826
1.75677
1.93666
2.11422
2.18932
2.13835
1.95128
1.12801
1.01748
1.02614
1.30354
1.73207
1.90455
2.14461
2.20704
2.1503
1.97477
1.12943
1.04162
1.03448
1.28786
1.69862
1.88869
2.1379
2.20736
2.15017
1.97387
1.34813
1.07345
1.04657
1.26015
1.6579
1.86441
2.12067
2.1969
2.14064
1.96345
1.60032
1.13352
1.06977
1.23477
1.61028
1.82631
2.09426
2.18156
2.12202
1.94813
1.84959
1.21571
1.09305
1.2168
1.55291
1.78613
2.07492
2.16906
2.11161
1.94419
2.04616
1.32867
1.12128
1.21533
1.48728
1.74687
2.06651
2.16463
2.10928
1.94671
2.21038
1.46048
1.16716
1.22486
1.41954
1.70306
2.05309
2.16335
2.11027
1.94666
2.34866
1.58244
1.24225
1.24866
1.36911
1.64608
2.02842
2.15397
2.10051
1.93844
2.46899
1.6983
1.32071
1.27685
1.34394
1.58634
1.99626
2.1388
2.08561
1.92732
2.57402
1.80884
1.38872
1.30419
1.34396
1.53192
1.95416
2.11726
2.07501
1.91952
2.66156
1.91994
1.47037
1.32187
1.33757
1.47825
1.89927
2.09647
2.07119
1.9156
2.73721
2.02102
1.56486
1.3418
1.33307
1.43073
1.8313
2.07594
2.06819
1.91189
2.80724
2.11274
1.65765
1.38717
1.33165
1.39166
1.75581
2.05148
2.06398
1.90459
2.87172
2.20145
1.73517
1.45468
1.33269
1.36493
1.67965
2.02137
2.05667
1.89398
2.92786
2.28493
1.81122
1.51617
1.34521
1.34947
1.60493
1.98472
2.04392
1.88481
2.9749
2.35816
1.88928
1.56919
1.37465
1.33879
1.5296
1.94172
2.03653
1.87673
3.01546
2.42283
1.96277
1.63214
1.40708
1.33364
1.45937
1.88807
2.0277
1.86997
3.05141
2.48317
2.0301
1.69906
1.44421
1.33808
1.40314
1.82271
2.01592
1.85825
3.08494
2.54038
2.09394
1.76075
1.49566
1.34385
1.36539
1.74865
1.99951
1.84633
3.11752
2.59544
2.15444
1.81676
1.54702
1.35856
1.34315
1.67104
1.97755
1.83464
3.14958
2.64734
2.21215
1.86932
1.59376
1.37895
1.33653
1.59635
1.9505
1.82422
3.18076
2.69637
2.2672
1.91971
1.63884
1.40162
1.33591
1.53029
1.91915
1.81352
5.73506
5.4454
5.23902
5.03798
4.85083
4.67661
4.49264
4.28985
3.98674
3.68542
5.3055
5.04013
4.91911
4.78254
4.65376
4.51243
4.34601
4.13805
3.8295
3.43113
5.14634
4.96604
4.87751
4.75843
4.64273
4.50818
4.34276
4.12978
3.82085
3.43209
4.96329
4.84438
4.78557
4.68101
4.57703
4.44377
4.281
4.06904
3.77112
3.38433
4.81327
4.7399
4.69317
4.59577
4.50254
4.37401
4.21845
4.01076
3.72635
3.34514
4.71399
4.64487
4.59659
4.51212
4.4312
4.30872
4.16185
3.95941
3.68999
3.32221
4.62088
4.56261
4.52201
4.44716
4.37071
4.25155
4.11293
3.91645
3.66234
3.31722
4.53319
4.48422
4.44843
4.38164
4.31074
4.19826
4.06935
3.88058
3.64246
3.32303
4.4566
4.41455
4.38274
4.32302
4.25698
4.15103
4.03098
3.85108
3.62865
3.33401
4.38985
4.35148
4.32165
4.26695
4.2051
4.10683
3.99589
3.82659
3.62006
3.34873
4.33257
4.29592
4.26685
4.21563
4.15707
4.06604
3.96333
3.80574
3.61518
3.36572
4.28385
4.24805
4.21905
4.16958
4.11292
4.02785
3.93206
3.78685
3.61163
3.38265
4.24241
4.20716
4.17839
4.13022
4.07483
3.99373
3.90274
3.76909
3.60805
3.39792
4.20701
4.17226
4.14413
4.09765
4.04382
3.96539
3.87773
3.75313
3.60425
3.41134
4.17698
4.14243
4.11487
4.07046
4.01875
3.94313
3.8586
3.74064
3.60135
3.42397
4.15192
4.11737
4.09007
4.04763
3.99827
3.92611
3.84469
3.73318
3.60133
3.43688
4.13108
4.09646
4.06918
4.02831
3.98094
3.91285
3.83455
3.72958
3.60496
3.45087
4.11411
4.07924
4.05206
4.01245
3.96694
3.90243
3.82703
3.72897
3.61107
3.4658
4.10016
4.06473
4.03782
3.99954
3.95541
3.89408
3.8224
3.73054
3.61882
3.48144
4.08878
4.05265
4.02601
3.98877
3.94599
3.88867
3.82008
3.73318
3.62728
3.49728
1.003
1.00944
1.01664
1.02481
1.03404
1.04456
1.05759
1.06806
2.47545
4.37361
1.003
1.00944
1.01664
1.02481
1.03405
1.04456
1.05758
1.06812
2.47204
4.36739
1.003
1.00944
1.01664
1.02481
1.03405
1.04455
1.05758
1.06817
2.456
4.36406
1.003
1.00944
1.01664
1.02481
1.03405
1.04455
1.05758
1.06823
2.43389
4.35551
1.003
1.00944
1.01664
1.02481
1.03405
1.04454
1.05758
1.06827
2.40794
4.34506
1.003
1.00944
1.01664
1.02481
1.03405
1.04453
1.05759
1.0682
2.37815
4.33004
1.003
1.00944
1.01664
1.02481
1.03406
1.04453
1.0576
1.0681
2.34654
4.31413
1.003
1.00944
1.01664
1.0248
1.03406
1.04452
1.05761
1.06802
2.31305
4.29423
1.003
1.00944
1.01664
1.0248
1.03406
1.04451
1.05763
1.06797
2.27835
4.27206
1.003
1.00944
1.01664
1.0248
1.03406
1.0445
1.05765
1.06794
2.24245
4.24697
1.003
1.00944
1.01664
1.0248
1.03407
1.0445
1.05766
1.06793
2.20552
4.22011
1.003
1.00944
1.01665
1.0248
1.03407
1.04449
1.05768
1.06793
2.16759
4.19228
1.003
1.00944
1.01665
1.0248
1.03407
1.04449
1.05769
1.06794
2.12898
4.1642
1.003
1.00943
1.01665
1.02479
1.03407
1.04448
1.05769
1.06794
2.08971
4.13644
1.003
1.00943
1.01665
1.02479
1.03408
1.04448
1.0577
1.06795
2.04915
4.10994
1.003
1.00943
1.01665
1.02479
1.03408
1.04447
1.05771
1.06796
2.00744
4.08515
1.003
1.00943
1.01665
1.02479
1.03408
1.04447
1.05771
1.06796
1.96494
4.06183
1.003
1.00943
1.01665
1.02479
1.03408
1.04447
1.05771
1.06797
1.92188
4.03993
1.003
1.00943
1.01665
1.02479
1.03408
1.04447
1.05772
1.06797
1.87864
4.01901
1.003
1.00943
1.01665
1.02479
1.03408
1.04446
1.05772
1.06797
1.83565
3.99887
1.003
1.00943
1.01665
1.02479
1.03408
1.04446
1.05772
1.06797
1.83591
3.99874
1.003
1.00943
1.01665
1.02479
1.03408
1.04447
1.05772
1.06797
1.87894
4.01881
1.003
1.00943
1.01665
1.02479
1.03408
1.04447
1.05771
1.06797
1.92223
4.03965
1.003
1.00943
1.01665
1.02479
1.03408
1.04447
1.05771
1.06796
1.96532
4.06146
1.003
1.00943
1.01665
1.02479
1.03408
1.04447
1.05771
1.06796
2.00786
4.08471
1.003
1.00943
1.01665
1.02479
1.03408
1.04448
1.0577
1.06795
2.0496
4.10942
1.003
1.00943
1.01665
1.02479
1.03407
1.04448
1.05769
1.06794
2.09019
4.13585
1.003
1.00944
1.01665
1.0248
1.03407
1.04449
1.05769
1.06794
2.12945
4.16358
1.003
1.00944
1.01665
1.0248
1.03407
1.04449
1.05768
1.06793
2.16801
4.19166
1.003
1.00944
1.01664
1.0248
1.03407
1.0445
1.05766
1.06793
2.2059
4.21951
1.003
1.00944
1.01664
1.0248
1.03406
1.0445
1.05765
1.06794
2.24278
4.24641
1.003
1.00944
1.01664
1.0248
1.03406
1.04451
1.05763
1.06797
2.27863
4.27156
1.003
1.00944
1.01664
1.0248
1.03406
1.04452
1.05761
1.06802
2.31329
4.2938
1.003
1.00944
1.01664
1.02481
1.03406
1.04453
1.0576
1.0681
2.34674
4.31377
1.003
1.00944
1.01664
1.02481
1.03405
1.04453
1.05759
1.0682
2.37833
4.32975
1.003
1.00944
1.01664
1.02481
1.03405
1.04454
1.05758
1.06827
2.40809
4.34484
1.003
1.00944
1.01664
1.02481
1.03405
1.04455
1.05758
1.06823
2.43401
4.35535
1.003
1.00944
1.01664
1.02481
1.03405
1.04455
1.05758
1.06817
2.45609
4.36392
1.003
1.00944
1.01664
1.02481
1.03405
1.04456
1.05758
1.06812
2.4721
4.36733
1.003
1.00944
1.01664
1.02481
1.03404
1.04456
1.05759
1.0681
2.47547
4.37356
4.08809
4.05142
4.02453
3.98708
3.94418
3.88689
3.81835
3.73159
3.62609
3.49701
4.09934
4.06344
4.03624
3.99778
3.95357
3.89235
3.82078
3.72911
3.61794
3.48168
4.11314
4.07789
4.05043
4.01067
3.96511
3.90073
3.82551
3.72774
3.61058
3.46662
4.12998
4.09504
4.06754
4.02654
3.97913
3.91118
3.83313
3.72858
3.6049
3.45233
4.15068
4.1159
4.08845
4.04594
3.99655
3.92456
3.84348
3.73245
3.6018
3.43896
4.17564
4.14091
4.11328
4.06885
4.01717
3.94177
3.85764
3.74031
3.60241
3.42667
4.20557
4.17071
4.14257
4.09615
4.04242
3.96429
3.87708
3.75324
3.60585
3.41463
4.24092
4.20563
4.17688
4.12883
4.07363
3.99288
3.90244
3.76954
3.61012
3.40183
4.28238
4.24659
4.21764
4.16832
4.11188
4.02722
3.93203
3.78769
3.61426
3.3874
4.33114
4.29455
4.26556
4.2145
4.15615
4.06556
3.96353
3.80703
3.61845
3.37151
4.38851
4.35023
4.32048
4.26592
4.20427
4.10647
3.9963
3.82827
3.62417
3.35577
4.45537
4.41339
4.38165
4.32206
4.25621
4.15078
4.03162
3.8532
3.63362
3.34213
4.53208
4.48313
4.4474
4.38073
4.31005
4.19813
4.07023
3.88318
3.64819
3.33176
4.61985
4.56158
4.52103
4.4463
4.37009
4.25151
4.114
3.91939
3.66851
3.32619
4.71305
4.64392
4.59568
4.51135
4.43065
4.30875
4.16301
3.96253
3.69634
3.33046
4.81245
4.73901
4.69228
4.59501
4.502
4.37403
4.21958
4.01381
3.73274
3.35292
4.96249
4.84355
4.78473
4.68029
4.57651
4.44376
4.28193
4.07187
3.7769
3.3926
5.14564
4.9653
4.87677
4.75775
4.64224
4.50814
4.34349
4.13216
3.82572
3.4406
5.30491
5.03945
4.91836
4.78181
4.65315
4.51224
4.34652
4.14013
3.83414
3.43974
5.73447
5.44479
5.23832
5.03734
4.85018
4.67633
4.49279
4.29142
3.99022
3.69407
3.18432
2.70628
2.27752
1.91622
1.61591
1.39489
1.34782
1.59675
1.93976
1.82374
3.15395
2.65797
2.22263
1.86277
1.5695
1.37516
1.35617
1.6683
1.96404
1.83473
3.12276
2.6069
2.16519
1.81001
1.52047
1.35706
1.37287
1.739
1.98401
1.84437
3.09102
2.55286
2.10591
1.7558
1.46784
1.34699
1.39885
1.80593
1.99953
1.85543
3.05828
2.4963
2.04534
1.69434
1.42137
1.34031
1.43465
1.86578
2.0111
1.86728
3.02299
2.43788
1.97934
1.6308
1.38544
1.33236
1.4798
1.9195
2.01916
1.87795
2.9833
2.37399
1.90775
1.57267
1.34694
1.324
1.53622
1.96856
2.02429
1.88011
2.9373
2.3015
1.83541
1.5186
1.30462
1.31927
1.60446
2.01158
2.02812
1.88529
2.88287
2.21941
1.76413
1.45532
1.2721
1.318
1.6803
2.04548
2.03258
1.8932
2.81952
2.12999
1.6897
1.38189
1.25453
1.33661
1.75618
2.07143
2.0402
1.90256
2.75054
2.0345
1.60256
1.31995
1.24791
1.36828
1.82474
2.0926
2.0508
1.91204
2.67442
1.93124
1.51243
1.28588
1.24171
1.41163
1.88293
2.11037
2.05964
1.91751
2.58774
1.81382
1.44526
1.26537
1.23411
1.4627
1.93363
2.12314
2.06625
1.91613
2.48535
1.69658
1.40021
1.2362
1.23627
1.51842
1.97812
2.13306
2.07393
1.91994
2.36783
1.57894
1.3482
1.20246
1.23851
1.57965
2.01916
2.14332
2.08698
1.92812
2.23615
1.45445
1.30361
1.18588
1.2433
1.64755
2.05457
2.15723
2.10246
1.94137
2.07776
1.33144
1.27499
1.17183
1.25276
1.71649
2.08614
2.17638
2.11351
1.95021
1.88949
1.24601
1.24715
1.15661
1.27058
1.77569
2.10411
2.18279
2.11274
1.94544
1.65123
1.19948
1.22307
1.14029
1.30476
1.82435
2.11198
2.18296
2.10681
1.9388
1.40487
1.16836
1.20076
1.12992
1.35119
1.86742
2.14015
2.18393
2.10805
1.94429
3.74034
3.47423
3.18849
2.87946
2.55111
2.21477
1.89336
1.61145
1.29272
0.998321
3.73566
3.47068
3.1832
2.87432
2.54606
2.21022
1.88958
1.60601
1.28901
1.00156
3.72898
3.46478
3.17652
2.86652
2.53764
2.20228
1.88276
1.59655
1.28279
1.00709
3.71965
3.45765
3.16655
2.85515
2.52552
2.19088
1.87292
1.58286
1.27538
1.01573
3.70802
3.44867
3.15409
2.83991
2.50917
2.17578
1.85988
1.56483
1.26696
1.02801
3.69335
3.43717
3.13818
2.82058
2.48887
2.15735
1.84383
1.54283
1.25913
1.04448
3.67795
3.42183
3.11859
2.79701
2.4643
2.13525
1.82406
1.51697
1.25295
1.06612
3.66217
3.40161
3.09429
2.76878
2.43539
2.10938
1.80036
1.48751
1.24773
1.09556
3.64349
3.37706
3.06617
2.73607
2.40199
2.07926
1.77179
1.4558
1.2413
1.13603
3.62303
3.34901
3.0328
2.69829
2.36362
2.04476
1.73784
1.42195
1.23118
1.19218
3.5998
3.31771
2.99526
2.65563
2.3206
2.00509
1.69813
1.38868
1.22201
1.25923
3.57416
3.28276
2.95248
2.60735
2.27227
1.96101
1.65227
1.35774
1.22058
1.33237
3.54549
3.244
2.9046
2.55442
2.21933
1.91072
1.60202
1.33558
1.22898
1.41434
3.51282
3.19937
2.85106
2.49488
2.16137
1.85557
1.54706
1.32091
1.25888
1.49652
3.47571
3.14804
2.78982
2.43023
2.09781
1.79354
1.49446
1.30934
1.31677
1.57755
3.43422
3.08858
2.72075
2.35755
2.02913
1.72489
1.4452
1.30504
1.40731
1.64938
3.38924
3.02143
2.64273
2.27762
1.9535
1.65141
1.40846
1.30841
1.5254
1.70425
3.34091
2.9471
2.55602
2.19085
1.87145
1.57338
1.37821
1.33763
1.65663
1.74448
3.2881
2.86574
2.46173
2.09655
1.78295
1.49945
1.35662
1.39939
1.77956
1.77627
3.22989
2.77646
2.3585
1.99625
1.68788
1.43274
1.34851
1.49702
1.8825
1.80417
3.22751
2.76784
2.3478
1.99536
1.70537
1.44547
1.3407
1.44731
1.85428
1.7957
3.28712
2.85916
2.45157
2.09284
1.79299
1.51264
1.35155
1.37087
1.74771
1.76863
3.34098
2.94269
2.54849
2.18639
1.87586
1.58478
1.37736
1.32022
1.62418
1.73499
3.39016
3.01908
2.63771
2.27365
1.95466
1.6575
1.40873
1.30269
1.49926
1.69268
3.43578
3.08781
2.71765
2.35441
2.0283
1.72762
1.44602
1.3029
1.39287
1.63714
3.47768
3.14841
2.78877
2.42792
2.09648
1.79358
1.49476
1.31199
1.31359
1.56835
3.51496
3.20071
2.85108
2.49429
2.16047
1.85457
1.54666
1.32332
1.26167
1.49258
3.5476
3.24596
2.90608
2.55494
2.21914
1.91004
1.60011
1.33686
1.23338
1.41594
3.57604
3.28508
2.9547
2.60913
2.27331
1.9605
1.64991
1.35782
1.2232
1.33762
3.60132
3.32012
2.99787
2.65816
2.32238
2.00531
1.69561
1.38624
1.22286
1.26605
3.62419
3.35125
3.03559
2.7011
2.36592
2.04554
1.73554
1.41892
1.23021
1.20015
3.64421
3.37892
3.06865
2.73891
2.40458
2.08052
1.77046
1.4529
1.24
1.14224
3.66243
3.40294
3.09639
2.77136
2.43786
2.11101
1.80002
1.48541
1.24656
1.09904
3.67785
3.42264
3.12009
2.79912
2.4666
2.13714
1.82457
1.51614
1.25197
1.06786
3.69296
3.4374
3.13904
2.82209
2.49073
2.15915
1.84492
1.54298
1.25836
1.04505
3.70739
3.4484
3.1543
2.84072
2.51051
2.17742
1.86122
1.56566
1.2669
1.02819
3.71892
3.45693
3.16618
2.85529
2.52628
2.19211
1.8742
1.5841
1.27597
1.01582
3.7282
3.46367
3.17562
2.86609
2.53787
2.20316
1.88393
1.59789
1.28409
1.00731
3.73484
3.46939
3.18199
2.87352
2.5459
2.21073
1.89053
1.60737
1.29071
1.00198
3.73944
3.47285
3.1871
2.87842
2.55067
2.21502
1.89416
1.61281
1.2947
0.998881
4.0791
4.04137
4.01547
3.97901
3.93763
3.88413
3.81945
3.73868
3.64029
3.52132
4.07239
4.03245
4.0077
3.97189
3.93157
3.8815
3.82148
3.74803
3.65906
3.55408
4.06927
4.0287
4.00366
3.96841
3.92925
3.88193
3.82614
3.75923
3.67897
3.58486
4.0684
4.02724
4.00238
3.96838
3.93112
3.88653
3.83466
3.77342
3.70058
3.61488
4.0701
4.02823
4.00475
3.97271
3.93788
3.89665
3.84842
3.79185
3.72469
3.64502
4.07604
4.03402
4.01238
3.983
3.95064
3.91264
3.86756
3.81411
3.75058
3.67512
4.0883
4.04694
4.02748
4.00051
3.97046
3.93397
3.89022
3.83854
3.777
3.70405
4.10727
4.06742
4.0501
4.02445
3.99503
3.95841
3.91445
3.86231
3.80115
3.73013
4.1328
4.09591
4.08048
4.05355
4.0231
3.98371
3.93767
3.88512
3.8244
3.75428
4.16902
4.13381
4.11716
4.08544
4.05003
4.00762
3.95837
3.90266
3.84129
3.77365
4.21957
4.17429
4.14725
4.10687
4.0671
4.02439
3.97607
3.92111
3.86087
3.79352
4.27418
4.21706
4.17669
4.12908
4.08323
4.03733
3.98816
3.93417
3.87533
3.8094
4.26979
4.21397
4.17622
4.13279
4.08999
4.04567
3.99721
3.94396
3.88566
3.82241
4.25717
4.20696
4.17343
4.13427
4.09394
4.05197
4.00528
3.95533
3.89783
3.83591
4.24584
4.20057
4.17123
4.13577
4.09846
4.05767
4.012
3.96371
3.90812
3.84892
4.23586
4.19571
4.16992
4.13715
4.10245
4.06316
4.01948
3.97229
3.91764
3.8576
4.22524
4.18983
4.16728
4.1371
4.10499
4.0677
4.02589
3.9791
3.92491
3.86364
4.21571
4.18391
4.16395
4.13582
4.10563
4.07021
4.02992
3.98341
3.92959
3.86718
4.20972
4.18007
4.16158
4.13459
4.10548
4.07077
4.03153
3.98547
3.9314
3.86916
4.20413
4.17596
4.15899
4.13317
4.10489
4.07078
4.03279
3.98785
3.9334
3.87216
1.003
1.00943
1.01665
1.02479
1.03408
1.04446
1.05772
1.06798
1.78249
3.97529
1.003
1.00943
1.01665
1.02479
1.03409
1.04446
1.05772
1.06798
1.71914
3.94841
1.003
1.00943
1.01665
1.02479
1.03409
1.04446
1.05773
1.06798
1.65582
3.92143
1.003
1.00943
1.01665
1.02479
1.03409
1.04446
1.05773
1.06799
1.59238
3.89328
1.003
1.00943
1.01665
1.02479
1.03409
1.04446
1.05773
1.06801
1.5286
3.86438
1.003
1.00943
1.01665
1.02479
1.03409
1.04446
1.05773
1.06803
1.46389
3.83617
1.003
1.00943
1.01665
1.02478
1.03409
1.04446
1.05773
1.06806
1.39729
3.81039
1.003
1.00943
1.01665
1.02478
1.03409
1.04445
1.05772
1.0681
1.32991
3.78687
1.003
1.00943
1.01665
1.02478
1.03409
1.04445
1.05773
1.06814
1.2688
3.76389
1.003
1.00943
1.01665
1.02478
1.0341
1.04445
1.05773
1.06817
1.22316
3.73771
1.003
1.00943
1.01665
1.02478
1.0341
1.04444
1.05774
1.06821
1.19067
3.70789
1.00301
1.00943
1.01665
1.02478
1.0341
1.04443
1.05776
1.06825
1.16592
3.68026
1.00301
1.00943
1.01666
1.02478
1.03411
1.04443
1.05778
1.06831
1.14678
3.66378
1.00301
1.00943
1.01666
1.02477
1.03411
1.04442
1.05781
1.06838
1.1336
3.64906
1.00301
1.00943
1.01666
1.02477
1.03411
1.04442
1.05782
1.06845
1.12508
3.63478
1.00301
1.00943
1.01666
1.02477
1.03412
1.04442
1.05781
1.06852
1.11946
3.62128
1.00301
1.00943
1.01666
1.02477
1.03412
1.04442
1.05779
1.0686
1.11641
3.60929
1.00301
1.00943
1.01666
1.02477
1.03412
1.04443
1.05774
1.06872
1.1153
3.60019
1.00301
1.00943
1.01666
1.02477
1.03412
1.04443
1.0577
1.06881
1.11565
3.59424
1.00301
1.00943
1.01666
1.02477
1.03413
1.04444
1.05764
1.06893
1.11644
3.58942
1.00301
1.00943
1.01666
1.02477
1.03413
1.04444
1.05764
1.06893
1.11646
3.58924
1.00301
1.00943
1.01666
1.02477
1.03412
1.04443
1.0577
1.06881
1.11567
3.59407
1.00301
1.00943
1.01666
1.02477
1.03412
1.04443
1.05774
1.06871
1.11531
3.60004
1.00301
1.00943
1.01666
1.02477
1.03412
1.04442
1.05779
1.0686
1.11643
3.6092
1.00301
1.00943
1.01666
1.02477
1.03412
1.04442
1.05781
1.06852
1.11947
3.62124
1.00301
1.00943
1.01666
1.02477
1.03411
1.04442
1.05782
1.06845
1.12509
3.63481
1.00301
1.00943
1.01666
1.02477
1.03411
1.04442
1.05781
1.06838
1.1336
3.64914
1.00301
1.00943
1.01666
1.02478
1.03411
1.04443
1.05778
1.06831
1.14677
3.66393
1.00301
1.00943
1.01665
1.02478
1.0341
1.04443
1.05776
1.06825
1.1659
3.68045
1.003
1.00943
1.01665
1.02478
1.0341
1.04444
1.05774
1.06821
1.19064
3.70811
1.003
1.00943
1.01665
1.02478
1.0341
1.04445
1.05773
1.06817
1.22312
3.73796
1.003
1.00943
1.01665
1.02478
1.03409
1.04445
1.05773
1.06814
1.26877
3.76414
1.003
1.00943
1.01665
1.02478
1.03409
1.04445
1.05772
1.0681
1.32989
3.78713
1.003
1.00943
1.01665
1.02478
1.03409
1.04446
1.05773
1.06806
1.39728
3.81066
1.003
1.00943
1.01665
1.02479
1.03409
1.04446
1.05773
1.06803
1.4639
3.83645
1.003
1.00943
1.01665
1.02479
1.03409
1.04446
1.05773
1.06801
1.52864
3.86465
1.003
1.00943
1.01665
1.02479
1.03409
1.04446
1.05773
1.06799
1.59245
3.89352
1.003
1.00943
1.01665
1.02479
1.03409
1.04446
1.05773
1.06798
1.65593
3.9216
1.003
1.00943
1.01665
1.02479
1.03409
1.04446
1.05772
1.06798
1.7193
3.94848
1.003
1.00943
1.01665
1.02479
1.03408
1.04446
1.05772
1.06798
1.78271
3.97525
4.2038
4.17555
4.15856
4.13272
4.10443
4.07035
4.03244
3.98762
3.93335
3.87237
4.20941
4.17971
4.1612
4.1342
4.10509
4.07042
4.03125
3.98531
3.93143
3.86944
4.21546
4.18362
4.16366
4.13553
4.10536
4.06997
4.02977
3.98337
3.92974
3.86754
4.22506
4.18964
4.16709
4.13693
4.10486
4.06764
4.02591
3.97921
3.9252
3.8641
4.23576
4.19563
4.16987
4.13713
4.10249
4.0633
4.01971
3.97262
3.91805
3.85814
4.24587
4.20066
4.17136
4.13597
4.09872
4.05802
4.01245
3.96424
3.90869
3.84952
4.25735
4.20725
4.17379
4.13471
4.09444
4.05252
4.00594
3.95603
3.89857
3.8365
4.2701
4.21442
4.17677
4.13343
4.09069
4.04641
3.99804
3.94478
3.88641
3.82291
4.27454
4.21758
4.17733
4.12987
4.08407
4.03818
3.98906
3.93501
3.87599
3.80968
4.22002
4.17488
4.14798
4.10772
4.06794
4.02523
3.97691
3.92182
3.86127
3.79347
4.16955
4.1345
4.11794
4.08628
4.05084
4.00841
3.95908
3.90311
3.84134
3.77316
4.13333
4.09657
4.08119
4.05428
4.02377
3.98429
3.93805
3.88517
3.82395
3.75325
4.10781
4.06802
4.05069
4.025
3.9955
3.95869
3.91443
3.86185
3.80015
3.72859
4.08883
4.04744
4.02791
4.00082
3.97061
3.93384
3.88972
3.83755
3.77547
3.70207
4.07653
4.0344
4.01263
3.98306
3.95044
3.91207
3.86654
3.8126
3.74861
3.67289
4.07051
4.02845
4.00479
3.97248
3.93729
3.89563
3.84692
3.78994
3.72246
3.64274
4.06867
4.02725
4.00214
3.96779
3.93013
3.88509
3.83282
3.77129
3.69832
3.61276
4.06933
4.02845
4.00307
3.96744
3.92788
3.88019
3.82413
3.75707
3.67683
3.58302
4.07219
4.03183
4.00678
3.97059
3.92994
3.87962
3.81946
3.74601
3.65717
3.55264
4.07863
4.04038
4.01429
3.97755
3.93595
3.88231
3.81757
3.73689
3.63874
3.5205
)
;

boundaryField
{
    inlet
    {
        type            fixedValue;
        value           uniform 1;
    }
    outlet
    {
        type            zeroGradient;
    }
    triangle
    {
        type            zeroGradient;
    }
    top
    {
        type            symmetryPlane;
    }
    bottom
    {
        type            symmetryPlane;
    }
    defaultFaces
    {
        type            empty;
    }
}


// ************************************************************************* //
