/*--------------------------------*- C++ -*----------------------------------*\
  =========                 |
  \\      /  F ield         | OpenFOAM: The Open Source CFD Toolbox
   \\    /   O peration     | Website:  https://openfoam.org
    \\  /    A nd           | Version:  8
     \\/     M anipulation  |
\*---------------------------------------------------------------------------*/
FoamFile
{
    version     2.0;
    format      ascii;
    class       volScalarField;
    location    "3.3";
    object      T;
}
// * * * * * * * * * * * * * * * * * * * * * * * * * * * * * * * * * * * * * //

dimensions      [0 0 0 1 0 0 0];

internalField   nonuniform List<scalar> 
2600
(
1.43064
1.36023
1.2839
1.16031
1.19642
1.288
1.33827
1.33428
1.31548
1.27744
1.47617
1.42648
1.34985
1.19814
1.22046
1.30043
1.34928
1.34789
1.32415
1.28346
1.48876
1.45411
1.39877
1.24909
1.25411
1.3148
1.36379
1.36954
1.33646
1.29193
1.48938
1.45616
1.42206
1.30258
1.29578
1.33035
1.38968
1.40417
1.35847
1.2996
1.48765
1.45643
1.44034
1.35433
1.34595
1.35606
1.44404
1.47022
1.40744
1.32039
1.48926
1.46193
1.46803
1.4224
1.39863
1.40626
1.51262
1.54051
1.46671
1.35816
1.4942
1.46763
1.48872
1.50046
1.46806
1.46984
1.5775
1.59185
1.51852
1.40078
1.49884
1.46853
1.4951
1.54584
1.54922
1.54336
1.62343
1.62103
1.55065
1.4449
1.49968
1.4648
1.49752
1.55827
1.6074
1.60238
1.64828
1.62315
1.5644
1.47553
1.49827
1.45825
1.49721
1.56693
1.6368
1.63395
1.64412
1.62035
1.56684
1.49019
1.49287
1.45156
1.48479
1.56721
1.65174
1.64947
1.64444
1.60501
1.56953
1.49302
1.48697
1.44418
1.47393
1.57009
1.64921
1.65054
1.6345
1.57045
1.54766
1.48975
1.4828
1.43586
1.46231
1.57541
1.65736
1.65329
1.60682
1.51108
1.50709
1.47724
1.47677
1.42728
1.44075
1.5573
1.64615
1.63767
1.54984
1.44606
1.45093
1.44817
1.47464
1.41855
1.40786
1.49511
1.60661
1.59373
1.4863
1.39754
1.40007
1.40007
1.47243
1.40709
1.36938
1.42581
1.52565
1.51521
1.4237
1.3676
1.36427
1.35613
1.46885
1.39446
1.32219
1.34862
1.43813
1.43402
1.37458
1.34621
1.33734
1.31667
1.46212
1.38129
1.26881
1.28085
1.36089
1.36175
1.34819
1.33609
1.32425
1.2942
1.44655
1.35126
1.21924
1.23631
1.31299
1.31969
1.33958
1.33394
1.32124
1.28865
1.40556
1.30161
1.18025
1.20491
1.27973
1.29791
1.33192
1.33115
1.31904
1.28358
1.36985
1.24646
1.14796
1.17741
1.25444
1.28136
1.32622
1.32883
1.31693
1.27942
1.34522
1.21406
1.12795
1.15687
1.2351
1.26784
1.32212
1.3271
1.31433
1.27609
1.34543
1.19917
1.11959
1.14426
1.21882
1.25925
1.32071
1.32591
1.3131
1.27528
1.34975
1.19738
1.11828
1.13952
1.20271
1.25251
1.3212
1.32582
1.31302
1.27578
1.3615
1.20881
1.12592
1.13949
1.18688
1.24501
1.31979
1.32567
1.31325
1.27581
1.37839
1.22843
1.14559
1.14624
1.17527
1.23378
1.31426
1.32312
1.3108
1.27401
1.39727
1.25245
1.16747
1.15541
1.16923
1.22043
1.30553
1.31883
1.30678
1.27128
1.41513
1.27735
1.1863
1.16406
1.16879
1.20737
1.29417
1.31343
1.30362
1.26904
1.42949
1.30167
1.2073
1.16929
1.16535
1.19426
1.28007
1.30894
1.30215
1.26758
1.4401
1.32193
1.22963
1.1738
1.16241
1.18221
1.2633
1.30602
1.30138
1.26631
1.44791
1.33788
1.24924
1.183
1.16145
1.17137
1.24536
1.30415
1.30047
1.2646
1.45376
1.3511
1.26354
1.19689
1.16142
1.16302
1.22833
1.30219
1.29888
1.26228
1.45828
1.36198
1.27613
1.20902
1.16352
1.1574
1.21281
1.29835
1.29562
1.2602
1.46198
1.37051
1.28827
1.21892
1.16867
1.15446
1.19694
1.29039
1.29284
1.25835
1.46543
1.3777
1.29912
1.23068
1.17469
1.15356
1.18079
1.27655
1.29025
1.25659
1.46889
1.38463
1.30881
1.24299
1.18233
1.15553
1.16656
1.25889
1.28744
1.25393
1.47253
1.39165
1.31807
1.25406
1.19344
1.15783
1.15562
1.24062
1.28415
1.25155
1.47632
1.39886
1.32703
1.26394
1.20442
1.16135
1.14847
1.2233
1.28035
1.24964
1.48009
1.40594
1.33576
1.2731
1.21415
1.16479
1.1467
1.20647
1.27599
1.24829
1.4836
1.41271
1.34414
1.28175
1.2232
1.1688
1.14656
1.1913
1.27102
1.2469
1.88148
1.85403
1.83027
1.80435
1.77823
1.75278
1.72615
1.69688
1.65478
1.62874
1.83021
1.80037
1.78252
1.76276
1.74374
1.7231
1.69949
1.67046
1.62831
1.57869
1.79141
1.76645
1.74986
1.73204
1.71637
1.69927
1.67866
1.65175
1.6119
1.55821
1.74066
1.72423
1.7135
1.69905
1.68613
1.67077
1.6523
1.62757
1.59111
1.53885
1.69626
1.69013
1.68543
1.67472
1.66421
1.64989
1.63256
1.60889
1.57522
1.527
1.68597
1.67753
1.67188
1.66248
1.6532
1.6392
1.62241
1.5991
1.56743
1.5229
1.68142
1.67367
1.66809
1.65877
1.64913
1.63467
1.6181
1.5949
1.56473
1.52286
1.67543
1.66874
1.6636
1.65484
1.64543
1.63123
1.61522
1.59231
1.56349
1.52379
1.66771
1.66185
1.6573
1.64943
1.64063
1.62708
1.61184
1.5895
1.56191
1.52427
1.65902
1.65358
1.64931
1.64214
1.63399
1.62146
1.60726
1.5859
1.55961
1.52383
1.65017
1.64495
1.64081
1.63411
1.62649
1.61496
1.60183
1.58177
1.557
1.52303
1.64152
1.63649
1.63246
1.62609
1.61885
1.60821
1.59606
1.57753
1.55443
1.52254
1.63324
1.62841
1.62458
1.61855
1.61167
1.60174
1.59039
1.57342
1.55203
1.52252
1.62549
1.62085
1.61729
1.61168
1.60523
1.59587
1.58518
1.56954
1.54982
1.52274
1.6184
1.61393
1.61063
1.60547
1.5995
1.59071
1.58062
1.566
1.54783
1.52317
1.61208
1.60772
1.60463
1.5999
1.59439
1.58618
1.57664
1.56303
1.54619
1.52377
1.60644
1.60216
1.59924
1.59486
1.58972
1.58211
1.57305
1.56051
1.54493
1.52448
1.60138
1.59715
1.59437
1.59027
1.58546
1.57834
1.56976
1.55825
1.54385
1.52516
1.59675
1.5925
1.58986
1.586
1.58143
1.5748
1.56684
1.55625
1.54291
1.52579
1.59252
1.58819
1.58566
1.582
1.57768
1.57165
1.56418
1.55437
1.54199
1.52627
1.00086
1.00269
1.00472
1.00703
1.00961
1.01253
1.01613
1.01897
1.40602
1.70584
1.00086
1.00269
1.00472
1.00702
1.00961
1.01253
1.01613
1.01899
1.40605
1.70276
1.00086
1.00269
1.00472
1.00702
1.00961
1.01253
1.01613
1.019
1.40352
1.69949
1.00086
1.00269
1.00472
1.00702
1.00961
1.01252
1.01613
1.01902
1.39985
1.69854
1.00086
1.00269
1.00472
1.00702
1.00961
1.01252
1.01613
1.01903
1.3947
1.69973
1.00086
1.00269
1.00472
1.00702
1.00961
1.01252
1.01613
1.01901
1.38539
1.69918
1.00086
1.00269
1.00473
1.00702
1.00961
1.01252
1.01613
1.01898
1.37385
1.69654
1.00086
1.00269
1.00473
1.00702
1.00961
1.01252
1.01614
1.01896
1.36208
1.69079
1.00086
1.00269
1.00473
1.00702
1.00961
1.01251
1.01614
1.01895
1.35113
1.68259
1.00086
1.00269
1.00473
1.00702
1.00961
1.01251
1.01615
1.01894
1.34101
1.67297
1.00086
1.00269
1.00473
1.00702
1.00961
1.01251
1.01615
1.01894
1.33139
1.66291
1.00086
1.00269
1.00473
1.00702
1.00962
1.01251
1.01615
1.01894
1.32189
1.653
1.00086
1.00269
1.00473
1.00702
1.00962
1.01251
1.01616
1.01894
1.31229
1.64364
1.00086
1.00269
1.00473
1.00702
1.00962
1.01251
1.01616
1.01894
1.30247
1.63506
1.00086
1.00269
1.00473
1.00702
1.00962
1.0125
1.01616
1.01894
1.2923
1.62746
1.00086
1.00269
1.00473
1.00702
1.00962
1.0125
1.01616
1.01894
1.28181
1.62091
1.00086
1.00269
1.00473
1.00702
1.00962
1.0125
1.01616
1.01895
1.27107
1.6153
1.00086
1.00269
1.00473
1.00702
1.00962
1.0125
1.01616
1.01895
1.26013
1.61053
1.00086
1.00269
1.00473
1.00702
1.00962
1.0125
1.01617
1.01895
1.24907
1.60642
1.00086
1.00269
1.00473
1.00702
1.00962
1.0125
1.01617
1.01895
1.23793
1.60282
1.00086
1.00269
1.00473
1.00702
1.00962
1.0125
1.01617
1.01895
1.23801
1.60281
1.00086
1.00269
1.00473
1.00702
1.00962
1.0125
1.01617
1.01895
1.24916
1.60639
1.00086
1.00269
1.00473
1.00702
1.00962
1.0125
1.01616
1.01895
1.26024
1.61049
1.00086
1.00269
1.00473
1.00702
1.00962
1.0125
1.01616
1.01895
1.27119
1.61524
1.00086
1.00269
1.00473
1.00702
1.00962
1.0125
1.01616
1.01894
1.28194
1.62083
1.00086
1.00269
1.00473
1.00702
1.00962
1.0125
1.01616
1.01894
1.29244
1.62737
1.00086
1.00269
1.00473
1.00702
1.00962
1.01251
1.01616
1.01894
1.30261
1.63496
1.00086
1.00269
1.00473
1.00702
1.00962
1.01251
1.01616
1.01894
1.31242
1.64354
1.00086
1.00269
1.00473
1.00702
1.00962
1.01251
1.01615
1.01894
1.32201
1.6529
1.00086
1.00269
1.00473
1.00702
1.00961
1.01251
1.01615
1.01894
1.33149
1.66281
1.00086
1.00269
1.00473
1.00702
1.00961
1.01251
1.01615
1.01894
1.34109
1.67288
1.00086
1.00269
1.00473
1.00702
1.00961
1.01251
1.01614
1.01895
1.3512
1.6825
1.00086
1.00269
1.00473
1.00702
1.00961
1.01252
1.01614
1.01896
1.36213
1.69071
1.00086
1.00269
1.00473
1.00702
1.00961
1.01252
1.01613
1.01898
1.37388
1.69649
1.00086
1.00269
1.00472
1.00702
1.00961
1.01252
1.01613
1.01901
1.38542
1.69914
1.00086
1.00269
1.00472
1.00702
1.00961
1.01252
1.01613
1.01903
1.39473
1.6997
1.00086
1.00269
1.00472
1.00702
1.00961
1.01252
1.01613
1.01902
1.39988
1.69852
1.00086
1.00269
1.00472
1.00702
1.00961
1.01253
1.01613
1.019
1.40354
1.69947
1.00086
1.00269
1.00472
1.00702
1.00961
1.01253
1.01613
1.01899
1.40606
1.70275
1.00086
1.00269
1.00472
1.00703
1.00961
1.01253
1.01613
1.01898
1.40603
1.70583
1.59254
1.58815
1.58558
1.58188
1.57753
1.57149
1.56401
1.5542
1.54185
1.52622
1.59677
1.59246
1.58978
1.58588
1.58129
1.57466
1.56669
1.55611
1.54282
1.52582
1.60139
1.59711
1.5943
1.59017
1.58534
1.57822
1.56964
1.55815
1.54382
1.52528
1.60644
1.60214
1.59919
1.59478
1.58963
1.58201
1.57296
1.56045
1.54496
1.52468
1.61208
1.6077
1.60459
1.59985
1.59432
1.58612
1.5766
1.56302
1.54631
1.52406
1.6184
1.61391
1.6106
1.60544
1.59947
1.59068
1.58062
1.56605
1.54803
1.52355
1.62547
1.62083
1.61727
1.61167
1.60523
1.59589
1.58523
1.56966
1.5501
1.52321
1.63323
1.62839
1.62457
1.61855
1.6117
1.60179
1.59049
1.57359
1.55238
1.52306
1.64149
1.63647
1.63246
1.62611
1.61889
1.60829
1.5962
1.57775
1.55484
1.52319
1.65013
1.64493
1.64081
1.63413
1.62654
1.61506
1.60199
1.58204
1.55748
1.52383
1.65898
1.65356
1.64931
1.64216
1.63404
1.62156
1.60744
1.58621
1.5602
1.52481
1.66766
1.66182
1.65728
1.64944
1.64066
1.62717
1.61202
1.58984
1.56261
1.52538
1.67538
1.66869
1.66357
1.65483
1.64545
1.63131
1.6154
1.59268
1.56425
1.52494
1.68137
1.67362
1.66806
1.65875
1.64914
1.63474
1.61828
1.59529
1.56551
1.52398
1.68593
1.67749
1.67184
1.66245
1.6532
1.63925
1.62258
1.5995
1.5682
1.52388
1.69621
1.69007
1.68536
1.67466
1.66418
1.64991
1.63271
1.60926
1.57599
1.52785
1.74054
1.72411
1.7134
1.69896
1.68607
1.67077
1.65241
1.62791
1.59182
1.53968
1.79129
1.76633
1.74975
1.73195
1.7163
1.69925
1.67873
1.65203
1.61247
1.55917
1.83013
1.80027
1.78241
1.76266
1.74365
1.72306
1.69953
1.67065
1.62873
1.58003
1.88142
1.85396
1.83018
1.80427
1.77814
1.75273
1.72614
1.69697
1.65494
1.63019
1.48403
1.41415
1.3458
1.28099
1.21839
1.16785
1.14918
1.2062
1.27433
1.24881
1.48065
1.40752
1.33745
1.27171
1.209
1.1645
1.15137
1.22222
1.27778
1.25002
1.47701
1.40061
1.3288
1.26247
1.19882
1.16029
1.15705
1.23783
1.28055
1.25098
1.47336
1.39361
1.32008
1.25289
1.1877
1.15717
1.16514
1.25407
1.28293
1.25254
1.46986
1.38676
1.31145
1.24178
1.17807
1.15478
1.17457
1.27014
1.28524
1.2547
1.46651
1.3802
1.30208
1.23004
1.17132
1.15204
1.18518
1.28412
1.28793
1.25715
1.4632
1.37323
1.29166
1.21925
1.16411
1.14979
1.19766
1.29382
1.29123
1.25821
1.45969
1.36494
1.28068
1.20917
1.15438
1.15069
1.21224
1.29911
1.29422
1.25999
1.45547
1.35449
1.26899
1.19667
1.14623
1.15235
1.22924
1.302
1.29608
1.26234
1.44983
1.34141
1.25512
1.18118
1.14186
1.15853
1.24711
1.30469
1.29708
1.26483
1.44225
1.32517
1.2364
1.16795
1.14027
1.16732
1.26367
1.30785
1.29838
1.26699
1.43166
1.30513
1.21446
1.16131
1.13915
1.17844
1.27804
1.31144
1.29996
1.26831
1.4176
1.28051
1.19588
1.15694
1.13841
1.19122
1.2913
1.31483
1.30188
1.26835
1.40039
1.2557
1.18194
1.14746
1.14075
1.20502
1.30431
1.31804
1.3044
1.26939
1.38226
1.23406
1.16818
1.13473
1.14268
1.22074
1.31701
1.32144
1.30784
1.27119
1.36675
1.21853
1.16135
1.12762
1.14353
1.23744
1.32671
1.32569
1.31105
1.27358
1.35657
1.21172
1.16436
1.12264
1.14479
1.25249
1.33143
1.32934
1.31258
1.2748
1.35404
1.21524
1.17358
1.12146
1.14922
1.26338
1.33075
1.32902
1.31173
1.27347
1.3584
1.23525
1.19245
1.12516
1.16032
1.27106
1.32864
1.32813
1.31049
1.2721
1.3888
1.28161
1.22824
1.13735
1.17729
1.27823
1.33151
1.32876
1.31108
1.27338
1.51271
1.47788
1.44381
1.40593
1.3614
1.30993
1.25399
1.19718
1.12226
1.04122
1.51167
1.4774
1.4433
1.40537
1.36071
1.30922
1.25332
1.19605
1.12137
1.04215
1.5096
1.47668
1.44296
1.40472
1.35969
1.30807
1.25216
1.19412
1.11992
1.04374
1.50697
1.47614
1.44254
1.40384
1.35832
1.30653
1.25058
1.19137
1.11822
1.04625
1.50479
1.47591
1.44209
1.40262
1.35653
1.30459
1.24855
1.18778
1.11633
1.04983
1.50353
1.47592
1.44137
1.40097
1.35434
1.30229
1.24608
1.1834
1.11463
1.05468
1.50321
1.47581
1.44024
1.39882
1.35168
1.29953
1.24298
1.17822
1.11339
1.06114
1.50345
1.47522
1.43849
1.39611
1.34849
1.29621
1.23915
1.17226
1.11237
1.07013
1.50369
1.47405
1.43625
1.39286
1.34467
1.29217
1.23432
1.16581
1.11087
1.08271
1.50376
1.47249
1.43345
1.38898
1.34007
1.28729
1.22833
1.15883
1.10821
1.09975
1.50348
1.47072
1.43033
1.38447
1.33464
1.28133
1.22104
1.15179
1.10638
1.11869
1.50309
1.4688
1.42675
1.37917
1.3282
1.27436
1.21231
1.14517
1.10652
1.13862
1.50273
1.46679
1.42269
1.37317
1.32081
1.26601
1.20239
1.14085
1.10901
1.1596
1.50233
1.46432
1.41798
1.36612
1.31238
1.2565
1.19109
1.13871
1.11725
1.179
1.50174
1.46113
1.41215
1.35814
1.30278
1.24543
1.18003
1.13653
1.1335
1.19645
1.50074
1.45675
1.40498
1.34869
1.29206
1.23273
1.1698
1.13497
1.15753
1.21162
1.49916
1.45095
1.39607
1.3377
1.27979
1.21864
1.16268
1.13561
1.18777
1.22351
1.49677
1.44355
1.38526
1.32512
1.26591
1.20315
1.157
1.14273
1.21972
1.23249
1.49326
1.43443
1.3726
1.31065
1.25019
1.18824
1.15176
1.15913
1.24558
1.23997
1.48842
1.42339
1.35786
1.29447
1.23241
1.17486
1.14954
1.18302
1.26473
1.24565
1.48814
1.42217
1.35616
1.29437
1.23598
1.17748
1.14785
1.1717
1.2599
1.24374
1.49317
1.43353
1.37103
1.31003
1.25217
1.19104
1.15071
1.15249
1.23989
1.23764
1.49682
1.44298
1.38413
1.32437
1.26675
1.2055
1.15693
1.13833
1.2124
1.23027
1.49932
1.45067
1.39534
1.33705
1.28
1.21981
1.16303
1.13365
1.18118
1.22123
1.50098
1.45668
1.40454
1.34817
1.29189
1.2332
1.17029
1.13402
1.15393
1.20932
1.50202
1.4612
1.41201
1.35777
1.30253
1.24539
1.18029
1.13686
1.13273
1.19469
1.50262
1.46451
1.41798
1.36601
1.3122
1.25629
1.19105
1.13916
1.11807
1.17808
1.503
1.46705
1.42289
1.37324
1.32076
1.26587
1.20197
1.14129
1.11009
1.15991
1.50332
1.4691
1.42704
1.37943
1.32836
1.27426
1.21181
1.14533
1.10694
1.13997
1.50366
1.47101
1.43067
1.38484
1.33493
1.28137
1.22053
1.15125
1.10656
1.12063
1.50388
1.47276
1.43382
1.38939
1.34045
1.28743
1.22787
1.15812
1.10801
1.10215
1.50376
1.47427
1.43657
1.39327
1.34509
1.2924
1.23406
1.16515
1.11054
1.08462
1.50347
1.47537
1.43876
1.39648
1.34889
1.2965
1.23908
1.1718
1.11207
1.07119
1.50319
1.47589
1.44043
1.39913
1.35205
1.29986
1.24308
1.17803
1.11315
1.06166
1.50348
1.47593
1.44147
1.40118
1.35464
1.3026
1.24629
1.18343
1.11445
1.05485
1.50471
1.47588
1.44212
1.40273
1.35674
1.30487
1.24881
1.18796
1.11632
1.04989
1.50688
1.47606
1.4425
1.40386
1.35844
1.30674
1.25083
1.19164
1.11837
1.04628
1.50951
1.47654
1.44285
1.40467
1.35972
1.30822
1.25238
1.19441
1.12024
1.04381
1.51157
1.47724
1.44315
1.40526
1.36068
1.3093
1.25349
1.19634
1.12179
1.04228
1.5126
1.47771
1.44363
1.40579
1.36133
1.30997
1.25414
1.19747
1.12275
1.0414
1.58772
1.58319
1.58082
1.57732
1.57325
1.56773
1.56082
1.55189
1.54064
1.52661
1.58227
1.57746
1.57532
1.572
1.56814
1.56311
1.55685
1.5489
1.53894
1.52688
1.57701
1.57211
1.57002
1.56686
1.56325
1.55866
1.55302
1.54598
1.5372
1.52665
1.5719
1.56691
1.5649
1.56197
1.55867
1.5545
1.54943
1.54318
1.53542
1.52603
1.5671
1.562
1.56022
1.55756
1.5546
1.55089
1.54633
1.54072
1.53376
1.52522
1.56298
1.5578
1.55628
1.55398
1.55134
1.54806
1.54393
1.53878
1.53234
1.52441
1.56018
1.55499
1.55373
1.5517
1.54933
1.54624
1.54231
1.53741
1.53127
1.52372
1.55913
1.55403
1.55293
1.55097
1.54861
1.54545
1.54146
1.53649
1.53041
1.52313
1.55948
1.55464
1.55358
1.55137
1.54878
1.54525
1.54096
1.53594
1.52994
1.5228
1.56108
1.55634
1.55491
1.55204
1.54887
1.54498
1.54033
1.53497
1.52898
1.52222
1.56439
1.55837
1.55546
1.55149
1.54787
1.54388
1.53932
1.5341
1.52833
1.52176
1.57004
1.56267
1.55784
1.55255
1.54764
1.54294
1.53807
1.53283
1.52713
1.52076
1.57366
1.56576
1.56009
1.55399
1.54832
1.54302
1.5376
1.53199
1.52604
1.51969
1.57721
1.56948
1.56343
1.55693
1.55075
1.54484
1.53886
1.53286
1.5263
1.51949
1.58079
1.57351
1.56776
1.56144
1.55512
1.54866
1.54196
1.53521
1.5279
1.52054
1.58435
1.57775
1.57256
1.5666
1.56043
1.55373
1.54656
1.53916
1.53118
1.52284
1.58766
1.58176
1.57709
1.57151
1.5656
1.55899
1.55176
1.54397
1.53546
1.52618
1.59044
1.58504
1.58075
1.57543
1.56974
1.56333
1.55625
1.54837
1.53961
1.52964
1.59211
1.587
1.58291
1.57774
1.5722
1.56589
1.55892
1.55105
1.54215
1.53203
1.59226
1.58732
1.58341
1.57837
1.57293
1.56669
1.55985
1.55208
1.54313
1.53311
1.00086
1.00269
1.00473
1.00702
1.00962
1.0125
1.01617
1.01895
1.22389
1.59897
1.00086
1.00269
1.00473
1.00702
1.00962
1.0125
1.01617
1.01895
1.20675
1.59481
1.00086
1.00269
1.00473
1.00702
1.00962
1.0125
1.01617
1.01895
1.18915
1.59087
1.00086
1.00269
1.00473
1.00702
1.00962
1.0125
1.01617
1.01895
1.17104
1.58699
1.00086
1.00268
1.00473
1.00702
1.00962
1.0125
1.01617
1.01896
1.15246
1.58327
1.00086
1.00268
1.00473
1.00702
1.00962
1.0125
1.01617
1.01896
1.13338
1.58009
1.00086
1.00268
1.00473
1.00702
1.00962
1.0125
1.01617
1.01897
1.1137
1.57815
1.00086
1.00268
1.00473
1.00702
1.00962
1.0125
1.01617
1.01898
1.09361
1.57774
1.00086
1.00268
1.00473
1.00702
1.00962
1.0125
1.01617
1.01899
1.07477
1.57841
1.00086
1.00268
1.00473
1.00702
1.00962
1.0125
1.01617
1.019
1.06073
1.57978
1.00086
1.00268
1.00473
1.00702
1.00962
1.01249
1.01617
1.01902
1.05123
1.58196
1.00086
1.00268
1.00473
1.00702
1.00962
1.01249
1.01618
1.01903
1.04439
1.58524
1.00086
1.00268
1.00473
1.00701
1.00963
1.01249
1.01618
1.01905
1.03934
1.58952
1.00086
1.00268
1.00473
1.00701
1.00963
1.01249
1.01619
1.01907
1.03602
1.59355
1.00086
1.00268
1.00473
1.00701
1.00963
1.01249
1.01619
1.01908
1.03407
1.59708
1.00086
1.00268
1.00473
1.00701
1.00963
1.01249
1.01619
1.0191
1.03305
1.60025
1.00086
1.00268
1.00473
1.00701
1.00963
1.01249
1.01619
1.01911
1.03278
1.60312
1.00086
1.00268
1.00473
1.00701
1.00963
1.01249
1.01618
1.01912
1.03315
1.60562
1.00086
1.00268
1.00473
1.00701
1.00963
1.01249
1.01617
1.01914
1.03405
1.60712
1.00086
1.00268
1.00473
1.00701
1.00963
1.01249
1.01616
1.01917
1.03477
1.60722
1.00086
1.00268
1.00473
1.00701
1.00963
1.01249
1.01616
1.01917
1.03478
1.60719
1.00086
1.00268
1.00473
1.00701
1.00963
1.01249
1.01617
1.01914
1.03406
1.60709
1.00086
1.00268
1.00473
1.00701
1.00963
1.01249
1.01618
1.01912
1.03316
1.60559
1.00086
1.00268
1.00473
1.00701
1.00963
1.01249
1.01619
1.01911
1.03279
1.6031
1.00086
1.00268
1.00473
1.00701
1.00963
1.01249
1.01619
1.0191
1.03305
1.60024
1.00086
1.00268
1.00473
1.00701
1.00963
1.01249
1.01619
1.01908
1.03407
1.59709
1.00086
1.00268
1.00473
1.00701
1.00963
1.01249
1.01619
1.01907
1.03602
1.59356
1.00086
1.00268
1.00473
1.00701
1.00963
1.01249
1.01618
1.01905
1.03933
1.58955
1.00086
1.00268
1.00473
1.00702
1.00962
1.01249
1.01618
1.01903
1.04438
1.58528
1.00086
1.00268
1.00473
1.00702
1.00962
1.01249
1.01617
1.01902
1.05122
1.582
1.00086
1.00268
1.00473
1.00702
1.00962
1.0125
1.01617
1.019
1.06072
1.57983
1.00086
1.00268
1.00473
1.00702
1.00962
1.0125
1.01617
1.01899
1.07477
1.57845
1.00086
1.00268
1.00473
1.00702
1.00962
1.0125
1.01617
1.01898
1.0936
1.57779
1.00086
1.00268
1.00473
1.00702
1.00962
1.0125
1.01617
1.01897
1.11369
1.5782
1.00086
1.00268
1.00473
1.00702
1.00962
1.0125
1.01617
1.01896
1.13338
1.58015
1.00086
1.00268
1.00473
1.00702
1.00962
1.0125
1.01617
1.01896
1.15246
1.58333
1.00086
1.00269
1.00473
1.00702
1.00962
1.0125
1.01617
1.01895
1.17106
1.58705
1.00086
1.00269
1.00473
1.00702
1.00962
1.0125
1.01617
1.01895
1.18918
1.59092
1.00086
1.00269
1.00473
1.00702
1.00962
1.0125
1.01617
1.01895
1.2068
1.59484
1.00086
1.00269
1.00473
1.00702
1.00962
1.0125
1.01617
1.01895
1.22395
1.59898
1.59223
1.58728
1.58337
1.57833
1.57289
1.56665
1.55982
1.55206
1.54313
1.53314
1.59208
1.58696
1.58288
1.57771
1.57217
1.56585
1.5589
1.55104
1.54217
1.53207
1.59042
1.58501
1.58072
1.5754
1.56972
1.56331
1.55624
1.54837
1.53963
1.52969
1.58764
1.58173
1.57707
1.57149
1.56559
1.55898
1.55177
1.54398
1.53549
1.52623
1.58433
1.57774
1.57255
1.5666
1.56043
1.55375
1.54658
1.53919
1.53122
1.5229
1.58079
1.57352
1.56777
1.56146
1.55514
1.54869
1.542
1.53527
1.52797
1.52062
1.57723
1.56951
1.56347
1.55697
1.55079
1.5449
1.53894
1.53295
1.52639
1.51956
1.57369
1.5658
1.56014
1.55406
1.54839
1.54309
1.53769
1.53208
1.52613
1.51975
1.57007
1.56271
1.5579
1.55262
1.54773
1.54303
1.53816
1.53292
1.52721
1.52079
1.56443
1.55843
1.55553
1.55157
1.54795
1.54396
1.5394
1.53417
1.52837
1.52176
1.56112
1.5564
1.55498
1.55211
1.54894
1.54505
1.54039
1.53501
1.52897
1.52216
1.55952
1.55469
1.55364
1.55143
1.54884
1.54529
1.54099
1.53593
1.52987
1.52267
1.55917
1.55408
1.55297
1.55101
1.54864
1.54546
1.54143
1.53641
1.53027
1.52293
1.56022
1.55503
1.55376
1.55172
1.54932
1.5462
1.54222
1.53726
1.53106
1.52345
1.56302
1.55783
1.5563
1.55396
1.55129
1.54796
1.54378
1.53856
1.53207
1.52411
1.56715
1.56202
1.56021
1.55753
1.55451
1.55075
1.54613
1.54046
1.53345
1.5249
1.57195
1.56693
1.56489
1.5619
1.55855
1.55432
1.5492
1.5429
1.53511
1.52573
1.57706
1.57212
1.56998
1.56677
1.5631
1.55846
1.55278
1.5457
1.53691
1.52639
1.58231
1.57745
1.57527
1.57189
1.56799
1.56291
1.55662
1.54865
1.5387
1.52667
1.58776
1.58316
1.58076
1.57722
1.57311
1.56756
1.56063
1.55168
1.54044
1.52649
)
;

boundaryField
{
    inlet
    {
        type            fixedValue;
        value           uniform 1;
    }
    outlet
    {
        type            inletOutlet;
        inletValue      uniform 1;
        value           nonuniform List<scalar> 
100
(
1.24358
1.23749
1.23014
1.2211
1.20918
1.19456
1.17795
1.15979
1.13985
1.1205
1.10202
1.08448
1.07105
1.06152
1.05472
1.04977
1.04616
1.0437
1.04217
1.04129
1.27882
1.27579
1.2752
1.27586
1.27565
1.27376
1.27096
1.26883
1.26756
1.26621
1.26439
1.26205
1.26002
1.2582
1.25644
1.25376
1.25136
1.24947
1.24816
1.24677
1.2767
1.28301
1.29185
1.29998
1.31979
1.35733
1.40025
1.44446
1.47512
1.49
1.49303
1.48982
1.47701
1.44829
1.40041
1.35592
1.31623
1.2945
1.28896
1.28337
1.24868
1.24992
1.25084
1.25236
1.25455
1.25705
1.25814
1.25988
1.26219
1.26461
1.26678
1.26822
1.26838
1.26922
1.27086
1.2733
1.27465
1.27375
1.27213
1.27301
1.04111
1.04204
1.04363
1.04614
1.04972
1.05457
1.06103
1.07001
1.08258
1.09961
1.11854
1.13846
1.15942
1.17881
1.19626
1.21144
1.22336
1.23235
1.23982
1.24549
)
;
    }
    triangle
    {
        type            zeroGradient;
    }
    top
    {
        type            symmetryPlane;
    }
    bottom
    {
        type            symmetryPlane;
    }
    defaultFaces
    {
        type            empty;
    }
}


// ************************************************************************* //
