/*--------------------------------*- C++ -*----------------------------------*\
  =========                 |
  \\      /  F ield         | OpenFOAM: The Open Source CFD Toolbox
   \\    /   O peration     | Website:  https://openfoam.org
    \\  /    A nd           | Version:  8
     \\/     M anipulation  |
\*---------------------------------------------------------------------------*/
FoamFile
{
    version     2.0;
    format      ascii;
    class       volVectorField;
    location    "3.3";
    object      U;
}
// * * * * * * * * * * * * * * * * * * * * * * * * * * * * * * * * * * * * * //

dimensions      [0 1 -1 0 0 0 0];

internalField   nonuniform List<vector> 
2600
(
(0.746983 0.0677694 0)
(1.31033 0.192224 0)
(1.634 0.248319 0)
(1.7155 0.399374 0)
(1.67973 0.330933 0)
(1.41439 0.180563 0)
(1.37122 0.060059 0)
(1.42926 0.0295775 0)
(1.45422 0.036385 0)
(1.48641 0.0155081 0)
(0.259699 -0.116524 0)
(0.910739 0.128123 0)
(1.45488 0.211778 0)
(1.6771 0.365475 0)
(1.67696 0.311325 0)
(1.41244 0.174385 0)
(1.36494 0.0453634 0)
(1.42567 0.0156254 0)
(1.45245 0.030839 0)
(1.48344 0.011813 0)
(0.0327608 -0.117119 0)
(0.495444 0.0565025 0)
(1.13183 0.145506 0)
(1.57459 0.31036 0)
(1.66572 0.289268 0)
(1.41101 0.165856 0)
(1.35001 0.0486686 0)
(1.40525 0.00959599 0)
(1.44872 0.0360107 0)
(1.47767 0.00959054 0)
(-0.0586587 -0.140254 0)
(0.193355 -0.00313453 0)
(0.741714 0.0865367 0)
(1.37925 0.24427 0)
(1.63004 0.267383 0)
(1.40445 0.168231 0)
(1.31435 0.0618063 0)
(1.34737 0.024091 0)
(1.4319 0.0525538 0)
(1.46244 0.0223563 0)
(-0.114891 -0.125963 0)
(-0.00656629 -0.0278554 0)
(0.374415 0.00927953 0)
(1.09046 0.171135 0)
(1.54674 0.230756 0)
(1.37342 0.173624 0)
(1.22731 0.0506359 0)
(1.22967 -0.000270198 0)
(1.37199 0.0358673 0)
(1.42807 0.0285163 0)
(-0.161189 -0.116353 0)
(-0.156042 -0.0376686 0)
(0.0434023 -0.0307331 0)
(0.726003 0.0946125 0)
(1.40267 0.192015 0)
(1.28781 0.158948 0)
(1.07453 0.0392916 0)
(1.04607 0.00471319 0)
(1.2578 0.0103098 0)
(1.36534 0.0192354 0)
(-0.201377 -0.100091 0)
(-0.284185 -0.0405293 0)
(-0.231503 -0.0868271 0)
(0.328458 -0.0212775 0)
(1.16666 0.175391 0)
(1.12004 0.152312 0)
(0.856607 0.0725357 0)
(0.837834 -0.00120297 0)
(1.10114 0.0135672 0)
(1.27369 0.0135474 0)
(-0.230456 -0.0695412 0)
(-0.392899 -0.0483382 0)
(-0.434892 -0.108966 0)
(-0.048275 -0.118502 0)
(0.811581 0.0893598 0)
(0.858237 0.190479 0)
(0.621203 0.064875 0)
(0.68482 0.0173319 0)
(0.959522 -0.0146373 0)
(1.16999 0.0221331 0)
(-0.241522 -0.0280343 0)
(-0.466579 -0.034387 0)
(-0.537792 -0.105904 0)
(-0.317721 -0.177998 0)
(0.374616 0.0553023 0)
(0.544537 0.159192 0)
(0.459313 0.0982654 0)
(0.628078 -0.0167702 0)
(0.876882 -0.0223093 0)
(1.08687 0.00723038 0)
(-0.258558 0.0165534 0)
(-0.49835 0.00270818 0)
(-0.567889 -0.093012 0)
(-0.443035 -0.175577 0)
(0.0199127 0.017665 0)
(0.282792 0.175015 0)
(0.403243 0.0719141 0)
(0.636237 -0.0491298 0)
(0.857761 -0.0432787 0)
(1.04272 0.00976905 0)
(-0.253997 0.0692915 0)
(-0.496873 0.0417674 0)
(-0.568303 -0.0694518 0)
(-0.46738 -0.174916 0)
(-0.147036 0.0218115 0)
(0.157913 0.159648 0)
(0.425045 0.0396306 0)
(0.713838 -0.0542514 0)
(0.86995 -0.0658194 0)
(1.03215 0.00443262 0)
(-0.233942 0.110462 0)
(-0.456402 0.0591479 0)
(-0.50006 -0.0792523 0)
(-0.39516 -0.19283 0)
(-0.169122 -0.0220947 0)
(0.145917 0.111065 0)
(0.555677 0.0305153 0)
(0.878992 -0.0758596 0)
(0.929762 -0.0529623 0)
(1.04369 0.00296757 0)
(-0.211878 0.147558 0)
(-0.36985 0.055472 0)
(-0.308987 -0.0874198 0)
(-0.146367 -0.207105 0)
(-0.0849437 -0.0695829 0)
(0.227964 0.0649196 0)
(0.789523 -0.0293147 0)
(1.07584 -0.0719035 0)
(1.04374 -0.0546854 0)
(1.09041 0.00920557 0)
(-0.172144 0.160483 0)
(-0.24056 0.0538881 0)
(-0.00987188 -0.110799 0)
(0.269892 -0.252316 0)
(0.189431 -0.0613916 0)
(0.462248 0.0337408 0)
(1.05947 -0.0384255 0)
(1.23219 -0.0924863 0)
(1.17875 -0.0560896 0)
(1.17552 -0.00896723 0)
(-0.129306 0.174343 0)
(-0.0846936 0.0506181 0)
(0.343542 -0.126839 0)
(0.737835 -0.214616 0)
(0.610817 -0.0997883 0)
(0.82974 -0.00959839 0)
(1.27085 -0.0799511 0)
(1.32524 -0.0858231 0)
(1.2868 -0.0481882 0)
(1.27831 0.00685424 0)
(-0.0820985 0.169759 0)
(0.0954476 0.0350066 0)
(0.699574 -0.189572 0)
(1.12459 -0.228516 0)
(1.01413 -0.0748947 0)
(1.18629 -0.0427428 0)
(1.39906 -0.0951662 0)
(1.3711 -0.0814223 0)
(1.35245 -0.0343646 0)
(1.36606 0.0111856 0)
(-0.0234973 0.18354 0)
(0.323071 -0.00913527 0)
(1.04234 -0.258176 0)
(1.38507 -0.260242 0)
(1.28836 -0.0820808 0)
(1.41798 -0.0387251 0)
(1.45823 -0.115426 0)
(1.39069 -0.0945795 0)
(1.38595 -0.0443026 0)
(1.42108 -0.0022692 0)
(0.0579292 0.142818 0)
(0.646955 -0.0860249 0)
(1.34056 -0.339598 0)
(1.53676 -0.312189 0)
(1.43492 -0.107214 0)
(1.52481 -0.0886857 0)
(1.47716 -0.107592 0)
(1.40027 -0.0933078 0)
(1.40102 -0.0430816 0)
(1.44968 -0.00277479 0)
(0.282029 0.134024 0)
(1.05344 -0.187266 0)
(1.5596 -0.390926 0)
(1.61272 -0.327792 0)
(1.50032 -0.114771 0)
(1.56828 -0.101203 0)
(1.4807 -0.0927276 0)
(1.40345 -0.084419 0)
(1.40718 -0.0344976 0)
(1.46101 0.00985654 0)
(0.759661 -0.0884526 0)
(1.4283 -0.236787 0)
(1.67705 -0.413864 0)
(1.64582 -0.347077 0)
(1.52331 -0.146459 0)
(1.5804 -0.111527 0)
(1.4823 -0.0934847 0)
(1.40494 -0.0827537 0)
(1.41117 -0.0327024 0)
(1.4657 0.00983419 0)
(1.33566 -0.00417732 0)
(1.66185 -0.259189 0)
(1.72348 -0.424999 0)
(1.65842 -0.376285 0)
(1.53147 -0.182324 0)
(1.58024 -0.130655 0)
(1.48567 -0.0956011 0)
(1.4085 -0.0828083 0)
(1.41683 -0.0341829 0)
(1.46932 0.00607669 0)
(1.46816 0.116559 0)
(1.74839 -0.233829 0)
(1.73364 -0.417657 0)
(1.6681 -0.394414 0)
(1.54885 -0.21921 0)
(1.57624 -0.145176 0)
(1.49331 -0.100852 0)
(1.41541 -0.0841492 0)
(1.42485 -0.0378248 0)
(1.47461 0.00041961 0)
(1.46925 0.149904 0)
(1.74256 -0.213844 0)
(1.72675 -0.404304 0)
(1.66976 -0.403024 0)
(1.58372 -0.253894 0)
(1.58289 -0.171274 0)
(1.50212 -0.105021 0)
(1.42293 -0.08407 0)
(1.43385 -0.0393586 0)
(1.48051 0.000857072 0)
(1.42814 0.177076 0)
(1.69796 -0.160399 0)
(1.71402 -0.37105 0)
(1.67663 -0.402788 0)
(1.61659 -0.286842 0)
(1.59005 -0.194978 0)
(1.51179 -0.1087 0)
(1.43135 -0.0820185 0)
(1.44416 -0.0361085 0)
(1.48738 0.00386386 0)
(1.38991 0.187657 0)
(1.657 -0.136336 0)
(1.70136 -0.349008 0)
(1.68113 -0.397216 0)
(1.64209 -0.317566 0)
(1.60044 -0.216818 0)
(1.52382 -0.113035 0)
(1.4391 -0.0797988 0)
(1.45314 -0.0329237 0)
(1.49266 0.00646719 0)
(1.36094 0.192637 0)
(1.61747 -0.0941017 0)
(1.69032 -0.325288 0)
(1.68019 -0.394062 0)
(1.65847 -0.347897 0)
(1.61301 -0.237718 0)
(1.53842 -0.116532 0)
(1.44554 -0.0803364 0)
(1.46035 -0.0333531 0)
(1.49769 0.00647254 0)
(1.33884 0.1945 0)
(1.58625 -0.0616689 0)
(1.68427 -0.309811 0)
(1.67725 -0.390706 0)
(1.66544 -0.373057 0)
(1.6266 -0.263981 0)
(1.55506 -0.124134 0)
(1.45072 -0.0825313 0)
(1.46548 -0.036131 0)
(1.5013 0.00490624 0)
(1.31995 0.193252 0)
(1.55549 -0.0332677 0)
(1.67069 -0.263805 0)
(1.67548 -0.383366 0)
(1.67346 -0.384679 0)
(1.64396 -0.298666 0)
(1.57399 -0.138228 0)
(1.45236 -0.0837756 0)
(1.46759 -0.0376724 0)
(1.50261 0.00413208 0)
(1.3015 0.190552 0)
(1.52893 -0.0147095 0)
(1.65592 -0.233628 0)
(1.67309 -0.369051 0)
(1.67948 -0.389296 0)
(1.65798 -0.330137 0)
(1.59128 -0.159512 0)
(1.45055 -0.0843797 0)
(1.4682 -0.0364158 0)
(1.50333 0.00586339 0)
(1.28343 0.187262 0)
(1.50495 0.000480303 0)
(1.63146 -0.201651 0)
(1.66211 -0.345966 0)
(1.68204 -0.392296 0)
(1.66912 -0.356191 0)
(1.6051 -0.185711 0)
(1.44919 -0.0871753 0)
(1.46809 -0.0346443 0)
(1.50364 0.00888778 0)
(1.26652 0.183392 0)
(1.47883 0.019035 0)
(1.61222 -0.183228 0)
(1.65745 -0.333601 0)
(1.68229 -0.394115 0)
(1.67387 -0.373985 0)
(1.61622 -0.213168 0)
(1.45267 -0.0899537 0)
(1.46738 -0.0346369 0)
(1.50422 0.00966878 0)
(1.2509 0.180103 0)
(1.45509 0.0316824 0)
(1.58982 -0.15381 0)
(1.64946 -0.318689 0)
(1.68009 -0.39325 0)
(1.67638 -0.387761 0)
(1.62518 -0.238765 0)
(1.46269 -0.0957826 0)
(1.46825 -0.0362918 0)
(1.50557 0.00942202 0)
(1.23674 0.176467 0)
(1.4315 0.0417883 0)
(1.56684 -0.12952 0)
(1.63959 -0.299352 0)
(1.67339 -0.39313 0)
(1.67766 -0.399129 0)
(1.63492 -0.266624 0)
(1.47679 -0.102443 0)
(1.47088 -0.0391678 0)
(1.50812 0.010204 0)
(1.22399 0.171899 0)
(1.41035 0.0471181 0)
(1.54434 -0.110806 0)
(1.62359 -0.26725 0)
(1.66604 -0.389747 0)
(1.67875 -0.409101 0)
(1.64536 -0.298165 0)
(1.49594 -0.113893 0)
(1.47525 -0.0415038 0)
(1.5123 0.0118744 0)
(1.21281 0.166827 0)
(1.38981 0.0524203 0)
(1.52465 -0.0979445 0)
(1.60769 -0.243777 0)
(1.66059 -0.373974 0)
(1.67887 -0.413802 0)
(1.65586 -0.329758 0)
(1.51392 -0.127659 0)
(1.48283 -0.0421052 0)
(1.51757 0.0135842 0)
(1.20269 0.161683 0)
(1.37156 0.0553516 0)
(1.50467 -0.0837386 0)
(1.59176 -0.224112 0)
(1.6494 -0.34765 0)
(1.67702 -0.414692 0)
(1.66463 -0.355094 0)
(1.54091 -0.149624 0)
(1.4919 -0.0444227 0)
(1.52273 0.0157 0)
(1.19367 0.156847 0)
(1.35441 0.0584706 0)
(1.4862 -0.0721181 0)
(1.57661 -0.206723 0)
(1.63884 -0.328331 0)
(1.67535 -0.409246 0)
(1.67173 -0.372065 0)
(1.56226 -0.173009 0)
(1.50003 -0.0485387 0)
(1.52769 0.0173751 0)
(1.18547 0.152487 0)
(1.33892 0.0604556 0)
(1.46798 -0.0613581 0)
(1.56061 -0.188727 0)
(1.62798 -0.310764 0)
(1.67318 -0.401486 0)
(1.67636 -0.381815 0)
(1.58336 -0.200179 0)
(1.50657 -0.0532048 0)
(1.53064 0.0186172 0)
(1.17756 0.148382 0)
(1.32429 0.06226 0)
(1.45093 -0.0530419 0)
(1.54583 -0.174573 0)
(1.61596 -0.29137 0)
(1.67076 -0.394985 0)
(1.67925 -0.385112 0)
(1.60156 -0.225651 0)
(1.51261 -0.0586345 0)
(1.53251 0.0205477 0)
(1.17001 0.144433 0)
(1.3107 0.0634486 0)
(1.43465 -0.0456427 0)
(1.53073 -0.161107 0)
(1.60431 -0.2743 0)
(1.66712 -0.382409 0)
(1.67919 -0.385427 0)
(1.61891 -0.249906 0)
(1.52107 -0.0651821 0)
(1.53572 0.0216701 0)
(0.354867 0.0822555 0)
(0.445899 0.130762 0)
(0.495551 0.202952 0)
(0.54834 0.254309 0)
(0.592694 0.295173 0)
(0.637617 0.326823 0)
(0.686363 0.35725 0)
(0.748986 0.386863 0)
(0.835847 0.429507 0)
(0.991746 0.472077 0)
(0.388858 0.114517 0)
(0.455262 0.149367 0)
(0.487239 0.208812 0)
(0.536588 0.254354 0)
(0.581854 0.293868 0)
(0.630463 0.325229 0)
(0.683101 0.356039 0)
(0.748963 0.386276 0)
(0.837352 0.426682 0)
(0.988233 0.457532 0)
(0.450204 0.104246 0)
(0.495135 0.131109 0)
(0.511548 0.178373 0)
(0.551823 0.218658 0)
(0.59136 0.259843 0)
(0.640272 0.295239 0)
(0.695803 0.331155 0)
(0.765717 0.364273 0)
(0.859573 0.405077 0)
(1.01614 0.420229 0)
(0.508931 0.121602 0)
(0.540247 0.146894 0)
(0.550889 0.184939 0)
(0.587061 0.213282 0)
(0.618933 0.248264 0)
(0.66311 0.278269 0)
(0.713537 0.310723 0)
(0.78058 0.339284 0)
(0.874554 0.376538 0)
(1.02791 0.382099 0)
(0.563851 0.121207 0)
(0.587941 0.139797 0)
(0.596527 0.173683 0)
(0.628449 0.202714 0)
(0.654073 0.237064 0)
(0.694601 0.265631 0)
(0.741343 0.29691 0)
(0.805934 0.321538 0)
(0.897308 0.353317 0)
(1.0436 0.352221 0)
(0.619858 0.136161 0)
(0.638216 0.155098 0)
(0.645268 0.185235 0)
(0.672677 0.20877 0)
(0.694369 0.238159 0)
(0.732135 0.261877 0)
(0.775415 0.289814 0)
(0.837117 0.309273 0)
(0.92394 0.334879 0)
(1.06093 0.329803 0)
(0.670889 0.148148 0)
(0.686259 0.164254 0)
(0.692215 0.189242 0)
(0.715561 0.209672 0)
(0.734372 0.236316 0)
(0.769393 0.257602 0)
(0.809551 0.283275 0)
(0.867949 0.298402 0)
(0.949116 0.318113 0)
(1.0749 0.312315 0)
(0.714071 0.158256 0)
(0.726607 0.172132 0)
(0.731646 0.193752 0)
(0.751931 0.212085 0)
(0.769308 0.235786 0)
(0.802047 0.253676 0)
(0.839565 0.276474 0)
(0.894441 0.287784 0)
(0.969031 0.301492 0)
(1.08273 0.295057 0)
(0.74986 0.165948 0)
(0.760259 0.177543 0)
(0.764693 0.195693 0)
(0.782432 0.211417 0)
(0.798624 0.232161 0)
(0.829091 0.247648 0)
(0.86418 0.268222 0)
(0.915785 0.277205 0)
(0.984078 0.286087 0)
(1.08555 0.278806 0)
(0.779613 0.171683 0)
(0.788813 0.181296 0)
(0.793046 0.196594 0)
(0.80883 0.210208 0)
(0.824056 0.228316 0)
(0.852163 0.241444 0)
(0.884779 0.259636 0)
(0.932997 0.266777 0)
(0.995536 0.272303 0)
(1.08654 0.264456 0)
(0.804662 0.175966 0)
(0.813345 0.183797 0)
(0.817745 0.196541 0)
(0.832173 0.207936 0)
(0.846651 0.223497 0)
(0.872542 0.234681 0)
(0.902852 0.250807 0)
(0.947709 0.256798 0)
(1.00457 0.259604 0)
(1.08679 0.251878 0)
(0.82617 0.178721 0)
(0.834622 0.185064 0)
(0.839301 0.195649 0)
(0.852812 0.205018 0)
(0.86677 0.218209 0)
(0.890699 0.227477 0)
(0.918889 0.241441 0)
(0.960498 0.246825 0)
(1.01181 0.247493 0)
(1.08578 0.240125 0)
(0.844841 0.180523 0)
(0.853154 0.185702 0)
(0.858093 0.19454 0)
(0.870897 0.202119 0)
(0.884546 0.213141 0)
(0.906943 0.220508 0)
(0.933406 0.232072 0)
(0.972007 0.237035 0)
(1.01841 0.236492 0)
(1.08436 0.229199 0)
(0.861056 0.181245 0)
(0.869296 0.185441 0)
(0.874417 0.192831 0)
(0.886516 0.198985 0)
(0.899859 0.208202 0)
(0.92098 0.21388 0)
(0.946036 0.222991 0)
(0.98195 0.22729 0)
(1.02431 0.226277 0)
(1.08334 0.219015 0)
(0.875109 0.181218 0)
(0.883365 0.184554 0)
(0.888664 0.190736 0)
(0.900071 0.195773 0)
(0.913029 0.203505 0)
(0.932973 0.207952 0)
(0.956754 0.214799 0)
(0.990239 0.218106 0)
(1.02966 0.216992 0)
(1.0827 0.209599 0)
(0.887263 0.180346 0)
(0.895549 0.182946 0)
(0.901025 0.188115 0)
(0.911811 0.192236 0)
(0.924313 0.198754 0)
(0.943073 0.202357 0)
(0.965518 0.207266 0)
(0.997056 0.210356 0)
(1.03407 0.20861 0)
(1.08185 0.201006 0)
(0.897699 0.178989 0)
(0.906017 0.180931 0)
(0.911676 0.185214 0)
(0.92194 0.188503 0)
(0.933938 0.193818 0)
(0.951621 0.197009 0)
(0.97278 0.200478 0)
(1.0022 0.202743 0)
(1.03738 0.201038 0)
(1.08099 0.193485 0)
(0.906538 0.1771 0)
(0.914906 0.178508 0)
(0.920724 0.182103 0)
(0.930556 0.18469 0)
(0.942172 0.189072 0)
(0.958704 0.191606 0)
(0.978822 0.194275 0)
(1.00589 0.195537 0)
(1.03922 0.193814 0)
(1.07969 0.186687 0)
(0.91395 0.174775 0)
(0.92238 0.175663 0)
(0.928259 0.178612 0)
(0.937616 0.180612 0)
(0.948771 0.183945 0)
(0.964646 0.186562 0)
(0.983819 0.188225 0)
(1.00898 0.188837 0)
(1.04067 0.187293 0)
(1.07813 0.180534 0)
(0.920242 0.172262 0)
(0.928705 0.172674 0)
(0.934642 0.175027 0)
(0.943604 0.176545 0)
(0.954358 0.179161 0)
(0.969184 0.180934 0)
(0.987354 0.182047 0)
(1.01083 0.182147 0)
(1.04098 0.180886 0)
(1.07623 0.174815 0)
(2.14043 1.4814e-07 0)
(2.13077 -5.63308e-07 0)
(2.12016 1.19078e-06 0)
(2.10845 -2.58693e-06 0)
(2.09548 4.19461e-06 0)
(2.08132 -9.12129e-06 0)
(2.06392 1.34787e-05 0)
(2.05237 -2.75355e-05 0)
(1.20148 0.0124261 0)
(0.396539 0.020502 0)
(2.14043 4.31832e-07 0)
(2.13077 -1.63952e-06 0)
(2.12016 3.4686e-06 0)
(2.10845 -7.42315e-06 0)
(2.09548 1.20994e-05 0)
(2.08132 -2.57525e-05 0)
(2.06393 4.18585e-05 0)
(2.05239 -9.35999e-05 0)
(1.20224 0.0389757 0)
(0.432747 0.0498619 0)
(2.14043 7.1392e-07 0)
(2.13077 -2.70261e-06 0)
(2.12016 5.72899e-06 0)
(2.10845 -1.2213e-05 0)
(2.09548 1.99054e-05 0)
(2.08132 -4.16437e-05 0)
(2.06394 6.6194e-05 0)
(2.05241 -0.000161144 0)
(1.21833 0.0663576 0)
(0.486613 0.0711336 0)
(2.14043 9.91402e-07 0)
(2.13077 -3.73584e-06 0)
(2.12016 7.93373e-06 0)
(2.10845 -1.68318e-05 0)
(2.09548 2.74982e-05 0)
(2.08132 -5.66516e-05 0)
(2.06395 8.79411e-05 0)
(2.05241 -0.000219681 0)
(1.24545 0.0875809 0)
(0.54902 0.0928836 0)
(2.14043 1.26178e-06 0)
(2.13077 -4.72655e-06 0)
(2.12016 1.00612e-05 0)
(2.10845 -2.12198e-05 0)
(2.09548 3.47134e-05 0)
(2.08133 -7.01537e-05 0)
(2.06396 0.000109561 0)
(2.05233 -0.00036377 0)
(1.27758 0.104459 0)
(0.611243 0.111524 0)
(2.14043 1.52316e-06 0)
(2.13077 -5.66521e-06 0)
(2.12016 1.20927e-05 0)
(2.10845 -2.5336e-05 0)
(2.09548 4.15256e-05 0)
(2.08133 -8.21585e-05 0)
(2.06397 0.000124773 0)
(2.05215 -0.000429665 0)
(1.31111 0.117204 0)
(0.664246 0.129521 0)
(2.14043 1.77377e-06 0)
(2.13077 -6.54402e-06 0)
(2.12016 1.40108e-05 0)
(2.10845 -2.9141e-05 0)
(2.09548 4.79284e-05 0)
(2.08134 -9.397e-05 0)
(2.06397 0.000145621 0)
(2.05194 -0.000488059 0)
(1.3418 0.125597 0)
(0.709169 0.143521 0)
(2.14043 2.01207e-06 0)
(2.13077 -7.35728e-06 0)
(2.12016 1.58011e-05 0)
(2.10846 -3.25978e-05 0)
(2.09548 5.37558e-05 0)
(2.08135 -0.000104043 0)
(2.06397 0.000165348 0)
(2.05181 -0.000536181 0)
(1.36799 0.131857 0)
(0.746139 0.155384 0)
(2.14043 2.23675e-06 0)
(2.13077 -8.10141e-06 0)
(2.12016 1.74536e-05 0)
(2.10846 -3.57022e-05 0)
(2.09547 5.9084e-05 0)
(2.08135 -0.000113261 0)
(2.06397 0.000185569 0)
(2.05173 -0.000564064 0)
(1.39085 0.136591 0)
(0.776442 0.164644 0)
(2.14043 2.44678e-06 0)
(2.13077 -8.77486e-06 0)
(2.12016 1.8962e-05 0)
(2.10846 -3.84499e-05 0)
(2.09547 6.38728e-05 0)
(2.08136 -0.000121299 0)
(2.06397 0.000204381 0)
(2.05169 -0.000579099 0)
(1.41215 0.140517 0)
(0.801693 0.171379 0)
(2.14043 2.64144e-06 0)
(2.13077 -9.37803e-06 0)
(2.12016 2.03248e-05 0)
(2.10846 -4.08567e-05 0)
(2.09547 6.81521e-05 0)
(2.08136 -0.000128194 0)
(2.06397 0.000221021 0)
(2.05165 -0.00058935 0)
(1.43333 0.143987 0)
(0.823204 0.176343 0)
(2.14043 2.82029e-06 0)
(2.13077 -9.91276e-06 0)
(2.12016 2.15432e-05 0)
(2.10846 -4.29416e-05 0)
(2.09547 7.19432e-05 0)
(2.08137 -0.000134017 0)
(2.06397 0.000235157 0)
(2.05162 -0.000584778 0)
(1.45535 0.146976 0)
(0.842212 0.179627 0)
(2.14043 2.98323e-06 0)
(2.13077 -1.03823e-05 0)
(2.12016 2.26226e-05 0)
(2.10847 -4.47319e-05 0)
(2.09547 7.52742e-05 0)
(2.08137 -0.000138777 0)
(2.06398 0.000246807 0)
(2.05159 -0.000584162 0)
(1.47875 0.149522 0)
(0.859351 0.181868 0)
(2.14043 3.1304e-06 0)
(2.13077 -1.07905e-05 0)
(2.12016 2.35697e-05 0)
(2.10847 -4.62532e-05 0)
(2.09547 7.8167e-05 0)
(2.08138 -0.00014255 0)
(2.06398 0.00025603 0)
(2.05155 -0.000578155 0)
(1.50389 0.15125 0)
(0.874806 0.183129 0)
(2.14043 3.26217e-06 0)
(2.13077 -1.11421e-05 0)
(2.12016 2.43933e-05 0)
(2.10847 -4.75348e-05 0)
(2.09547 8.0657e-05 0)
(2.08138 -0.000145496 0)
(2.06399 0.000263385 0)
(2.05151 -0.000572024 0)
(1.53045 0.152445 0)
(0.888704 0.183772 0)
(2.14043 3.3791e-06 0)
(2.13077 -1.14417e-05 0)
(2.12016 2.51027e-05 0)
(2.10847 -4.86018e-05 0)
(2.09547 8.27674e-05 0)
(2.08138 -0.000147699 0)
(2.06399 0.000269066 0)
(2.05148 -0.00056433 0)
(1.55767 0.153118 0)
(0.901298 0.183636 0)
(2.14043 3.48188e-06 0)
(2.13077 -1.16943e-05 0)
(2.12016 2.5708e-05 0)
(2.10847 -4.94792e-05 0)
(2.09547 8.45359e-05 0)
(2.08138 -0.000149293 0)
(2.064 0.000273443 0)
(2.05144 -0.000556183 0)
(1.5851 0.153038 0)
(0.912714 0.183136 0)
(2.14043 3.57121e-06 0)
(2.13077 -1.19042e-05 0)
(2.12016 2.62186e-05 0)
(2.10847 -5.01897e-05 0)
(2.09547 8.59969e-05 0)
(2.08139 -0.000150389 0)
(2.064 0.000276826 0)
(2.05141 -0.000547365 0)
(1.6126 0.152251 0)
(0.923046 0.182185 0)
(2.14043 3.64811e-06 0)
(2.13077 -1.20765e-05 0)
(2.12016 2.66447e-05 0)
(2.10847 -5.07573e-05 0)
(2.09547 8.71897e-05 0)
(2.08139 -0.000151076 0)
(2.06401 0.000279457 0)
(2.05138 -0.000537911 0)
(1.64009 0.150678 0)
(0.932467 0.180918 0)
(2.14043 3.71316e-06 0)
(2.13077 -1.22144e-05 0)
(2.12016 2.6993e-05 0)
(2.10847 -5.11957e-05 0)
(2.09547 8.8151e-05 0)
(2.08139 -0.000151427 0)
(2.06401 0.000281553 0)
(2.05135 -0.00052749 0)
(1.6677 0.14859 0)
(0.941172 0.179318 0)
(2.14043 -3.71358e-06 0)
(2.13077 1.22151e-05 0)
(2.12016 -2.69935e-05 0)
(2.10847 5.11938e-05 0)
(2.09547 -8.81436e-05 0)
(2.08139 0.000151411 0)
(2.06401 -0.000281503 0)
(2.05135 0.000527562 0)
(1.66757 -0.148739 0)
(0.941199 -0.17924 0)
(2.14043 -3.64862e-06 0)
(2.13077 1.20774e-05 0)
(2.12016 -2.66456e-05 0)
(2.10847 5.07555e-05 0)
(2.09547 -8.71814e-05 0)
(2.08139 0.000151058 0)
(2.06401 -0.0002794 0)
(2.05138 0.000537994 0)
(1.63992 -0.150823 0)
(0.932505 -0.180835 0)
(2.14043 -3.57182e-06 0)
(2.13077 1.19054e-05 0)
(2.12016 -2.62201e-05 0)
(2.10847 5.01883e-05 0)
(2.09547 -8.59881e-05 0)
(2.08139 0.00015037 0)
(2.064 -0.000276764 0)
(2.05141 0.000547454 0)
(1.6124 -0.152384 0)
(0.923096 -0.182098 0)
(2.14043 -3.4826e-06 0)
(2.13077 1.16958e-05 0)
(2.12016 -2.57103e-05 0)
(2.10847 4.94785e-05 0)
(2.09547 -8.45271e-05 0)
(2.08138 0.000149271 0)
(2.064 -0.000273376 0)
(2.05145 0.000556276 0)
(1.58486 -0.153152 0)
(0.912774 -0.183048 0)
(2.14043 -3.37995e-06 0)
(2.13077 1.14436e-05 0)
(2.12016 -2.5106e-05 0)
(2.10847 4.86022e-05 0)
(2.09547 -8.27593e-05 0)
(2.08138 0.000147674 0)
(2.06399 -0.000268992 0)
(2.05148 0.000564426 0)
(1.5574 -0.153205 0)
(0.901368 -0.183553 0)
(2.14043 -3.26314e-06 0)
(2.13077 1.11444e-05 0)
(2.12016 -2.43976e-05 0)
(2.10847 4.75369e-05 0)
(2.09547 -8.06505e-05 0)
(2.08138 0.00014547 0)
(2.06399 -0.000263303 0)
(2.05151 0.000572114 0)
(1.53016 -0.152506 0)
(0.888784 -0.183692 0)
(2.14043 -3.1315e-06 0)
(2.13077 1.07933e-05 0)
(2.12016 -2.35752e-05 0)
(2.10847 4.62574e-05 0)
(2.09547 -7.81632e-05 0)
(2.08138 0.000142522 0)
(2.06398 -0.00025594 0)
(2.05155 0.000578239 0)
(1.50358 -0.151268 0)
(0.874903 -0.183062 0)
(2.14043 -2.98448e-06 0)
(2.13077 1.03856e-05 0)
(2.12016 -2.26296e-05 0)
(2.10847 4.47386e-05 0)
(2.09547 -7.52741e-05 0)
(2.08137 0.000138751 0)
(2.06398 -0.000246713 0)
(2.05159 0.000584226 0)
(1.47843 -0.149519 0)
(0.859472 -0.1818 0)
(2.14043 -2.82167e-06 0)
(2.13077 9.91669e-06 0)
(2.12016 -2.15514e-05 0)
(2.10846 4.29512e-05 0)
(2.09547 -7.19479e-05 0)
(2.08137 0.000133993 0)
(2.06397 -0.000235062 0)
(2.05162 0.000584851 0)
(1.45505 -0.146942 0)
(0.842352 -0.179571 0)
(2.14043 -2.64295e-06 0)
(2.13077 9.38254e-06 0)
(2.12016 -2.03344e-05 0)
(2.10846 4.08694e-05 0)
(2.09547 -6.81628e-05 0)
(2.08136 0.000128176 0)
(2.06397 -0.000220931 0)
(2.05165 0.000589404 0)
(1.43307 -0.14393 0)
(0.823357 -0.176296 0)
(2.14043 -2.44842e-06 0)
(2.13077 8.77995e-06 0)
(2.12016 -1.8973e-05 0)
(2.10846 3.84658e-05 0)
(2.09547 -6.389e-05 0)
(2.08136 0.000121289 0)
(2.06397 -0.000204301 0)
(2.05169 0.000579154 0)
(1.41194 -0.14044 0)
(0.801854 -0.171349 0)
(2.14043 -2.23851e-06 0)
(2.13077 8.10709e-06 0)
(2.12016 -1.74659e-05 0)
(2.10846 3.57215e-05 0)
(2.09547 -5.91083e-05 0)
(2.08135 0.000113263 0)
(2.06397 -0.000185508 0)
(2.05173 0.000564192 0)
(1.39068 -0.136505 0)
(0.776607 -0.164625 0)
(2.14043 -2.01395e-06 0)
(2.13077 7.36352e-06 0)
(2.12016 -1.58144e-05 0)
(2.10846 3.262e-05 0)
(2.09548 -5.37853e-05 0)
(2.08135 0.000104054 0)
(2.06397 -0.000165294 0)
(2.05181 0.000536208 0)
(1.36787 -0.131771 0)
(0.7463 -0.155384 0)
(2.14043 -1.77575e-06 0)
(2.13077 6.55081e-06 0)
(2.12016 -1.40251e-05 0)
(2.10845 2.91663e-05 0)
(2.09548 -4.7964e-05 0)
(2.08134 9.3994e-05 0)
(2.06397 -0.000145577 0)
(2.05194 0.000488375 0)
(1.34172 -0.125517 0)
(0.709324 -0.143529 0)
(2.14043 -1.52524e-06 0)
(2.13077 5.67249e-06 0)
(2.12016 -1.21079e-05 0)
(2.10845 2.53633e-05 0)
(2.09548 -4.15625e-05 0)
(2.08133 8.21792e-05 0)
(2.06397 -0.000124698 0)
(2.05215 0.000429177 0)
(1.31106 -0.117133 0)
(0.664387 -0.129547 0)
(2.14043 -1.26394e-06 0)
(2.13077 4.73428e-06 0)
(2.12016 -1.00772e-05 0)
(2.10845 2.12495e-05 0)
(2.09548 -3.47555e-05 0)
(2.08133 7.01921e-05 0)
(2.06396 -0.000109449 0)
(2.05233 0.000364147 0)
(1.27755 -0.104399 0)
(0.61137 -0.111554 0)
(2.14043 -9.93629e-07 0)
(2.13077 3.74393e-06 0)
(2.12016 -7.9502e-06 0)
(2.10845 1.68626e-05 0)
(2.09548 -2.75389e-05 0)
(2.08132 5.66802e-05 0)
(2.06395 -8.77989e-05 0)
(2.05241 0.00021918 0)
(1.24543 -0.0875293 0)
(0.549135 -0.0929259 0)
(2.14043 -7.16196e-07 0)
(2.13077 2.71099e-06 0)
(2.12016 -5.746e-06 0)
(2.10845 1.22459e-05 0)
(2.09548 -1.99559e-05 0)
(2.08132 4.17636e-05 0)
(2.06394 -6.61491e-05 0)
(2.05241 0.000159038 0)
(1.21832 -0.0663115 0)
(0.48672 -0.0711693 0)
(2.14043 -4.34135e-07 0)
(2.13077 1.64806e-06 0)
(2.12016 -3.48563e-06 0)
(2.10845 7.45453e-06 0)
(2.09548 -1.21342e-05 0)
(2.08132 2.57319e-05 0)
(2.06393 -4.15362e-05 0)
(2.05239 9.40773e-05 0)
(1.20224 -0.0389342 0)
(0.432839 -0.049891 0)
(2.14043 -1.5047e-07 0)
(2.13077 5.71985e-07 0)
(2.12016 -1.20807e-06 0)
(2.10845 2.6192e-06 0)
(2.09548 -4.23461e-06 0)
(2.08132 9.23761e-06 0)
(2.06392 -1.43535e-05 0)
(2.05238 3.01053e-05 0)
(1.2015 -0.0123848 0)
(0.396582 -0.0205645 0)
(0.920394 -0.172219 0)
(0.928966 -0.172605 0)
(0.934982 -0.174947 0)
(0.944 -0.176439 0)
(0.954802 -0.179017 0)
(0.969637 -0.180763 0)
(0.987813 -0.18187 0)
(1.01126 -0.181964 0)
(1.04137 -0.180785 0)
(1.07643 -0.174812 0)
(0.914118 -0.174715 0)
(0.922653 -0.17557 0)
(0.928602 -0.178501 0)
(0.937995 -0.180477 0)
(0.949175 -0.183769 0)
(0.965054 -0.186392 0)
(0.98424 -0.18807 0)
(1.00937 -0.188685 0)
(1.04101 -0.187251 0)
(1.07823 -0.180618 0)
(0.906732 -0.177048 0)
(0.915197 -0.178428 0)
(0.921088 -0.182017 0)
(0.930966 -0.184598 0)
(0.942616 -0.188971 0)
(0.959151 -0.191523 0)
(0.979254 -0.194181 0)
(1.00627 -0.19544 0)
(1.0395 -0.19384 0)
(1.07966 -0.186857 0)
(0.897913 -0.178944 0)
(0.906312 -0.180858 0)
(0.912034 -0.185134 0)
(0.922339 -0.188416 0)
(0.934362 -0.193724 0)
(0.952031 -0.196915 0)
(0.973163 -0.200394 0)
(1.0025 -0.202703 0)
(1.03757 -0.201145 0)
(1.08082 -0.193742 0)
(0.887492 -0.180315 0)
(0.895845 -0.182892 0)
(0.901368 -0.188056 0)
(0.912189 -0.192176 0)
(0.924712 -0.198697 0)
(0.943466 -0.202322 0)
(0.965874 -0.207262 0)
(0.997297 -0.210384 0)
(1.03414 -0.208817 0)
(1.08151 -0.201355 0)
(0.875349 -0.181195 0)
(0.883658 -0.184516 0)
(0.888988 -0.190694 0)
(0.900418 -0.195729 0)
(0.913384 -0.203467 0)
(0.933313 -0.207942 0)
(0.957038 -0.21484 0)
(0.990349 -0.218164 0)
(1.0296 -0.217309 0)
(1.08222 -0.210048 0)
(0.861307 -0.181239 0)
(0.869586 -0.185425 0)
(0.874726 -0.192814 0)
(0.886834 -0.19897 0)
(0.900171 -0.208198 0)
(0.921263 -0.213912 0)
(0.946228 -0.223069 0)
(0.982014 -0.227464 0)
(1.02413 -0.22667 0)
(1.08269 -0.219551 0)
(0.845106 -0.180521 0)
(0.853441 -0.185699 0)
(0.858384 -0.194541 0)
(0.871183 -0.202132 0)
(0.88481 -0.21317 0)
(0.907163 -0.220564 0)
(0.933522 -0.232209 0)
(0.971945 -0.237233 0)
(1.01803 -0.236895 0)
(1.08354 -0.229822 0)
(0.826444 -0.178732 0)
(0.834899 -0.185081 0)
(0.839573 -0.195674 0)
(0.853068 -0.205063 0)
(0.866991 -0.218273 0)
(0.890867 -0.22756 0)
(0.918927 -0.2416 0)
(0.960328 -0.247049 0)
(1.0113 -0.247967 0)
(1.08469 -0.240905 0)
(0.804936 -0.175984 0)
(0.813608 -0.183825 0)
(0.817994 -0.196581 0)
(0.8324 -0.208 0)
(0.846836 -0.223579 0)
(0.872664 -0.234773 0)
(0.902815 -0.250978 0)
(0.947436 -0.257042 0)
(1.00381 -0.260099 0)
(1.08533 -0.252816 0)
(0.77988 -0.171714 0)
(0.789059 -0.18134 0)
(0.793276 -0.19665 0)
(0.809036 -0.210287 0)
(0.824217 -0.228409 0)
(0.85225 -0.241542 0)
(0.884675 -0.259822 0)
(0.932622 -0.267044 0)
(0.994553 -0.272758 0)
(1.08466 -0.265493 0)
(0.750115 -0.165982 0)
(0.760495 -0.177589 0)
(0.76491 -0.195748 0)
(0.782624 -0.211492 0)
(0.798763 -0.232249 0)
(0.829147 -0.247743 0)
(0.864014 -0.268424 0)
(0.915263 -0.277436 0)
(0.982912 -0.286708 0)
(1.08344 -0.279972 0)
(0.714308 -0.158295 0)
(0.726835 -0.172181 0)
(0.731855 -0.193807 0)
(0.752113 -0.212158 0)
(0.769432 -0.235872 0)
(0.802078 -0.253769 0)
(0.83933 -0.276668 0)
(0.893807 -0.288015 0)
(0.96758 -0.302077 0)
(1.08017 -0.296234 0)
(0.671118 -0.148181 0)
(0.686485 -0.164295 0)
(0.692422 -0.189289 0)
(0.71574 -0.209743 0)
(0.734486 -0.236404 0)
(0.769409 -0.257683 0)
(0.809266 -0.283459 0)
(0.867214 -0.29857 0)
(0.94747 -0.318609 0)
(1.07211 -0.313449 0)
(0.62007 -0.13621 0)
(0.638435 -0.155151 0)
(0.645474 -0.185289 0)
(0.672858 -0.208838 0)
(0.694478 -0.238241 0)
(0.732146 -0.261933 0)
(0.775103 -0.289957 0)
(0.836327 -0.309343 0)
(0.922094 -0.335157 0)
(1.05824 -0.331086 0)
(0.564035 -0.121261 0)
(0.588134 -0.139865 0)
(0.596718 -0.173756 0)
(0.628619 -0.202794 0)
(0.654168 -0.237154 0)
(0.694609 -0.265667 0)
(0.74104 -0.296997 0)
(0.805152 -0.321454 0)
(0.895518 -0.35342 0)
(1.04057 -0.35266 0)
(0.509072 -0.121644 0)
(0.540401 -0.146936 0)
(0.551053 -0.184973 0)
(0.587211 -0.213312 0)
(0.619009 -0.248309 0)
(0.663112 -0.27826 0)
(0.713261 -0.310775 0)
(0.779902 -0.339118 0)
(0.872864 -0.376263 0)
(1.02516 -0.382073 0)
(0.450327 -0.104297 0)
(0.495271 -0.131165 0)
(0.511675 -0.178445 0)
(0.551958 -0.218723 0)
(0.59144 -0.259928 0)
(0.640305 -0.295267 0)
(0.695619 -0.331182 0)
(0.765194 -0.364142 0)
(0.858333 -0.404804 0)
(1.01337 -0.419865 0)
(0.388973 -0.114564 0)
(0.455398 -0.14942 0)
(0.487367 -0.208876 0)
(0.536724 -0.254416 0)
(0.581941 -0.29395 0)
(0.6305 -0.325257 0)
(0.68296 -0.356067 0)
(0.748509 -0.386119 0)
(0.836197 -0.426328 0)
(0.985721 -0.45683 0)
(0.354967 -0.0822973 0)
(0.446026 -0.130804 0)
(0.49568 -0.203009 0)
(0.54849 -0.254366 0)
(0.592797 -0.295258 0)
(0.637672 -0.326864 0)
(0.686247 -0.357296 0)
(0.748592 -0.386727 0)
(0.8348 -0.429393 0)
(0.989085 -0.470999 0)
(1.16931 -0.145169 0)
(1.30835 -0.0662579 0)
(1.43349 0.0412021 0)
(1.5349 0.161024 0)
(1.61228 0.2855 0)
(1.6613 0.391625 0)
(1.67311 0.3784 0)
(1.60721 0.218394 0)
(1.52735 0.0500797 0)
(1.54086 -0.0238803 0)
(1.17673 -0.149257 0)
(1.32154 -0.0653139 0)
(1.44968 0.048374 0)
(1.55042 0.174227 0)
(1.62541 0.306319 0)
(1.66415 0.398473 0)
(1.67011 0.374423 0)
(1.5898 0.192539 0)
(1.51976 0.0448969 0)
(1.5378 -0.0220821 0)
(1.18445 -0.153479 0)
(1.33582 -0.0636986 0)
(1.46649 0.0559524 0)
(1.56719 0.189943 0)
(1.63704 0.324026 0)
(1.66671 0.405348 0)
(1.66419 0.366773 0)
(1.57064 0.169736 0)
(1.51413 0.0416328 0)
(1.53581 -0.0194894 0)
(1.19251 -0.15796 0)
(1.35093 -0.0619555 0)
(1.48452 0.0657143 0)
(1.58376 0.20671 0)
(1.64921 0.341654 0)
(1.66957 0.412655 0)
(1.65706 0.357131 0)
(1.54844 0.146807 0)
(1.50769 0.0381875 0)
(1.53274 -0.017863 0)
(1.20134 -0.162869 0)
(1.36744 -0.059636 0)
(1.50313 0.077241 0)
(1.5999 0.221021 0)
(1.66143 0.362272 0)
(1.67024 0.41758 0)
(1.64768 0.342877 0)
(1.53013 0.129387 0)
(1.50122 0.0355773 0)
(1.52791 -0.0162966 0)
(1.2112 -0.168109 0)
(1.3856 -0.0562276 0)
(1.52192 0.088545 0)
(1.61811 0.239496 0)
(1.67321 0.388629 0)
(1.67041 0.419329 0)
(1.63654 0.324434 0)
(1.50601 0.111921 0)
(1.49552 0.0343133 0)
(1.52366 -0.0129774 0)
(1.22228 -0.173278 0)
(1.40498 -0.0523619 0)
(1.54184 0.100542 0)
(1.63577 0.262254 0)
(1.68089 0.406237 0)
(1.67099 0.420316 0)
(1.6222 0.301122 0)
(1.48983 0.0996326 0)
(1.49219 0.033131 0)
(1.51949 -0.0101845 0)
(1.23483 -0.178032 0)
(1.42602 -0.046414 0)
(1.56317 0.116834 0)
(1.65327 0.290773 0)
(1.68641 0.418606 0)
(1.67363 0.422114 0)
(1.60358 0.274173 0)
(1.47518 0.088578 0)
(1.49061 0.0334202 0)
(1.51531 -0.00724822 0)
(1.24886 -0.181935 0)
(1.44797 -0.0378857 0)
(1.58455 0.138145 0)
(1.66846 0.311754 0)
(1.69044 0.427126 0)
(1.67332 0.421953 0)
(1.58302 0.246036 0)
(1.46589 0.0795408 0)
(1.48968 0.0336028 0)
(1.51233 -0.00480541 0)
(1.2644 -0.185733 0)