/*--------------------------------*- C++ -*----------------------------------*\
  =========                 |
  \\      /  F ield         | OpenFOAM: The Open Source CFD Toolbox
   \\    /   O peration     | Website:  https://openfoam.org
    \\  /    A nd           | Version:  7
     \\/     M anipulation  |
\*---------------------------------------------------------------------------*/
FoamFile
{
    version     2.0;
    format      ascii;
    class       volVectorField;
    location    "0.1";
    object      U;
}
// * * * * * * * * * * * * * * * * * * * * * * * * * * * * * * * * * * * * * //

dimensions      [0 1 -1 0 0 0 0];

internalField   nonuniform List<vector> 
3225
(
(0.291789 0.118281 0)
(0.329303 0.117092 0)
(0.366367 0.128136 0)
(0.401832 0.129283 0)
(0.432996 0.13375 0)
(0.461141 0.136133 0)
(0.486681 0.139786 0)
(0.50993 0.144454 0)
(0.530618 0.150277 0)
(0.548603 0.155491 0)
(0.564551 0.16008 0)
(0.579042 0.164085 0)
(0.592435 0.167529 0)
(0.605017 0.170142 0)
(0.616951 0.17226 0)
(0.628312 0.174223 0)
(0.638964 0.175585 0)
(0.64897 0.177438 0)
(0.659446 0.180514 0)
(0.670016 0.179267 0)
(0.68103 0.186169 0)
(0.683287 0.199037 0)
(0.676779 0.210575 0)
(0.670856 0.215596 0)
(0.670428 0.217347 0)
(0.672842 0.215717 0)
(0.678239 0.212198 0)
(0.686731 0.20686 0)
(0.697925 0.200295 0)
(0.711557 0.193035 0)
(0.726515 0.184286 0)
(0.743878 0.176552 0)
(0.763288 0.171493 0)
(0.785755 0.171228 0)
(0.816602 0.175652 0)
(0.869008 0.176215 0)
(0.951242 0.153212 0)
(1.03638 0.0987152 0)
(1.07673 0.0520048 0)
(1.08771 0.0307129 0)
(1.09167 0.0205211 0)
(1.09404 0.0138399 0)
(1.09601 0.00894428 0)
(1.09732 0.00576647 0)
(1.09822 0.00374566 0)
(1.09878 0.00256005 0)
(1.09916 0.00185865 0)
(1.09946 0.0014135 0)
(1.09968 0.0011023 0)
(1.09982 0.000819028 0)
(1.09989 0.000504994 0)
(1.09995 0.000296984 0)
(1.09997 0.000164033 0)
(1.09999 8.10734e-05 0)
(1.1 3.29772e-05 0)
(1.1 8.81527e-06 0)
(1.1 8.88782e-07 0)
(1.1 1.64985e-09 0)
(1.1 -2.86819e-09 0)
(1.1 -3.97425e-10 0)
(1.1 -6.07076e-12 0)
(1.1 -7.20827e-15 0)
(1.1 1.40787e-15 0)
(1.1 1.47283e-15 0)
(1.1 2.40779e-15 0)
(1.1 2.60591e-15 0)
(1.1 2.20855e-15 0)
(1.1 1.35643e-15 0)
(1.1 1.51073e-15 0)
(1.1 1.25488e-15 0)
(1.1 1.23962e-15 0)
(1.1 2.63584e-16 0)
(1.1 1.97057e-16 0)
(1.1 7.8473e-16 0)
(1.1 3.62273e-16 0)
(1.1 -5.84775e-16 0)
(1.1 -5.002e-16 0)
(1.1 -5.70039e-16 0)
(1.1 -1.48317e-15 0)
(1.1 -1.7569e-15 0)
(1.1 -1.25855e-15 0)
(1.1 -9.96098e-16 0)
(1.1 -1.11744e-15 0)
(1.1 -2.31487e-17 0)
(1.1 -1.82965e-16 0)
(1.1 3.03264e-16 0)
(1.1 1.01676e-15 0)
(1.1 1.64972e-16 0)
(1.1 1.17575e-16 0)
(1.1 -8.75978e-17 0)
(1.1 -3.48779e-16 0)
(1.1 -5.13335e-17 0)
(1.1 -1.4655e-16 0)
(1.1 -9.96578e-16 0)
(1.1 -1.05778e-15 0)
(1.1 -6.59404e-16 0)
(1.1 -5.29719e-16 0)
(1.1 -3.65002e-16 0)
(1.1 -5.08307e-16 0)
(1.1 -3.26695e-16 0)
(1.1 -8.49575e-16 0)
(1.1 2.00266e-16 0)
(1.1 5.61719e-16 0)
(1.1 4.54283e-16 0)
(1.1 7.65251e-16 0)
(1.1 1.53792e-15 0)
(1.1 1.65444e-15 0)
(1.1 8.02876e-16 0)
(1.1 4.76184e-16 0)
(1.1 9.10403e-17 0)
(1.1 -1.17054e-15 0)
(1.1 -1.61609e-15 0)
(1.1 -5.86001e-16 0)
(1.1 -7.57272e-16 0)
(1.1 -5.61283e-16 0)
(1.1 -1.50946e-15 0)
(1.1 -1.905e-15 0)
(1.1 -1.45066e-15 0)
(1.1 -9.81343e-16 0)
(1.1 -1.32763e-15 0)
(1.1 -4.04591e-16 0)
(1.1 4.20011e-16 0)
(1.1 1.01663e-15 0)
(1.1 -1.44223e-15 0)
(1.1 -1.04948e-17 0)
(1.1 6.4567e-16 0)
(1.1 -9.92262e-16 0)
(1.1 -2.53053e-17 0)
(1.1 5.19824e-16 0)
(1.1 -5.41378e-16 0)
(1.1 2.07791e-16 0)
(1.1 4.77818e-16 0)
(1.1 -9.00181e-16 0)
(1.1 1.14862e-16 0)
(1.1 8.60456e-17 0)
(1.1 -1.80243e-16 0)
(1.1 -5.27438e-17 0)
(1.1 -3.09007e-17 0)
(1.1 -5.97681e-16 0)
(1.05283 0.00318684 0)
(0.67327 0.0272149 0)
(0.340761 0.0401518 0)
(1.1 9.21228e-16 0)
(1.1 4.52974e-16 0)
(1.1 -8.00979e-16 0)
(1.1 -5.86529e-16 0)
(1.1 2.25331e-17 0)
(1.1 2.39752e-16 0)
(1.1 8.06352e-16 0)
(1.1 -5.6625e-16 0)
(1.1 -6.26344e-16 0)
(1.1 1.80856e-16 0)
(1.1 -1.62716e-15 0)
(1.1 7.53049e-17 0)
(1.1 -1.429e-16 0)
(1.1 -7.06343e-17 0)
(1.1 5.23461e-16 0)
(1.1 -7.35719e-17 0)
(1.1 -3.05437e-16 0)
(1.1 -7.8312e-16 0)
(1.1 -1.46218e-16 0)
(1.1 -6.62155e-16 0)
(1.1 6.1447e-17 0)
(1.1 2.82253e-16 0)
(1.1 -1.1946e-15 0)
(1.05462 0.00518902 0)
(0.683302 0.0425167 0)
(0.369587 0.0618202 0)
(1.1 -4.47647e-16 0)
(1.1 9.32789e-16 0)
(1.1 3.65994e-16 0)
(1.1 1.21594e-16 0)
(1.1 4.22137e-16 0)
(1.1 -4.90622e-16 0)
(1.1 -5.79735e-16 0)
(1.1 -1.22923e-16 0)
(1.1 -6.85963e-16 0)
(1.1 7.89181e-17 0)
(1.1 -4.19635e-16 0)
(1.1 8.58536e-17 0)
(1.1 -3.48364e-16 0)
(1.1 -7.69397e-17 0)
(1.1 9.36494e-16 0)
(1.1 4.35298e-16 0)
(1.1 4.46498e-16 0)
(1.1 -6.26767e-16 0)
(1.1 -6.83328e-16 0)
(1.1 -1.1003e-15 0)
(1.1 2.83188e-16 0)
(1.1 1.37143e-16 0)
(1.1 -7.30797e-16 0)
(1.05702 0.00700164 0)
(0.693404 0.0568051 0)
(0.398205 0.082019 0)
(1.1 -1.27278e-16 0)
(1.1 6.79551e-16 0)
(1.1 1.25815e-15 0)
(1.1 1.11226e-15 0)
(1.1 4.34873e-16 0)
(1.1 -3.74918e-16 0)
(1.1 -1.08438e-15 0)
(1.1 -1.12641e-16 0)
(1.1 -3.92622e-16 0)
(1.1 1.09197e-15 0)
(1.1 6.3897e-17 0)
(1.1 -5.32105e-16 0)
(1.1 9.14758e-16 0)
(1.1 8.70259e-16 0)
(1.1 1.02747e-15 0)
(1.1 9.84193e-16 0)
(1.1 7.13804e-16 0)
(1.1 -5.49335e-16 0)
(1.1 -6.66653e-16 0)
(1.1 -1.32205e-15 0)
(1.1 -8.57934e-17 0)
(1.1 -9.88608e-17 0)
(1.1 1.61518e-16 0)
(1.06001 0.00860907 0)
(0.704996 0.069346 0)
(0.427122 0.0978456 0)
(1.1 -1.77065e-16 0)
(1.1 -1.02441e-16 0)
(1.1 8.03183e-16 0)
(1.1 1.93334e-15 0)
(1.1 3.26741e-16 0)
(1.1 2.09204e-16 0)
(1.1 -7.74141e-16 0)
(1.1 -1.82944e-16 0)
(1.1 -8.2665e-16 0)
(1.1 1.20368e-15 0)
(1.1 9.58798e-16 0)
(1.1 -5.79077e-16 0)
(1.1 6.85839e-16 0)
(1.1 1.19262e-15 0)
(1.1 1.28841e-15 0)
(1.1 6.50537e-16 0)
(1.1 1.213e-15 0)
(1.1 -7.44014e-16 0)
(1.1 -1.81983e-15 0)
(1.1 -1.65772e-15 0)
(1.1 -7.08375e-16 0)
(1.1 -6.91789e-16 0)
(1.1 6.27537e-17 0)
(1.06357 0.00991881 0)
(0.71819 0.0802055 0)
(0.454946 0.111555 0)
(1.1 -6.34657e-16 0)
(1.1 -2.67237e-16 0)
(1.1 -8.14023e-16 0)
(1.1 1.57003e-15 0)
(1.1 1.16421e-15 0)
(1.1 8.36372e-16 0)
(1.1 -6.07394e-16 0)
(1.1 -9.73044e-16 0)
(1.1 -7.54645e-16 0)
(1.1 7.34742e-16 0)
(1.1 1.25067e-15 0)
(1.1 4.80233e-17 0)
(1.1 8.4679e-16 0)
(1.1 1.52583e-15 0)
(1.1 1.78605e-15 0)
(1.1 8.72916e-16 0)
(1.1 6.99841e-16 0)
(1.1 -5.94927e-16 0)
(1.1 -2.26508e-15 0)
(1.1 -1.78419e-15 0)
(1.1 -3.635e-16 0)
(1.1 -2.15702e-16 0)
(1.1 3.36503e-16 0)
(1.06758 0.0108481 0)
(0.732442 0.0891734 0)
(0.481461 0.123093 0)
(1.1 -4.9903e-16 0)
(1.1 1.3126e-16 0)
(1.1 -5.66622e-16 0)
(1.1 7.8884e-16 0)
(1.1 1.27299e-15 0)
(1.1 6.9077e-16 0)
(1.1 -7.70926e-16 0)
(1.1 -1.17442e-15 0)
(1.1 -4.16758e-16 0)
(1.1 4.60869e-16 0)
(1.1 1.6048e-15 0)
(1.1 9.60022e-16 0)
(1.1 9.18168e-16 0)
(1.1 1.83664e-15 0)
(1.1 1.44075e-15 0)
(1.1 8.98507e-16 0)
(1.1 6.09104e-16 0)
(1.1 -1.07829e-16 0)
(1.1 -1.08644e-15 0)
(1.1 -1.4926e-15 0)
(1.1 -9.21191e-16 0)
(1.1 -1.45137e-16 0)
(1.1 -5.00254e-16 0)
(1.07181 0.0113911 0)
(0.747038 0.0965439 0)
(0.505962 0.133279 0)
(1.1 1.06836e-16 0)
(1.1 -6.84267e-16 0)
(1.1 -6.34372e-16 0)
(1.1 -2.06503e-16 0)
(1.1 9.89782e-16 0)
(1.1 -3.85705e-16 0)
(1.1 -4.59829e-16 0)
(1.1 -1.48259e-15 0)
(1.1 -6.27125e-16 0)
(1.1 1.15434e-16 0)
(1.1 2.38505e-15 0)
(1.1 1.46546e-15 0)
(1.1 2.59777e-16 0)
(1.1 1.01449e-15 0)
(1.1 1.88105e-15 0)
(1.1 1.39322e-15 0)
(1.1 2.68594e-16 0)
(1.1 4.80577e-16 0)
(1.1 -1.34523e-16 0)
(1.1 -1.19605e-15 0)
(1.1 -2.87806e-16 0)
(1.1 -5.49054e-16 0)
(1.1 -5.98799e-16 0)
(1.07612 0.0114876 0)
(0.76175 0.102454 0)
(0.527799 0.142121 0)
(1.1 2.00472e-16 0)
(1.1 -1.60431e-15 0)
(1.1 -1.27913e-15 0)
(1.1 3.41744e-16 0)
(1.1 6.61264e-16 0)
(1.1 -2.97217e-16 0)
(1.1 -1.69507e-16 0)
(1.1 -7.95152e-16 0)
(1.1 -8.9345e-16 0)
(1.1 8.31993e-16 0)
(1.1 2.52542e-15 0)
(1.1 1.04912e-15 0)
(1.1 -1.27879e-16 0)
(1.1 4.408e-16 0)
(1.1 3.07938e-15 0)
(1.1 1.70938e-15 0)
(1.1 2.58218e-16 0)
(1.1 8.3081e-16 0)
(1.1 7.00029e-16 0)
(1.1 -1.76084e-15 0)
(1.1 -2.45812e-16 0)
(1.1 -1.09945e-16 0)
(1.1 -1.02128e-16 0)
(1.08033 0.0110849 0)
(0.776617 0.107198 0)
(0.546735 0.149711 0)
(1.1 8.67068e-16 0)
(1.1 -5.72758e-16 0)
(1.1 -1.06903e-15 0)
(1.1 -5.04047e-17 0)
(1.1 9.94879e-16 0)
(1.1 -9.16415e-17 0)
(1.1 2.11257e-16 0)
(1.1 -1.24958e-15 0)
(1.1 -2.24346e-15 0)
(1.1 3.65817e-16 0)
(1.1 1.5086e-15 0)
(1.1 3.83657e-16 0)
(1.1 -3.80047e-16 0)
(1.1 6.02205e-16 0)
(1.1 1.91499e-15 0)
(1.1 1.96304e-15 0)
(1.1 9.64458e-16 0)
(1.1 1.0016e-15 0)
(1.1 7.98064e-16 0)
(1.1 -7.43169e-16 0)
(1.1 -3.99146e-16 0)
(1.1 -3.31631e-16 0)
(1.1 -4.15852e-16 0)
(1.08434 0.0103343 0)
(0.791804 0.110893 0)
(0.563428 0.15616 0)
(1.1 1.09173e-15 0)
(1.1 8.96697e-17 0)
(1.1 -7.11009e-16 0)
(1.1 -2.02263e-16 0)
(1.1 9.23397e-16 0)
(1.1 3.21375e-16 0)
(1.1 1.51564e-16 0)
(1.1 -1.40745e-15 0)
(1.1 -1.76977e-15 0)
(1.1 7.87971e-17 0)
(1.1 1.37787e-15 0)
(1.1 -2.37203e-16 0)
(1.1 -5.20416e-16 0)
(1.1 8.56125e-16 0)
(1.1 1.11369e-15 0)
(1.1 2.16814e-15 0)
(1.1 1.46117e-15 0)
(1.1 7.7825e-16 0)
(1.1 4.03745e-16 0)
(1.1 -4.3326e-17 0)
(1.1 2.32625e-16 0)
(1.1 1.7422e-16 0)
(1.1 -2.99933e-16 0)
(1.08801 0.00930212 0)
(0.807425 0.113667 0)
(0.578477 0.161691 0)
(1.1 -3.59606e-16 0)
(1.1 -4.84847e-16 0)
(1.1 2.48386e-16 0)
(1.1 4.43542e-16 0)
(1.1 6.79068e-17 0)
(1.1 9.25154e-17 0)
(1.1 1.17834e-16 0)
(1.1 -7.40344e-16 0)
(1.1 -8.06454e-16 0)
(1.1 7.17e-16 0)
(1.1 6.69943e-16 0)
(1.1 -9.74244e-16 0)
(1.1 -7.17191e-16 0)
(1.1 4.11794e-16 0)
(1.1 1.3445e-15 0)
(1.1 1.73858e-15 0)
(1.1 1.40962e-15 0)
(1.1 5.40339e-16 0)
(1.1 2.86154e-16 0)
(1.1 4.56852e-16 0)
(1.1 3.75708e-16 0)
(1.1 4.15672e-16 0)
(1.1 -7.69052e-16 0)
(1.09128 0.00804616 0)
(0.823584 0.115665 0)
(0.592342 0.16646 0)
(1.1 -1.22676e-15 0)
(1.1 -7.72971e-16 0)
(1.1 4.31533e-16 0)
(1.1 3.799e-16 0)
(1.1 2.05531e-16 0)
(1.1 1.8533e-16 0)
(1.1 1.19347e-15 0)
(1.1 -8.10079e-16 0)
(1.1 -2.80581e-16 0)
(1.1 1.4981e-16 0)
(1.1 -2.45582e-16 0)
(1.1 -1.96347e-16 0)
(1.1 -5.77538e-16 0)
(1.1 1.51727e-16 0)
(1.1 6.81946e-16 0)
(1.1 1.8618e-15 0)
(1.1 1.78917e-15 0)
(1.1 7.77076e-17 0)
(1.1 2.09641e-16 0)
(1.1 1.46997e-15 0)
(1.1 2.52667e-16 0)
(1.1 -1.4177e-16 0)
(1.1 -7.51415e-16 0)
(1.09408 0.00663454 0)
(0.840389 0.116869 0)
(0.605343 0.170627 0)
(1.1 -8.3319e-16 0)
(1.1 -6.37978e-17 0)
(1.1 1.34721e-16 0)
(1.1 7.85013e-16 0)
(1.1 2.79261e-16 0)
(1.1 5.70956e-16 0)
(1.1 1.41185e-15 0)
(1.1 5.08207e-16 0)
(1.1 -1.6326e-16 0)
(1.1 -1.20474e-15 0)
(1.1 -7.89219e-16 0)
(1.1 1.01244e-15 0)
(1.1 -5.37861e-16 0)
(1.1 5.13354e-16 0)
(1.1 3.40678e-16 0)
(1.1 1.49203e-15 0)
(1.1 1.42214e-15 0)
(1.1 -2.92542e-16 0)
(1.1 -2.56807e-16 0)
(1.1 1.07563e-15 0)
(1.1 -1.28099e-16 0)
(1.1 6.42292e-16 0)
(1.1 -2.40334e-16 0)
(1.09635 0.00515078 0)
(0.857907 0.117148 0)
(0.617778 0.173926 0)
(1.1 -4.17907e-16 0)
(1.1 4.58875e-16 0)
(1.1 2.64538e-16 0)
(1.1 7.08109e-16 0)
(1.1 2.0211e-16 0)
(1.1 1.36381e-15 0)
(1.1 1.05196e-15 0)
(1.1 7.2533e-16 0)
(1.1 1.52059e-16 0)
(1.1 -1.70896e-15 0)
(1.1 -6.65689e-16 0)
(1.1 1.15101e-15 0)
(1.1 -7.00248e-16 0)
(1.1 -2.42323e-16 0)
(1.1 4.03105e-16 0)
(1.1 1.35014e-15 0)
(1.1 9.60786e-16 0)
(1.1 1.38035e-16 0)
(1.1 -6.90547e-17 0)
(1.1 1.99132e-15 0)
(1.1 1.65059e-16 0)
(1.1 4.78999e-16 0)
(1.1 -1.49896e-16 0)
(1.09807 0.00368659 0)
(0.876189 0.116687 0)
(0.6298 0.17649 0)
(1.1 2.58046e-16 0)
(1.1 -6.20377e-16 0)
(1.1 6.03638e-16 0)
(1.1 -1.66504e-17 0)
(1.1 6.55791e-16 0)
(1.1 1.02456e-15 0)
(1.1 1.03228e-15 0)
(1.1 6.46556e-16 0)
(1.1 3.99338e-16 0)
(1.1 -1.63895e-15 0)
(1.1 -1.13803e-15 0)
(1.1 1.4226e-15 0)
(1.1 -1.23193e-15 0)
(1.1 -5.62358e-16 0)
(1.1 2.81939e-16 0)
(1.1 1.75318e-15 0)
(1.1 5.76715e-16 0)
(1.1 1.33414e-15 0)
(1.1 7.228e-16 0)
(1.1 1.88178e-15 0)
(1.1 2.74461e-16 0)
(1.1 1.13444e-16 0)
(1.1 -1.77386e-16 0)
(1.09922 0.00230829 0)
(0.89528 0.115686 0)
(0.641532 0.178921 0)
(1.1 2.18699e-16 0)
(1.1 -9.53423e-16 0)
(1.1 1.71407e-16 0)
(1.1 -1.54407e-16 0)
(1.1 1.57518e-15 0)
(1.1 5.77517e-16 0)
(1.1 1.01438e-15 0)
(1.1 2.22086e-16 0)
(1.1 4.28396e-16 0)
(1.1 -1.51886e-15 0)
(1.1 -1.19001e-15 0)
(1.1 3.27188e-16 0)
(1.1 -9.63028e-16 0)
(1.1 -5.81412e-16 0)
(1.1 6.71603e-16 0)
(1.1 5.30448e-16 0)
(1.1 2.93989e-16 0)
(1.1 1.75885e-15 0)
(1.1 1.00079e-15 0)
(1.1 1.57361e-15 0)
(1.1 1.47838e-16 0)
(1.1 2.12079e-16 0)
(1.1 -5.87598e-16 0)
(1.09982 0.00109143 0)
(0.915111 0.113614 0)
(0.653193 0.180625 0)
(1.1 -2.42175e-16 0)
(1.1 -3.30294e-16 0)
(1.1 2.88224e-16 0)
(1.1 6.12288e-16 0)
(1.1 1.45245e-15 0)
(1.1 7.51054e-16 0)
(1.1 1.35197e-15 0)
(1.1 9.76707e-16 0)
(1.1 1.32045e-16 0)
(1.1 -7.62804e-16 0)
(1.1 -6.60068e-16 0)
(1.1 -5.09907e-16 0)
(1.1 2.09989e-16 0)
(1.1 -1.11218e-15 0)
(1.1 1.15286e-15 0)
(1.1 1.00994e-15 0)
(1.1 6.11126e-16 0)
(1.1 9.93946e-16 0)
(1.1 7.24281e-16 0)
(1.1 1.62242e-15 0)
(1.1 4.40481e-16 0)
(1.1 4.17428e-16 0)
(1.1 -8.93955e-16 0)
(1.09998 0.000324159 0)
(0.935564 0.109968 0)
(0.664777 0.180903 0)
(1.1 9.65439e-17 0)
(1.1 9.63524e-17 0)
(1.1 8.09681e-16 0)
(1.1 4.21821e-16 0)
(1.1 5.48275e-16 0)
(1.1 1.53331e-15 0)
(1.1 9.22062e-16 0)
(1.1 1.1059e-15 0)
(1.1 -7.35522e-16 0)
(1.1 1.20782e-16 0)
(1.1 -7.37246e-16 0)
(1.1 -9.41298e-16 0)
(1.1 6.16492e-16 0)
(1.1 -6.83677e-16 0)
(1.1 8.02137e-16 0)
(1.1 5.9947e-16 0)
(1.1 3.24095e-16 0)
(1.1 7.15833e-16 0)
(1.1 5.59419e-16 0)
(1.1 1.01594e-15 0)
(1.1 4.25332e-16 0)
(1.1 2.14217e-17 0)
(1.1 -9.94336e-16 0)
(1.1 4.64431e-05 0)
(0.956925 0.106029 0)
(0.676138 0.181484 0)
(1.1 2.35002e-16 0)
(1.1 1.31151e-15 0)
(1.1 8.26978e-16 0)
(1.1 1.00886e-16 0)
(1.1 7.36626e-16 0)
(1.1 2.05816e-15 0)
(1.1 5.33774e-16 0)
(1.1 1.40281e-16 0)
(1.1 -7.71093e-16 0)
(1.1 1.15758e-16 0)
(1.1 -9.79e-16 0)
(1.1 -1.4642e-15 0)
(1.1 7.37573e-16 0)
(1.1 -2.50236e-16 0)
(1.1 8.45656e-16 0)
(1.1 -9.00161e-17 0)
(1.1 5.09422e-16 0)
(1.1 3.78964e-16 0)
(1.1 9.28613e-16 0)
(1.1 1.57918e-16 0)
(1.1 1.6065e-16 0)
(1.1 -7.04292e-16 0)
(1.1 -6.88256e-16 0)
(1.1 2.12492e-06 0)
(0.979003 0.102723 0)
(0.686676 0.182181 0)
(1.1 1.35281e-16 0)
(1.1 1.76248e-15 0)
(1.1 3.78387e-16 0)
(1.1 -1.82465e-16 0)
(1.1 1.14568e-15 0)
(1.1 2.98668e-15 0)
(1.1 3.93404e-16 0)
(1.1 4.57344e-16 0)
(1.1 -4.45054e-16 0)
(1.1 -6.85962e-18 0)
(1.1 -1.14237e-15 0)
(1.1 -1.0349e-15 0)
(1.1 6.36115e-17 0)
(1.1 -7.48241e-16 0)
(1.1 -3.51562e-16 0)
(1.1 -8.94535e-16 0)
(1.1 4.76316e-16 0)
(1.1 4.90167e-16 0)
(1.1 1.25949e-15 0)
(1.1 5.64001e-16 0)
(1.1 2.3605e-16 0)
(1.1 -1.00208e-15 0)
(1.1 -4.92604e-16 0)
(1.1 1.9737e-08 0)
(1.0014 0.0976437 0)
(0.695375 0.180456 0)
(1.1 -5.81512e-16 0)
(1.1 8.33166e-16 0)
(1.1 1.78171e-16 0)
(1.1 -2.56501e-16 0)
(1.1 4.84061e-16 0)
(1.1 2.09681e-15 0)
(1.1 -3.09393e-16 0)
(1.1 5.30193e-17 0)
(1.1 -7.01768e-16 0)
(1.1 -2.99528e-16 0)
(1.1 -1.65614e-16 0)
(1.1 -1.31816e-15 0)
(1.1 2.46136e-16 0)
(1.1 -4.05897e-16 0)
(1.1 -6.68877e-16 0)
(1.1 -1.29348e-15 0)
(1.1 -2.38532e-16 0)
(1.1 1.00875e-15 0)
(1.1 9.34302e-16 0)
(1.1 9.36911e-16 0)
(1.1 2.13671e-16 0)
(1.1 -3.15558e-16 0)
(1.1 -3.90882e-16 0)
(1.1 2.41987e-11 0)
(1.02258 0.0890499 0)
(0.706698 0.178121 0)
(1.1 -3.71299e-16 0)
(1.1 2.6074e-16 0)
(1.1 -3.44087e-16 0)
(1.1 -2.65505e-17 0)
(1.1 -5.34043e-16 0)
(1.1 1.74107e-15 0)
(1.1 9.33351e-18 0)
(1.1 -5.41111e-16 0)
(1.1 -1.59558e-15 0)
(1.1 1.01686e-15 0)
(1.1 -1.30384e-17 0)
(1.1 -9.68022e-16 0)
(1.1 8.87001e-16 0)
(1.1 2.94936e-16 0)
(1.1 1.19792e-15 0)
(1.1 -8.3678e-17 0)
(1.1 -1.36552e-15 0)
(1.1 1.35127e-15 0)
(1.1 3.8081e-16 0)
(1.1 2.36922e-16 0)
(1.1 -9.14551e-17 0)
(1.1 -3.03858e-16 0)
(1.1 -8.55235e-16 0)
(1.1 6.71153e-16 0)
(1.04083 0.0777891 0)
(0.721501 0.177149 0)
(1.1 7.56565e-16 0)
(1.1 7.01848e-17 0)
(1.1 -1.66601e-16 0)
(1.1 1.04983e-15 0)
(1.1 -8.53276e-16 0)
(1.1 8.25403e-16 0)
(1.1 -2.20834e-16 0)
(1.1 -1.10925e-15 0)
(1.1 -1.83079e-15 0)
(1.1 4.46396e-16 0)
(1.1 -2.49205e-16 0)
(1.1 -2.56991e-16 0)
(1.1 8.04695e-17 0)
(1.1 8.22744e-16 0)
(1.1 1.48095e-15 0)
(1.1 6.22679e-16 0)
(1.1 -1.0476e-15 0)
(1.1 8.99364e-16 0)
(1.1 1.042e-15 0)
(1.1 -3.56069e-16 0)
(1.1 2.4777e-16 0)
(1.1 -6.62023e-16 0)
(1.1 -1.33518e-15 0)
(1.1 -2.45417e-15 0)
(1.05579 0.0653303 0)
(0.738711 0.17761 0)
(1.1 1.20745e-15 0)
(1.1 2.11062e-16 0)
(1.1 -1.70577e-16 0)
(1.1 3.07632e-16 0)
(1.1 -7.09435e-16 0)
(1.1 2.74625e-16 0)
(1.1 -7.72453e-16 0)
(1.1 -1.54735e-15 0)
(1.1 -1.36309e-15 0)
(1.1 -4.17326e-16 0)
(1.1 -3.91453e-17 0)
(1.1 5.96124e-17 0)
(1.1 -4.0922e-16 0)
(1.1 7.65627e-16 0)
(1.1 1.55111e-16 0)
(1.1 1.08325e-15 0)
(1.1 -4.70471e-16 0)
(1.1 2.84618e-16 0)
(1.1 7.25964e-16 0)
(1.1 1.1259e-16 0)
(1.1 4.78421e-16 0)
(1.1 -1.81977e-16 0)
(1.1 -9.59336e-16 0)
(1.1 -1.94327e-15 0)
(1.06796 0.0527533 0)
(0.757716 0.177892 0)
(1.1 9.9808e-16 0)
(1.1 6.72543e-16 0)
(1.1 3.22203e-16 0)
(1.1 -5.40153e-16 0)
(1.1 -1.43517e-16 0)
(1.1 -4.02078e-16 0)
(1.1 -6.23334e-16 0)
(1.1 -1.23782e-15 0)
(1.1 -1.25874e-15 0)
(1.1 2.03206e-16 0)
(1.1 -7.86352e-16 0)
(1.1 -4.75539e-17 0)
(1.1 -2.58082e-16 0)
(1.1 5.09907e-16 0)
(1.1 -6.49272e-16 0)
(1.1 7.96746e-16 0)
(1.1 -1.79131e-17 0)
(1.1 -5.7056e-16 0)
(1.1 2.23816e-16 0)
(1.1 2.55476e-16 0)
(1.1 6.77785e-16 0)
(1.1 1.2361e-16 0)
(1.1 -6.65166e-16 0)
(1.1 -1.19371e-15 0)
(1.07766 0.0408843 0)
(0.77901 0.177467 0)
(1.1 7.93807e-16 0)
(1.1 1.10104e-15 0)
(1.1 4.09612e-16 0)
(1.1 -1.78115e-16 0)
(1.1 2.11601e-16 0)
(1.1 -1.09159e-15 0)
(1.1 -3.81388e-16 0)
(1.1 -1.21565e-16 0)
(1.1 1.37018e-16 0)
(1.1 7.91359e-16 0)
(1.1 -5.2519e-16 0)
(1.1 -2.90747e-16 0)
(1.1 1.42412e-16 0)
(1.1 4.61693e-16 0)
(1.1 -4.43982e-16 0)
(1.1 7.48101e-16 0)
(1.1 2.05478e-16 0)
(1.1 -7.51111e-16 0)
(1.1 3.15461e-16 0)
(1.1 -3.14763e-16 0)
(1.1 8.84648e-16 0)
(1.1 7.81592e-17 0)
(1.1 -5.85436e-17 0)
(1.1 -9.88977e-16 0)
(1.0852 0.0303605 0)
(0.802642 0.176225 0)
(1.1 1.3925e-15 0)
(1.1 1.18026e-15 0)
(1.1 5.23681e-16 0)
(1.1 -3.98296e-16 0)
(1.1 -3.09727e-16 0)
(1.1 -1.1733e-15 0)
(1.1 -9.95422e-16 0)
(1.1 -6.21345e-16 0)
(1.1 3.59456e-16 0)
(1.1 1.03719e-15 0)
(1.1 -8.3149e-16 0)
(1.1 -7.30972e-16 0)
(1.1 -1.63431e-16 0)
(1.1 7.92646e-16 0)
(1.1 -6.78473e-16 0)
(1.1 4.61391e-16 0)
(1.1 -2.39463e-18 0)
(1.1 -8.52515e-16 0)
(1.1 -6.52936e-16 0)
(1.1 -4.83803e-16 0)
(1.1 1.32019e-16 0)
(1.1 1.74192e-16 0)
(1.1 5.69209e-16 0)
(1.1 -2.98499e-16 0)
(1.09086 0.021528 0)
(0.828265 0.174035 0)
(1.1 7.8065e-16 0)
(1.1 -1.08392e-16 0)
(1.1 8.5401e-16 0)
(1.1 -7.45585e-16 0)
(1.1 -1.42236e-15 0)
(1.1 -8.34882e-16 0)
(1.1 -8.98799e-16 0)
(1.1 -7.51396e-16 0)
(1.1 -1.11368e-15 0)
(1.1 3.68072e-16 0)
(1.1 -1.52394e-15 0)
(1.1 -1.33265e-15 0)
(1.1 -4.17531e-16 0)
(1.1 7.4308e-16 0)
(1.1 -4.39024e-16 0)
(1.1 7.652e-17 0)
(1.1 -2.72822e-17 0)
(1.1 -7.62223e-16 0)
(1.1 -9.29182e-16 0)
(1.1 -1.01273e-15 0)
(1.1 -4.40504e-16 0)
(1.1 7.17692e-16 0)
(1.1 6.70111e-16 0)
(1.1 -5.88695e-16 0)
(1.09484 0.0143938 0)
(0.855651 0.170633 0)
(1.1 5.35983e-17 0)
(1.1 -4.36494e-16 0)
(1.1 4.40183e-16 0)
(1.1 -3.20148e-16 0)
(1.1 -1.08183e-15 0)
(1.1 -6.84098e-16 0)
(1.1 -1.83456e-15 0)
(1.1 -6.0794e-16 0)
(1.1 -1.61669e-15 0)
(1.1 -4.78481e-17 0)
(1.1 -1.21248e-15 0)
(1.1 -1.44133e-15 0)
(1.1 -1.42771e-16 0)
(1.1 -1.66258e-16 0)
(1.1 -6.98046e-16 0)
(1.1 -1.92475e-16 0)
(1.1 3.60162e-16 0)
(1.1 -1.82314e-16 0)
(1.1 -9.95725e-16 0)
(1.1 -1.60222e-15 0)
(1.1 -2.19308e-16 0)
(1.1 8.3154e-16 0)
(1.1 2.61189e-16 0)
(1.1 -9.31203e-16 0)
(1.09733 0.0087843 0)
(0.884819 0.166059 0)
(1.1 1.11339e-15 0)
(1.1 -1.04209e-16 0)
(1.1 -5.07271e-17 0)
(1.1 -6.66581e-16 0)
(1.1 -1.24397e-15 0)
(1.1 -7.77722e-17 0)
(1.1 -1.78116e-15 0)
(1.1 2.00708e-16 0)
(1.1 -5.99082e-16 0)
(1.1 3.50098e-16 0)
(1.1 -7.20871e-16 0)
(1.1 -6.82649e-16 0)
(1.1 -2.90667e-16 0)
(1.1 -1.09618e-15 0)
(1.1 -7.9611e-16 0)
(1.1 -7.6838e-16 0)
(1.1 4.98742e-16 0)
(1.1 1.54327e-16 0)
(1.1 -1.5567e-15 0)
(1.1 -1.34118e-15 0)
(1.1 -4.10412e-16 0)
(1.1 7.50383e-16 0)
(1.1 -2.97802e-17 0)
(1.1 -1.05155e-15 0)
(1.0986 0.0048733 0)
(0.91541 0.160087 0)
(1.1 1.46114e-15 0)
(1.1 -3.54452e-16 0)
(1.1 6.08782e-17 0)
(1.1 -4.76493e-16 0)
(1.1 -1.46695e-15 0)
(1.1 -6.58908e-16 0)
(1.1 -1.59319e-15 0)
(1.1 -8.88004e-17 0)
(1.1 -1.80869e-16 0)
(1.1 -3.22163e-16 0)
(1.1 -5.87515e-17 0)
(1.1 -2.23487e-16 0)
(1.1 3.56603e-16 0)
(1.1 -1.33652e-15 0)
(1.1 -4.86125e-16 0)
(1.1 -4.13285e-16 0)
(1.1 7.39143e-16 0)
(1.1 -4.20019e-16 0)
(1.1 -1.21508e-15 0)
(1.1 -7.12613e-16 0)
(1.1 -7.16973e-16 0)
(1.1 3.00649e-17 0)
(1.1 -6.00722e-16 0)
(1.1 -1.03121e-15 0)
(1.09928 0.00249617 0)
(0.946272 0.15184 0)
(1.1 1.31556e-15 0)
(1.1 3.62623e-16 0)
(1.1 3.49825e-16 0)
(1.1 8.24044e-17 0)
(1.1 -1.87529e-15 0)
(1.1 -1.41752e-15 0)
(1.1 -1.118e-15 0)
(1.1 -3.15934e-16 0)
(1.1 4.30156e-16 0)
(1.1 -1.12451e-15 0)
(1.1 9.41604e-16 0)
(1.1 -3.22611e-17 0)
(1.1 1.13601e-15 0)
(1.1 -1.18793e-15 0)
(1.1 -2.48238e-16 0)
(1.1 3.24379e-16 0)
(1.1 1.39415e-15 0)
(1.1 -6.77905e-16 0)
(1.1 -1.55538e-16 0)
(1.1 -4.0742e-16 0)
(1.1 -5.00063e-16 0)
(1.1 -7.77836e-16 0)
(1.1 -1.00698e-15 0)
(1.1 -9.10287e-16 0)
(1.09966 0.00118791 0)
(0.976052 0.141199 0)
(1.1 6.9255e-17 0)
(1.1 -2.82201e-17 0)
(1.1 2.91312e-16 0)
(1.1 1.62487e-16 0)
(1.1 -1.64483e-15 0)
(1.1 -8.45595e-16 0)
(1.1 -3.55287e-16 0)
(1.1 1.36797e-16 0)
(1.1 7.3167e-16 0)
(1.1 -1.84832e-15 0)
(1.1 8.27033e-16 0)
(1.1 2.38373e-16 0)
(1.1 6.03492e-16 0)
(1.1 -6.14511e-16 0)
(1.1 3.17542e-16 0)
(1.1 5.97046e-16 0)
(1.1 7.04625e-16 0)
(1.1 3.56808e-17 0)
(1.1 1.26888e-16 0)
(1.1 1.06407e-16 0)
(1.1 1.87187e-16 0)
(1.1 -7.83131e-16 0)
(1.1 -6.97047e-16 0)
(1.1 -7.55281e-16 0)
(1.09985 0.000526989 0)
(1.00352 0.128049 0)
(1.1 4.47509e-17 0)
(1.1 -6.33884e-16 0)
(1.1 3.00974e-16 0)
(1.1 3.12303e-16 0)
(1.1 -1.33898e-15 0)
(1.1 -7.38797e-16 0)
(1.1 1.26766e-16 0)
(1.1 4.02419e-16 0)
(1.1 -1.00362e-17 0)
(1.1 -1.16641e-15 0)
(1.1 8.02756e-16 0)
(1.1 5.2852e-16 0)
(1.1 6.14159e-17 0)
(1.1 7.24468e-16 0)
(1.1 1.34876e-15 0)
(1.1 8.51283e-16 0)
(1.1 5.68234e-16 0)
(1.1 -5.38054e-16 0)
(1.1 -2.9362e-16 0)
(1.1 3.28363e-16 0)
(1.1 -2.80524e-17 0)
(1.1 -4.11015e-16 0)
(1.1 -3.14895e-16 0)
(1.1 -1.83787e-16 0)
(1.09994 0.000217565 0)
(1.02761 0.112382 0)
(1.1 1.80543e-16 0)
(1.1 1.71053e-16 0)
(1.1 9.65205e-16 0)
(1.1 6.31461e-16 0)
(1.1 -1.01291e-15 0)
(1.1 -6.88055e-16 0)
(1.1 5.44968e-16 0)
(1.1 3.48288e-16 0)
(1.1 -6.99749e-16 0)
(1.1 -3.41802e-16 0)
(1.1 6.99261e-16 0)
(1.1 -3.01753e-16 0)
(1.1 -2.15816e-16 0)
(1.1 1.0191e-15 0)
(1.1 1.75542e-15 0)
(1.1 1.29774e-15 0)
(1.1 -4.90284e-16 0)
(1.1 -4.14143e-16 0)
(1.1 -1.75602e-16 0)
(1.1 2.11893e-16 0)
(1.1 -6.65486e-16 0)
(1.1 -9.93124e-16 0)
(1.1 -3.16327e-16 0)
(1.1 -2.04162e-16 0)
(1.09998 8.30043e-05 0)
(1.04725 0.0938075 0)
(1.1 -5.52169e-16 0)
(1.1 2.27114e-16 0)
(1.1 7.8647e-16 0)
(1.1 -2.56402e-16 0)
(1.1 -2.97959e-16 0)
(1.1 -8.53109e-16 0)
(1.1 2.8405e-16 0)
(1.1 -5.45452e-16 0)
(1.1 -5.14236e-16 0)
(1.1 -6.97886e-16 0)
(1.1 1.77332e-16 0)
(1.1 1.24959e-16 0)
(1.1 -3.10269e-17 0)
(1.1 8.1116e-16 0)
(1.1 1.61652e-15 0)
(1.1 1.01378e-15 0)
(1.1 -2.53353e-16 0)
(1.1 3.34077e-16 0)
(1.1 1.97231e-16 0)
(1.1 2.74827e-16 0)
(1.1 -9.04825e-16 0)
(1.1 -8.13861e-16 0)
(1.1 -6.22169e-17 0)
(1.1 -1.37205e-16 0)
(1.09999 2.86889e-05 0)
(1.06265 0.0725593 0)
(1.1 -1.12749e-15 0)
(1.1 -1.53053e-16 0)
(1.1 8.38324e-16 0)
(1.1 -5.64293e-18 0)
(1.1 4.48063e-16 0)
(1.1 -9.81761e-16 0)
(1.1 4.42015e-16 0)
(1.1 -7.13971e-16 0)
(1.1 2.44971e-16 0)
(1.1 2.00221e-17 0)
(1.1 3.32294e-16 0)
(1.1 8.83431e-16 0)
(1.1 -3.88632e-17 0)
(1.1 1.43502e-15 0)
(1.1 1.29938e-15 0)
(1.1 4.443e-16 0)
(1.1 6.23672e-16 0)
(1.1 5.3495e-16 0)
(1.1 -6.20684e-16 0)
(1.1 -1.30404e-16 0)
(1.1 -9.44662e-16 0)
(1.1 -7.05687e-16 0)
(1.1 -2.49558e-16 0)
(1.1 -3.8361e-16 0)
(1.1 8.4374e-06 0)
(1.07464 0.0517816 0)
(1.1 -6.10761e-16 0)
(1.1 -1.46247e-16 0)
(1.1 1.17119e-15 0)
(1.1 1.03307e-15 0)
(1.1 8.23329e-16 0)
(1.1 -2.69192e-16 0)
(1.1 3.17381e-16 0)
(1.1 1.91257e-17 0)
(1.1 6.75717e-16 0)
(1.1 -7.67354e-17 0)
(1.1 5.16331e-16 0)
(1.1 4.49812e-16 0)
(1.1 5.48623e-16 0)
(1.1 8.86562e-16 0)
(1.1 2.30219e-16 0)
(1.1 8.0333e-16 0)
(1.1 8.07756e-16 0)
(1.1 3.97533e-16 0)
(1.1 -7.59769e-16 0)
(1.1 -8.51373e-16 0)
(1.1 -3.23899e-16 0)
(1.1 -1.41673e-15 0)
(1.1 -5.88055e-16 0)
(1.1 -7.30582e-16 0)
(1.1 1.80907e-06 0)
(1.08343 0.0353092 0)
(1.1 -4.21525e-16 0)
(1.1 3.82308e-16 0)
(1.1 -1.64545e-16 0)
(1.1 1.09265e-15 0)
(1.1 7.19373e-16 0)
(1.1 2.05483e-16 0)
(1.1 1.12914e-16 0)
(1.1 1.09622e-16 0)
(1.1 1.24179e-15 0)
(1.1 5.27602e-16 0)
(1.1 4.30156e-16 0)
(1.1 1.15323e-15 0)
(1.1 1.09746e-15 0)
(1.1 1.05232e-15 0)
(1.1 2.79653e-16 0)
(1.1 5.99751e-16 0)
(1.1 3.62555e-16 0)
(1.1 -3.87178e-16 0)
(1.1 -7.81243e-16 0)
(1.1 -9.14983e-16 0)
(1.1 -3.76336e-16 0)
(1.1 -1.40042e-15 0)
(1.1 -3.61706e-16 0)
(1.1 -7.65403e-16 0)
(1.1 2.14289e-07 0)
(1.08929 0.0235816 0)
(1.1 -9.39065e-17 0)
(1.1 1.10905e-16 0)
(1.1 9.51938e-16 0)
(1.1 1.90714e-15 0)
(1.1 1.59464e-15 0)
(1.1 7.95908e-19 0)
(1.1 9.63097e-16 0)
(1.1 -1.2514e-17 0)
(1.1 1.03837e-15 0)
(1.1 8.46754e-16 0)
(1.1 3.23468e-16 0)
(1.1 2.26574e-15 0)
(1.1 1.29051e-15 0)
(1.1 1.1165e-15 0)
(1.1 -2.55463e-16 0)
(1.1 -2.16284e-16 0)
(1.1 -6.43435e-16 0)
(1.1 -3.7081e-16 0)
(1.1 -5.8154e-16 0)
(1.1 -9.50732e-16 0)
(1.1 -1.25313e-15 0)
(1.1 -1.23098e-15 0)
(1.1 -1.6154e-16 0)
(1.1 -4.69748e-16 0)
(1.1 9.56892e-09 0)
(1.09294 0.0155801 0)
(1.1 3.58085e-16 0)
(1.1 4.76145e-16 0)
(1.1 2.12229e-15 0)
(1.1 1.87721e-15 0)
(1.1 1.48094e-15 0)
(1.1 -2.35376e-16 0)
(1.1 1.0962e-15 0)
(1.1 4.86702e-16 0)
(1.1 7.47695e-16 0)
(1.1 5.13623e-16 0)
(1.1 5.614e-16 0)
(1.1 1.05846e-15 0)
(1.1 7.21925e-16 0)
(1.1 3.02045e-16 0)
(1.1 -5.89612e-16 0)
(1.1 -8.53071e-16 0)
(1.1 -9.48209e-16 0)
(1.1 1.54652e-16 0)
(1.1 3.50059e-16 0)
(1.1 -3.83532e-16 0)
(1.1 -1.23594e-15 0)
(1.1 -9.01789e-16 0)
(1.1 -2.45811e-16 0)
(1.1 -2.49397e-16 0)
(1.1 1.05304e-10 0)
(1.09536 0.0101456 0)
(1.1 -5.95967e-16 0)
(1.1 1.40085e-16 0)
(1.1 1.27712e-15 0)
(1.1 9.27776e-16 0)
(1.1 1.61257e-15 0)
(1.1 -5.95334e-16 0)
(1.1 4.25736e-16 0)
(1.1 2.15861e-16 0)
(1.1 4.56559e-16 0)
(1.1 -2.13023e-17 0)
(1.1 8.18322e-16 0)
(1.1 1.96412e-16 0)
(1.1 5.08655e-16 0)
(1.1 9.50792e-17 0)
(1.1 -4.2237e-16 0)
(1.1 -1.42178e-15 0)
(1.1 -5.37112e-16 0)
(1.1 -4.30721e-16 0)
(1.1 8.1347e-16 0)
(1.1 -5.4006e-16 0)
(1.1 -1.30644e-15 0)
(1.1 -1.18573e-15 0)
(1.1 -6.1468e-16 0)
(1.1 -7.56461e-16 0)
(1.1 1.90665e-13 0)
(1.09688 0.00659691 0)
(1.1 -8.97233e-16 0)
(1.1 7.61375e-18 0)
(1.1 -1.42221e-16 0)
(1.1 7.49667e-16 0)
(1.1 1.46215e-15 0)
(1.1 -4.48653e-16 0)
(1.1 9.37228e-16 0)
(1.1 6.38873e-16 0)
(1.1 -5.13972e-16 0)
(1.1 -4.31692e-16 0)
(1.1 1.43482e-15 0)
(1.1 4.31473e-16 0)
(1.1 4.49145e-17 0)
(1.1 8.57227e-16 0)
(1.1 2.77112e-16 0)
(1.1 -2.03918e-15 0)
(1.1 -9.29577e-16 0)
(1.1 -1.15585e-15 0)
(1.1 1.6725e-15 0)
(1.1 7.44986e-18 0)
(1.1 -1.33684e-15 0)
(1.1 -8.85901e-16 0)
(1.1 -1.23036e-15 0)
(1.1 -1.38999e-15 0)
(1.1 -5.39476e-16 0)
(1.09791 0.00424138 0)
(1.1 -1.20791e-15 0)
(1.1 1.32912e-16 0)
(1.1 -5.01959e-16 0)
(1.1 -2.27303e-16 0)
(1.1 7.50756e-16 0)
(1.1 -5.63354e-16 0)
(1.1 1.2923e-15 0)
(1.1 2.10304e-15 0)
(1.1 -9.31254e-17 0)
(1.1 1.76219e-16 0)
(1.1 1.47057e-15 0)
(1.1 3.53866e-16 0)
(1.1 1.30536e-16 0)
(1.1 1.36789e-15 0)
(1.1 -3.29621e-16 0)
(1.1 -1.26693e-15 0)
(1.1 -5.31226e-16 0)
(1.1 -7.04437e-16 0)
(1.1 1.19628e-15 0)
(1.1 -2.19967e-16 0)
(1.1 -2.59939e-16 0)
(1.1 1.18227e-16 0)
(1.1 -8.50037e-16 0)
(1.1 -1.69498e-15 0)
(1.1 -9.95924e-16 0)
(1.09853 0.00277836 0)
(1.1 -1.73511e-15 0)
(1.1 -1.39929e-16 0)
(1.1 -5.78963e-16 0)
(1.1 5.23865e-16 0)
(1.1 4.72018e-16 0)
(1.1 -1.68219e-16 0)
(1.1 7.83149e-16 0)
(1.1 2.25018e-15 0)
(1.1 1.01911e-15 0)
(1.1 1.11633e-15 0)
(1.1 1.34409e-15 0)
(1.1 3.41353e-17 0)
(1.1 -3.60324e-16 0)
(1.1 2.53375e-16 0)
(1.1 -2.44742e-16 0)
(1.1 -6.58982e-16 0)
(1.1 5.44969e-20 0)
(1.1 9.40174e-17 0)
(1.1 1.45105e-16 0)
(1.1 -1.32956e-16 0)
(1.1 3.4938e-16 0)
(1.1 1.57028e-16 0)
(1.1 -5.83125e-16 0)
(1.1 -9.12284e-16 0)
(1.1 -6.87234e-16 0)
(1.09898 0.00185194 0)
(1.1 -1.07183e-15 0)
(1.1 4.11798e-16 0)
(1.1 -6.56397e-17 0)
(1.1 1.05849e-15 0)
(1.1 4.75277e-16 0)
(1.1 9.65531e-16 0)
(1.1 3.9557e-16 0)
(1.1 1.75789e-15 0)
(1.1 1.98351e-15 0)
(1.1 1.40857e-15 0)
(1.1 5.88931e-16 0)
(1.1 8.54287e-16 0)
(1.1 -5.99344e-16 0)
(1.1 3.8581e-16 0)
(1.1 3.24318e-16 0)
(1.1 -7.28445e-16 0)
(1.1 1.1272e-16 0)
(1.1 9.67364e-16 0)
(1.1 -5.78359e-17 0)
(1.1 -2.72946e-16 0)
(1.1 -1.96616e-16 0)
(1.1 -4.97054e-16 0)
(1.1 -8.81685e-17 0)
(1.1 -4.4567e-16 0)
(1.1 -6.56864e-16 0)
(1.09926 0.00131863 0)
(1.1 -2.21113e-16 0)
(1.1 6.54565e-16 0)
(1.1 5.41401e-16 0)
(1.1 1.32664e-15 0)
(1.1 8.85129e-16 0)
(1.1 1.49023e-15 0)
(1.1 1.39567e-16 0)
(1.1 7.15373e-16 0)
(1.1 2.38922e-15 0)
(1.1 1.89766e-15 0)
(1.1 2.03817e-16 0)
(1.1 1.075e-15 0)
(1.1 8.71591e-17 0)
(1.1 8.00384e-16 0)
(1.1 8.9168e-17 0)
(1.1 -1.62048e-16 0)
(1.1 2.27719e-16 0)
(1.1 1.01237e-15 0)
(1.1 6.16286e-16 0)
(1.1 -7.37452e-16 0)
(1.1 -2.03666e-16 0)
(1.1 -8.33483e-16 0)
(1.1 1.9175e-16 0)
(1.1 -8.54184e-16 0)
(1.1 -1.19423e-15 0)
(1.0995 0.000987147 0)
(1.1 8.64539e-16 0)
(1.1 6.09291e-16 0)
(1.1 5.31973e-16 0)
(1.1 1.53472e-15 0)
(1.1 1.20623e-15 0)
(1.1 1.84524e-15 0)
(1.1 -4.86144e-17 0)
(1.1 4.59659e-16 0)
(1.1 1.15737e-15 0)
(1.1 2.12356e-15 0)
(1.1 1.57141e-16 0)
(1.1 2.01915e-16 0)
(1.1 -3.57329e-18 0)
(1.1 7.73246e-16 0)
(1.1 7.30159e-16 0)
(1.1 8.76611e-16 0)
(1.1 -3.22887e-16 0)
(1.1 7.59524e-16 0)
(1.1 9.52875e-16 0)
(1.1 -5.27416e-16 0)
(1.1 -1.20979e-16 0)
(1.1 -7.27658e-16 0)
(1.1 -2.26542e-16 0)
(1.1 -5.39043e-16 0)
(1.1 -1.04248e-15 0)
(1.09966 0.000778113 0)
(1.1 4.63558e-16 0)
(1.1 -4.87135e-16 0)
(1.1 -3.08206e-16 0)
(1.1 7.96172e-16 0)
(1.1 1.2073e-15 0)
(1.1 1.54545e-15 0)
(1.1 7.86523e-16 0)
(1.1 1.15882e-15 0)
(1.1 3.6408e-16 0)
(1.1 6.29472e-16 0)
(1.1 -1.87888e-16 0)
(1.1 1.0598e-16 0)
(1.1 -2.5178e-16 0)
(1.1 -1.07105e-18 0)
(1.1 8.3891e-16 0)
(1.1 9.22776e-16 0)
(1.1 -1.78648e-17 0)
(1.1 4.25375e-16 0)
(1.1 9.01291e-17 0)
(1.1 -8.05208e-16 0)
(1.1 -3.29449e-16 0)
(1.1 -3.79774e-16 0)
(1.1 -8.96044e-17 0)
(1.1 -6.518e-16 0)
(1.1 -8.47755e-16 0)
(1.09979 0.00061456 0)
(1.1 -2.18459e-16 0)
(1.1 -5.74001e-16 0)
(1.1 -9.12191e-17 0)
(1.1 -6.69419e-17 0)
(1.1 9.96966e-16 0)
(1.1 1.68926e-15 0)
(1.1 1.05356e-15 0)
(1.1 8.09372e-16 0)
(1.1 5.8445e-16 0)