/*--------------------------------*- C++ -*----------------------------------*\
  =========                 |
  \\      /  F ield         | OpenFOAM: The Open Source CFD Toolbox
   \\    /   O peration     | Website:  https://openfoam.org
    \\  /    A nd           | Version:  7
     \\/     M anipulation  |
\*---------------------------------------------------------------------------*/
FoamFile
{
    version     2.0;
    format      ascii;
    class       volScalarField;
    location    "0.7";
    object      p;
}
// * * * * * * * * * * * * * * * * * * * * * * * * * * * * * * * * * * * * * //

dimensions      [1 -1 -2 0 0 0 0];

internalField   nonuniform List<scalar> 
2600
(
1.10207
1.19532
1.21095
1.51937
2.07097
2.34986
2.49186
2.67247
2.92677
3.22835
1.1696
1.16685
1.25293
1.6426
2.14746
2.37773
2.50627
2.67646
2.92803
3.21765
1.13768
1.11936
1.31472
1.7595
2.2097
2.40796
2.51095
2.65798
2.90474
3.20439
1.13035
1.12129
1.39184
1.86322
2.25835
2.41531
2.50607
2.66598
2.91059
3.20344
1.14162
1.11761
1.48741
1.93923
2.28976
2.42126
2.516
2.66467
2.90885
3.19834
1.16592
1.12337
1.57021
1.96335
2.29553
2.44657
2.52465
2.66018
2.89903
3.19427
1.17394
1.12618
1.60791
2.01454
2.31257
2.45707
2.52785
2.66565
2.90238
3.19434
1.16915
1.13477
1.63492
2.02181
2.31636
2.47317
2.52917
2.67107
2.90513
3.19385
1.16004
1.13944
1.63787
2.03558
2.32716
2.46295
2.52907
2.66756
2.91591
3.20107
1.15316
1.15252
1.63353
2.04265
2.32819
2.44426
2.52175
2.67204
2.91696
3.1872
1.15309
1.15252
1.63382
2.04471
2.31794
2.43184
2.51893
2.67862
2.90141
3.20066
1.15984
1.13933
1.63818
2.03987
2.31328
2.45729
2.52652
2.68022
2.90717
3.19938
1.16885
1.13458
1.63504
2.02083
2.31636
2.46606
2.52928
2.67117
2.90965
3.19748
1.17359
1.12588
1.60777
2.01178
2.31733
2.46553
2.52842
2.66979
2.90679
3.19576
1.16559
1.12301
1.56989
1.96394
2.29829
2.44779
2.52179
2.65779
2.9007
3.19477
1.14131
1.11727
1.48728
1.94027
2.28555
2.42515
2.51517
2.66076
2.90734
3.19826
1.13001
1.12095
1.39179
1.86305
2.25756
2.41369
2.50699
2.65881
2.90274
3.20107
1.13729
1.11891
1.31456
1.75894
2.21106
2.40435
2.50885
2.65524
2.90576
3.20578
1.16924
1.16639
1.25277
1.64229
2.14822
2.37478
2.50826
2.68648
2.93745
3.22117
1.10188
1.19496
1.21082
1.5196
2.06986
2.34925
2.49558
2.67589
2.92615
3.22665
1.61531
1.19434
1.13775
1.36259
1.94922
2.32078
2.49611
2.65414
2.91086
3.21631
2.14402
1.24563
1.12112
1.17802
1.77335
2.26698
2.491
2.65384
2.91411
3.20825
2.56684
1.39758
1.16009
1.04512
1.51715
2.1806
2.47422
2.65563
2.94298
3.2107
2.90124
1.60048
1.22995
1.06212
1.25301
2.03186
2.46005
2.63913
2.95356
3.2112
3.16874
1.82163
1.34965
1.11693
1.08013
1.81687
2.4278
2.62296
2.95926
3.20813
3.3846
2.03382
1.47868
1.20105
1.07627
1.57226
2.36575
2.5992
2.96667
3.20759
3.5595
2.22905
1.61846
1.29655
1.10279
1.35957
2.23661
2.58696
2.96989
3.21139
3.70805
2.39884
1.76102
1.41351
1.16148
1.22166
2.05784
2.59152
2.97357
3.22344
3.83038
2.55405
1.90271
1.53614
1.22615
1.19025
1.84824
2.57785
2.97361
3.23707
3.9616
2.69412
2.04334
1.67297
1.30693
1.20602
1.63419
2.51553
2.95062
3.24586
4.11358
2.83777
2.18262
1.80232
1.41026
1.23909
1.4568
2.40619
2.92498
3.25526
4.27872
2.98924
2.31838
1.93807
1.52644
1.28474
1.34347
2.265
2.88692
3.26953
4.48577
3.16191
2.4602
2.06266
1.63825
1.3389
1.31728
2.08854
2.86314
3.29239
4.68375
3.3518
2.60141
2.19031
1.75707
1.40918
1.31351
1.9152
2.82773
3.31663
4.84836
3.55422
2.75545
2.31039
1.86955
1.49603
1.3207
1.75735
2.78292
3.33903
5.04794
3.73651
2.91252
2.43059
1.97653
1.60245
1.33836
1.62974
2.72171
3.34661
5.36136
3.94027
3.08
2.56048
2.0815
1.68995
1.36511
1.54419
2.63255
3.34515
5.48625
4.21031
3.29675
2.68892
2.18474
1.78933
1.40734
1.49689
2.50978
3.33011
5.58065
4.32891
3.42566
2.81686
2.28251
1.87748
1.44818
1.50829
2.37384
3.30184
5.65629
4.50532
3.59548
2.94786
2.38192
1.95899
1.49609
1.53528
2.24032
3.26285
8.47853
8.22378
7.87806
7.5378
7.22572
6.94059
6.66306
6.36806
5.96392
5.43934
7.7792
7.6592
7.38139
7.16179
6.94944
6.73702
6.50522
6.21425
5.78407
5.10754
7.45774
7.52474
7.26199
7.084
6.88417
6.69048
6.47581
6.18603
5.75329
5.06534
7.05853
7.29342
7.0643
6.93687
6.78895
6.63405
6.42881
6.13143
5.69553
4.98151
6.65448
7.06985
6.9216
6.8522
6.74829
6.61593
6.40375
6.09196
5.64762
4.94249
6.2264
6.8615
6.82021
6.81176
6.73156
6.61037
6.38612
6.06746
5.6209
4.93819
5.77698
6.77106
6.83504
6.88827
6.81199
6.66373
6.38184
6.04953
5.60741
4.95607
4.92813
6.59455
6.98361
7.00867
6.86213
6.66015
6.35341
6.03369
5.60447
4.99317
3.48289
6.09331
7.10355
7.09883
6.92962
6.69169
6.37443
6.08539
5.61495
5.05342
2.36637
4.23967
7.0177
7.09638
6.94002
6.72472
6.4012
6.15148
5.6235
5.15124
1.81223
2.29773
5.25183
7.25224
7.01383
6.75323
6.45981
6.23916
5.69177
5.31306
1.56695
1.62821
2.62604
6.00533
7.15609
6.94465
6.66167
6.43805
5.87035
5.48747
1.41775
1.44267
1.53793
3.42009
6.44249
7.01668
6.89558
6.69436
6.19076
5.72545
1.31004
1.33636
1.36353
1.63657
4.64418
6.96975
7.31668
7.03358
6.4181
5.86184
1.22788
1.24895
1.27537
1.30272
2.18049
5.97453
7.69183
7.28677
6.67036
6.01231
1.16655
1.17946
1.19514
1.21076
1.2851
4.32973
7.62797
7.31057
6.69544
6.22828
1.12245
1.13165
1.1419
1.1576
1.17192
2.1378
7.03044
7.51744
6.88545
6.37926
1.09107
1.09868
1.1078
1.11962
1.12952
1.24991
5.70117
7.6807
7.07701
6.576
1.06491
1.07102
1.07978
1.08843
1.09871
1.11511
3.92329
7.41904
6.95986
6.54411
1.04497
1.04994
1.05711
1.06467
1.0742
1.08522
2.02585
6.92289
7.05033
6.64146
1
1
1
1
1
1
1
0.999997
0.999384
3.0632
1
1
1
1
1
1
1
1
0.999374
2.98951
1
1
1
1
1
1
1
1
0.999371
2.87125
1
1
1
1
1
1
1
1.00001
0.999382
2.72052
1
1
1
1
1
1
1
1.00001
0.999389
2.54908
1
1
1
1
1
1
1
1.00001
0.999406
2.36232
1
1
1
1
1
1
1
1.00001
0.999426
2.14878
1
1
1
1
1
1
1
1.00001
0.999457
1.9233
1
1
1
1
1
1
1
1.00001
0.99949
1.72174
1
1
1
1
1
1
1
1.00001
0.999524
1.56072
1
1
1
1
1
1
1
1.00001
0.999561
1.43806
1
1
1
1
1
1
1
1.00001
0.999603
1.33953
1
1
1
1
1
1
1
1.00001
0.999646
1.26084
1
1
1
1
1
1
1
1
0.999689
1.18836
1
1
1
1
1
1
1
1
0.99973
1.13796
1
1
1
1
1
1
1
1
0.999769
1.10658
1
1
1
1
1
1
1
1
0.999805
1.0776
1
1
1
1
1
1
1
1
0.999837
1.05505
1
1
1
1
1
1
1
1
0.999865
1.0379
1
1
1
1
1
1
1
1
0.999889
1.02574
1
1
1
1
1
1
1
1
0.99989
1.02575
1
1
1
1
1
1
1
1
0.999866
1.03791
1
1
1
1
1
1
1
1
0.999839
1.05506
1
1
1
1
1
1
1
1
0.999807
1.0776
1
1
1
1
1
1
1
1
0.999771
1.10659
1
1
1
1
1
1
1
1
0.999731
1.13797
1
1
1
1
1
1
1
1
0.99969
1.18835
1
1
1
1
1
1
1
1.00001
0.999647
1.26088
1
1
1
1
1
1
1
1.00001
0.999604
1.33962
1
1
1
1
1
1
1
1.00001
0.999563
1.43816
1
1
1
1
1
1
1
1.00001
0.999524
1.56087
1
1
1
1
1
1
1
1.00001
0.999486
1.72196
1
1
1
1
1
1
1
1.00001
0.99945
1.92366
1
1
1
1
1
1
1
1.00001
0.999416
2.14917
1
1
1
1
1
1
1
1.00001
0.999402
2.36272
1
1
1
1
1
1
1
1.00001
0.999389
2.54944
1
1
1
1
1
1
1
1.00001
0.999383
2.72088
1
1
1
1
1
1
1
1
0.999372
2.87154
1
1
1
1
1
1
1
1
0.999375
2.98972
1
1
1
1
1
1
1
0.999997
0.999384
3.06331
1.04499
1.04996
1.05713
1.0647
1.07424
1.08524
2.02075
6.92008
7.05025
6.64101
1.06493
1.07104
1.07981
1.08846
1.09874
1.1151
3.91514
7.4171
6.95895
6.54341
1.0911
1.09871
1.10783
1.11964
1.12955
1.24869
5.69281
7.67991
7.07686
6.57586
1.12247
1.13167
1.14192
1.15763
1.17193
2.13135
7.02457
7.5185
6.88655
6.37951
1.16655
1.17946
1.19512
1.21077
1.2845
4.32089
7.62535
7.30987
6.69535
6.22773
1.22785
1.24891
1.27535
1.30263
2.1757
5.96797
7.69106
7.28601
6.67
6.01194
1.31006
1.33638
1.36357
1.63487
4.6372
6.96608
7.3163
7.03391
6.4181
5.86162
1.41781
1.44275
1.5377
3.41346
6.43908
7.01556
6.89536
6.69414
6.19063
5.72522
1.56702
1.6282
2.62352
6.00042
7.1541
6.94359
6.6606
6.43717
5.8699
5.48715
1.81233
2.29698
5.24784
7.24867
7.01146
6.75167
6.45873
6.23803
5.6909
5.31255
2.36636
4.23738
7.01359
7.09435
6.93832
6.72322
6.39973
6.15004
5.62216
5.15048
3.48269
6.09061
7.10168
7.09714
6.92771
6.69004
6.37267
6.08379
5.61322
5.05233
4.92781
6.59316
6.98193
7.00674
6.86003
6.65829
6.3515
6.03201
5.6026
4.99175
5.77656
6.7696
6.83344
6.88664
6.81023
6.66182
6.37985
6.04768
5.60555
4.95457
6.22579
6.86005
6.81878
6.81022
6.73003
6.6086
6.38415
6.06559
5.61901
4.93668
6.65357
7.06817
6.9202
6.85071
6.74684
6.61432
6.40187
6.09009
5.64568
4.94092
7.05745
7.29146
7.06269
6.93528
6.78738
6.63249
6.42705
6.12957
5.69354
4.97984
7.45687
7.52275
7.26042
7.08237
6.88246
6.68881
6.4741
6.1842
5.75131
5.06366
7.77845
7.65788
7.37996
7.16031
6.94797
6.73549
6.50369
6.21262
5.78215
5.10565
8.47856
8.22324
7.87697
7.53626
7.22402
6.93867
6.66118
6.36628
5.96213
5.43775
5.65588
4.5048
3.59509
2.94759
2.38181
1.959
1.49611
1.5353
2.24037
3.26287
5.58022
4.32862
3.4254
2.8166
2.28239
1.87749
1.44821
1.50832
2.37399
3.30188
5.48597
4.21078
3.29663
2.68866
2.18461
1.78933
1.40737
1.49694
2.50992
3.33014
5.36103
3.93996
3.07972
2.56023
2.08136
1.68994
1.36513
1.54428
2.63252
3.34515
5.04765
3.73625
2.91224
2.43035
1.97639
1.60244
1.33839
1.62972
2.72147
3.34657
4.84814
3.55394
2.75514
2.31015
1.86943
1.49601
1.32073
1.7572
2.7826
3.33892
4.68349
3.35151
2.6011
2.19008
1.75695
1.40916
1.31354
1.91509
2.82755
3.31645
4.48558
3.16153
2.45984
2.06245
1.63814
1.33888
1.31729
2.08876
2.86318
3.29229
4.27839
2.98871
2.31801
1.93788
1.52635
1.28473
1.34344
2.26536
2.88707
3.2696
4.11314
2.83715
2.18225
1.80214
1.41016
1.23908
1.45689
2.4061
2.92506
3.25545
3.96096
2.69346
2.04298
1.67281
1.30685
1.20601
1.63474
2.51532
2.95042
3.24596
3.8296
2.55342
1.9024
1.53598
1.22611
1.19023
1.84941
2.57795
2.9734
3.23689
3.70722
2.3983
1.76074
1.41337
1.16141
1.22154
2.05853
2.592
2.97394
3.22317
3.55868
2.22855
1.61823
1.29643
1.1027
1.35869
2.23558
2.5876
2.97094
3.21171
3.38385
2.03342
1.47849
1.20092
1.07619
1.57098
2.36366
2.60043
2.9677
3.20829
3.16813
1.82135
1.3495
1.11682
1.08012
1.81696
2.42594
2.62251
2.9593
3.20853
2.90086
1.60034
1.22975
1.06198
1.25304
2.03336
2.45869
2.6378
2.95243
3.21056
2.56664
1.39755
1.16006
1.04497
1.51627
2.18191
2.47436
2.65464
2.94098
3.20911
2.14402
1.24569
1.12109
1.17799
1.77246
2.26739
2.49348
2.65639
2.91693
3.20832
1.61545
1.1946
1.13784
1.36252
1.94995
2.32069
2.49677
2.65799
2.91484
3.21858
1.07397
1.29347
3.21787
6.61164
7.50849
6.63989
5.55465
4.53128
3.66064
3.04246
1.05919
1.30359
3.57188
6.37187
7.35334
6.55349
5.52353
4.53658
3.67818
3.06969
1.05256
1.37655
4.0914
6.08824
7.1842
6.4571
5.4732
4.53171
3.69021
3.06826
1.04918
1.63191
4.71834
5.83085
6.79578
6.25921
5.39371
4.50993
3.71053
3.10778
1.04782
2.20746
5.40359
5.67821
6.1843
6.02833
5.26418
4.44874
3.68508
3.08154
1.04819
3.04098
5.87877
5.68165
5.49353
5.51068
5.06944
4.39382
3.67638
3.07884
1.05959
3.79458
6.07658
5.66523
4.90388
4.88308
4.81766
4.25405
3.60799
3.05356
1.20551
4.55077
6.17764
5.50925
4.55692
4.29285
4.40533
4.02521
3.53673
3.03298
1.65476
5.24285
6.06692
5.30708
4.3657
3.87625
3.89648
3.77476
3.42212
2.97085
2.39711
5.79679
5.83697
5.10936
4.24373
3.63132
3.42272
3.45612
3.21331
2.85634
3.03986
5.9319
5.65488
4.93562
4.12708
3.47413
3.09007
3.09387
2.95072
2.70955
3.83426
6.01736
5.47839
4.75297
3.9951
3.3279
2.88227
2.77301
2.66754
2.54358
4.41742
5.96376
5.31795
4.57584
3.85548
3.17508
2.73402
2.52819
2.42918
2.40961
5.32337
5.85984
5.16637
4.41362
3.70592
3.00636
2.59584
2.33002
2.24921
2.3644
6.05974
5.69917
4.97374
4.24708
3.54533
2.84164
2.44739
2.15299
2.12549
2.37223
6.44792
5.47054
4.72552
4.04899
3.36847
2.68931
2.28895
1.97945
2.02291
2.49218
6.34522
5.29584
4.49206
3.83332
3.17443
2.53795
2.11837
1.85267
1.95048
2.65434
6.16963
5.12691
4.27981
3.61196
2.97109
2.3929
1.94541
1.74554
1.89808
2.84102
5.97667
4.94196
4.05816
3.37583
2.76553
2.23828
1.77184
1.65903
1.93635
3.01502
5.79723
4.72327
3.81015
3.13111
2.54153
2.07995
1.60503
1.59416
2.07578
3.1711
5.7977
4.72374
3.81052
3.13136
2.54161
2.07992
1.60499
1.59414
2.07579
3.17111
5.97729
4.94246
4.05853
3.37605
2.76557
2.23823
1.77179
1.65902
1.93635
3.01503
6.17034
5.12742
4.28018
3.61214
2.97109
2.39284
1.94538
1.74554
1.89809
2.84102
6.34606
5.29646
4.49243
3.83343
3.17439
2.53788
2.11834
1.85267
1.95048
2.65433
6.44881
5.47113
4.72581
4.04901
3.36839
2.68925
2.28893
1.97946
2.02291
2.49218
6.06008
5.69958
4.97386
4.247
3.54522
2.8416
2.44738
2.15299
2.12549
2.37223
5.32322
5.86003
5.16633
4.41346
3.70582
3.00633
2.59584
2.33002
2.24921
2.3644
4.41719
5.96363
5.31775
4.57565
3.8554
3.17508
2.73402
2.52819
2.42918
2.40961
3.83397
6.01707
5.4781
4.75281
3.99506
3.32791
2.88227
2.77301
2.66753
2.54358
3.03952
5.93155
5.65462
4.93551
4.12706
3.47414
3.09008
3.09387
2.95072
2.70955
2.39678
5.79648
5.83678
5.10929
4.24373
3.63133
3.42273
3.45612
3.21331
2.85634
1.65461
5.24265
6.06679
5.30705
4.36571
3.87626
3.89649
3.77477
3.42212
2.97085
1.20547
4.55064
6.1776
5.50924
4.55693
4.29286
4.40534
4.02521
3.53673
3.03298
1.05959
3.79453
6.07655
5.66522
4.90388
4.88309
4.81767
4.25405
3.60799
3.05355
1.0482
3.04099
5.87877
5.68165
5.49354
5.51069
5.06945
4.39382
3.67638
3.07884
1.04782
2.20747
5.40359
5.67823
6.18431
6.02833
5.26418
4.44874
3.68508
3.08154
1.04918
1.63191
4.71834
5.83086
6.79579
6.25921
5.39371
4.50993
3.71053
3.10777
1.05257
1.37655
4.09139
6.08824
7.1842
6.4571
5.4732
4.53171
3.69021
3.06826
1.05919
1.30359
3.57186
6.37186
7.35335
6.5535
5.52353
4.53657
3.67818
3.06969
1.07397
1.29347
3.21785
6.61163
7.5085
6.63989
5.55465
4.53127
3.66064
3.04246
1.0288
1.0323
1.03709
1.04297
1.05077
1.05719
1.17686
4.89997
7.29579
6.83519
1.01741
1.01955
1.02242
1.02632
1.03102
1.03719
1.04193
1.98188
6.4915
6.90884
1.01195
1.01333
1.0151
1.01768
1.02059
1.02546
1.02863
1.10209
4.31256
6.92407
1.0093
1.01029
1.01151
1.01325
1.01533
1.01836
1.02236
1.02532
1.75873
5.96874
1.00877
1.0097
1.01097
1.01244
1.01448
1.01664
1.02034
1.02308
1.0705
3.97602
1.00872
1.00965
1.01101
1.01258
1.01459
1.01685
1.01978
1.02377
1.02645
1.80194
1.00895
1.00988
1.01111
1.01264
1.01447
1.0169
1.01951
1.02377
1.02709
1.09155
1.00897
1.00993
1.01103
1.01255
1.01418
1.01659
1.01922
1.0232
1.02811
1.03216
1.00874
1.00962
1.01072
1.01217
1.01393
1.0163
1.01916
1.02294
1.02841
1.0328
1.00807
1.00899
1.01019
1.01173
1.01365
1.01609
1.01919
1.0231
1.02864
1.03353
1.00753
1.00843
1.0097
1.01127
1.01332
1.01584
1.0191
1.02314
1.02901
1.03414
1.00728
1.00812
1.00941
1.01085
1.013
1.01533
1.01892
1.02278
1.0292
1.0341
1.00727
1.00811
1.00931
1.01076
1.01272
1.01501
1.01855
1.02222
1.02912
1.03406
1.00749
1.00834
1.00952
1.01098
1.01289
1.01521
1.01829
1.0221
1.02796
1.03417
1.0078
1.00866
1.00983
1.0113
1.01315
1.01548
1.01848
1.02233
1.02741
1.0346
1.00813
1.00902
1.0102
1.01169
1.01352
1.01586
1.01876
1.0226
1.02738
1.03463
1.00849
1.0094
1.01058
1.01211
1.0139
1.01631
1.01905
1.02302
1.02736
1.03507
1.00881
1.00973
1.01088
1.01243
1.01416
1.01658
1.01922
1.02322
1.0276
1.03467
1.00904
1.00995
1.01108
1.01258
1.01431
1.01661
1.01937
1.02309
1.02797
1.03409
1.00921
1.01009
1.01129
1.01268
1.01453
1.01661
1.01961
1.02294
1.02851
1.03372
1
1
1
1
1
1
1
0.999999
0.999913
1.0164
1
1
1
1
1
1
1
1
0.999941
1.00998
1
1
1
1
1
1
1
0.999999
0.999964
1.00697
1
1
1
1
1
1
1
1
0.999986
1.00554
1
1
1
1
1
1
1
1
1.00001
1.00512
1
1
1
1
1
1
1
1
1.00003
1.00504
1
1
1
1
1
1
1
1
1.00004
1.00527
1
1
1
1
1
1
1
1
1.00004
1.00535
1
1
1
1
1
1
1
1
1.00005
1.00522
1
1
1
1
1
1
1
1
1.00005
1.00469
1
1
1
1
1
1
1
1
1.00006
1.00431
1
1
1
1
1
1
1
1
1.00006
1.00416
1
1
1
1
1
1
1
1
1.00006
1.00418
1
1
1
1
1
1
1
1
1.00006
1.00434
1
1
1
1
1
1
1
1
1.00006
1.00455
1
1
1
1
1
1
1
1
1.00006
1.00476
1
1
1
1
1
1
1
1
1.00005
1.00499
1
1
1
1
1
1
1
1
1.00005
1.00522
1
1
1
1
1
1
1
1
1.00005
1.0054
1
1
1
1
1
1
1
1
1.00005
1.00548
1
1
1
1
1
1
1
1
1.00005
1.00548
1
1
1
1
1
1
1
1
1.00005
1.0054
1
1
1
1
1
1
1
1
1.00005
1.00522
1
1
1
1
1
1
1
1
1.00005
1.00499
1
1
1
1
1
1
1
1
1.00006
1.00476
1
1
1
1
1
1
1
1
1.00006
1.00455
1
1
1
1
1
1
1
1
1.00006
1.00434
1
1
1
1
1
1
1
1
1.00006
1.00418
1
1
1
1
1
1
1
1
1.00006
1.00416
1
1
1
1
1
1
1
1
1.00006
1.00431
1
1
1
1
1
1
1
1
1.00005
1.00469
1
1
1
1
1
1
1
1
1.00005
1.00522
1
1
1
1
1
1
1
1
1.00004
1.00535
1
1
1
1
1
1
1
1
1.00004
1.00527
1
1
1
1
1
1
1
1
1.00003
1.00504
1
1
1
1
1
1
1
1
1.00001
1.00512
1
1
1
1
1
1
1
1
0.999986
1.00554
1
1
1
1
1
1
1
0.999999
0.999964
1.00697
1
1
1
1
1
1
1
1
0.999941
1.00998
1
1
1
1
1
1
1
0.999999
0.999914
1.01641
1.00921
1.01009
1.01129
1.01268
1.01453
1.01661
1.01962
1.02294
1.02851
1.03372
1.00904
1.00995
1.01108
1.01258
1.01431
1.01661
1.01937
1.02309
1.02797
1.03409
1.00881
1.00973
1.01088
1.01243
1.01416
1.01658
1.01922
1.02322
1.0276
1.03467
1.00849
1.0094
1.01058
1.01211
1.0139
1.01631
1.01905
1.02302
1.02737
1.03507
1.00813
1.00902
1.0102
1.01169
1.01352
1.01586
1.01876
1.0226
1.02738
1.03463
1.0078
1.00866
1.00983
1.0113
1.01315
1.01548
1.01848
1.02233
1.02741
1.0346
1.00749
1.00834
1.00952
1.01098
1.01289
1.01521
1.01829
1.0221
1.02796
1.03417
1.00727
1.00811
1.00931
1.01076
1.01272
1.01501
1.01855
1.02222
1.02912
1.03406
1.00728
1.00812
1.00941
1.01085
1.013
1.01533
1.01892
1.02278
1.0292
1.0341
1.00753
1.00843
1.0097
1.01127
1.01332
1.01584
1.0191
1.02314
1.02901
1.03414
1.00807
1.00899
1.01019
1.01173
1.01365
1.01609
1.01919
1.0231
1.02864
1.03353
1.00874
1.00962
1.01072
1.01217
1.01393
1.0163
1.01916
1.02294
1.02841
1.0328
1.00897
1.00993
1.01103
1.01255
1.01418
1.01659
1.01922
1.0232
1.02811
1.03216
1.00895
1.00988
1.01111
1.01264
1.01447
1.0169
1.01951
1.02377
1.02709
1.09161
1.00872
1.00965
1.01101
1.01258
1.01459
1.01685
1.01978
1.02377
1.02645
1.80216
1.00877
1.00969
1.01097
1.01244
1.01448
1.01663
1.02034
1.02308
1.07046
3.97577
1.0093
1.01028
1.01151
1.01325
1.01533
1.01836
1.02237
1.02532
1.75805
5.96772
1.01195
1.01333
1.0151
1.01768
1.0206
1.02546
1.02864
1.10179
4.31035
6.92309
1.01742
1.01956
1.02242
1.02633
1.03103
1.03721
1.04193
1.97923
6.48911
6.90823
1.02881
1.03232
1.0371
1.04299
1.05079
1.05722
1.17609
4.89526
7.29509
6.83492
)
;

boundaryField
{
    inlet
    {
        type            fixedValue;
        value           uniform 1;
    }
    outlet
    {
        type            zeroGradient;
    }
    triangle
    {
        type            zeroGradient;
    }
    top
    {
        type            symmetryPlane;
    }
    bottom
    {
        type            symmetryPlane;
    }
    defaultFaces
    {
        type            empty;
    }
}


// ************************************************************************* //
