/*--------------------------------*- C++ -*----------------------------------*\
  =========                 |
  \\      /  F ield         | OpenFOAM: The Open Source CFD Toolbox
   \\    /   O peration     | Website:  https://openfoam.org
    \\  /    A nd           | Version:  8
     \\/     M anipulation  |
\*---------------------------------------------------------------------------*/
FoamFile
{
    version     2.0;
    format      ascii;
    class       volScalarField;
    location    "0.7";
    object      p;
}
// * * * * * * * * * * * * * * * * * * * * * * * * * * * * * * * * * * * * * //

dimensions      [1 -1 -2 0 0 0 0];

internalField   nonuniform List<scalar> 
2600
(
1.10204
1.19536
1.21112
1.51974
2.06947
2.34939
2.49578
2.6769
2.92781
3.22725
1.16959
1.16684
1.25312
1.64269
2.14775
2.37434
2.50807
2.68514
2.93658
3.22127
1.13767
1.11934
1.31489
1.75933
2.21086
2.40357
2.50869
2.654
2.90385
3.20496
1.13031
1.12129
1.39201
1.86326
2.25816
2.41366
2.50726
2.65913
2.90365
3.2011
1.14155
1.1176
1.48754
1.93997
2.28671
2.42593
2.51542
2.66136
2.90899
3.19869
1.16586
1.12336
1.57018
1.96359
2.29724
2.44767
2.52167
2.65823
2.90062
3.19472
1.17393
1.12621
1.60797
2.01266
2.31531
2.46446
2.52814
2.67025
2.90479
3.19538
1.16917
1.13484
1.63517
2.02081
2.31702
2.46579
2.52907
2.67171
2.90642
3.19744
1.16006
1.13949
1.63825
2.03868
2.31878
2.4577
2.52657
2.67922
2.91263
3.19882
1.15317
1.15255
1.63384
2.04466
2.3209
2.43095
2.51899
2.67919
2.9052
3.19815
1.15308
1.15248
1.63369
2.04341
2.32431
2.44595
2.52213
2.6716
2.91251
3.19084
1.1598
1.13928
1.63788
2.03666
2.32097
2.46343
2.52895
2.66847
2.91081
3.20104
1.16882
1.13448
1.63484
2.0211
2.31705
2.47309
2.52908
2.67001
2.9086
3.194
1.17358
1.12582
1.60764
2.01354
2.3155
2.45764
2.52815
2.6653
2.90434
3.19464
1.16561
1.12299
1.56994
1.96341
2.29674
2.44701
2.52487
2.66004
2.89918
3.19396
1.14134
1.11726
1.48723
1.93944
2.28857
2.42077
2.51586
2.66419
2.90728
3.19756
1.13003
1.12095
1.39165
1.86315
2.2573
2.41526
2.50592
2.66591
2.90994
3.20337
1.13728
1.11893
1.31438
1.75932
2.20954
2.40854
2.51087
2.65916
2.90646
3.20512
1.16924
1.16641
1.25259
1.64241
2.14766
2.37795
2.50607
2.67732
2.92856
3.21753
1.10192
1.1949
1.21065
1.51933
2.0712
2.34948
2.49149
2.67155
2.92527
3.22781
1.61538
1.19421
1.13769
1.36258
1.95004
2.32036
2.49668
2.65716
2.91389
3.21852
2.14408
1.24556
1.12112
1.17812
1.77243
2.26732
2.49386
2.65654
2.91713
3.20856
2.56688
1.39759
1.16013
1.0451
1.51625
2.18211
2.47472
2.65479
2.94178
3.2093
2.9013
1.60051
1.22991
1.06211
1.25313
2.03371
2.45874
2.63785
2.95226
3.21054
3.16881
1.82167
1.34967
1.11696
1.08024
1.81728
2.42586
2.62245
2.95924
3.20852
3.38469
2.03386
1.4787
1.20107
1.0763
1.57113
2.36347
2.6004
2.9677
3.20835
3.55962
2.2291
1.61847
1.29658
1.10277
1.35876
2.23538
2.58762
2.971
3.21177
3.70819
2.3989
1.76105
1.41352
1.16149
1.22159
2.05845
2.59199
2.974
3.22318
3.83053
2.55412
1.90274
1.53615
1.22618
1.19028
1.84943
2.57792
2.97342
3.23689
3.96172
2.69419
2.04338
1.673
1.30693
1.20605
1.63472
2.51527
2.95044
3.246
4.11367
2.83782
2.18267
1.80234
1.41027
1.23911
1.45687
2.40607
2.92508
3.25549
4.27878
2.98927
2.31843
1.9381
1.52645
1.28476
1.34342
2.26538
2.88707
3.2696
4.48579
3.16192
2.46024
2.06269
1.63827
1.33891
1.31727
2.08875
2.86316
3.29225
4.68376
3.3518
2.60145
2.19034
1.75709
1.40918
1.31352
1.91506
2.82749
3.3164
4.84837
3.55421
2.75548
2.31042
1.86958
1.49604
1.32071
1.75717
2.78253
3.33891
5.04793
3.7365
2.91255
2.43062
1.97655
1.60246
1.33837
1.62971
2.72143
3.34657
5.36134
3.94028
3.08002
2.56051
2.08152
1.68996
1.36511
1.54427
2.63254
3.34517
5.48624
4.21022
3.29674
2.68895
2.18477
1.78935
1.40734
1.49691
2.50997
3.33017
5.58067
4.32891
3.42567
2.81689
2.28253
1.87749
1.44817
1.50829
2.37403
3.30191
5.6563
4.50536
3.59551
2.94789
2.38195
1.959
1.49608
1.53527
2.24036
3.26288
8.47827
8.22357
7.87791
7.53774
7.22575
6.9407
6.66328
6.36834
5.96416
5.43967
7.77904
7.6591
7.38137
7.16184
6.94955
6.73719
6.50545
6.21449
5.78426
5.10784
7.45762
7.52469
7.26202
7.08409
6.88433
6.69072
6.47606
6.18629
5.75354
5.06573
7.05848
7.29343
7.06436
6.93696
6.78913
6.63429
6.42906
6.13169
5.69581
4.98187
6.65446
7.06989
6.92172
6.85236
6.74853
6.61624
6.40406
6.09226
5.64793
4.94284
6.22634
6.86159
6.82038
6.81199
6.73186
6.61069
6.38643
6.06776
5.62121
4.93852
5.77693
6.77121
6.83524
6.88855
6.81231
6.66405
6.38217
6.04984
5.60772
4.95638
4.92739
6.59463
6.98389
7.00901
6.86251
6.66052
6.35375
6.034
5.60473
4.99343
3.48224
6.09265
7.1039
7.09926
6.93002
6.69205
6.37473
6.08569
5.61517
5.05365
2.36597
4.23884
7.01744
7.09669
6.94037
6.72504
6.40151
6.15178
5.62368
5.15141
1.81206
2.29725
5.25147
7.25233
7.01407
6.75352
6.46011
6.2394
5.69192
5.31317
1.56686
1.62807
2.62561
6.00537
7.15629
6.94493
6.66197
6.43827
5.87051
5.48754
1.41769
1.44261
1.53781
3.4199
6.44276
7.017
6.89582
6.69449
6.19084
5.72547
1.31001
1.33632
1.36349
1.63648
4.64445
6.97023
7.31682
7.03363
6.41815
5.86185
1.22785
1.24893
1.27535
1.3027
2.18063
5.97519
7.69197
7.28686
6.67041
6.01236
1.16654
1.17945
1.19513
1.21075
1.2851
4.33052
7.62826
7.31058
6.69543
6.2283
1.12243
1.13164
1.14189
1.15758
1.17191
2.13843
7.03113
7.51721
6.88525
6.37919
1.09106
1.09867
1.10779
1.11961
1.12951
1.25003
5.70214
7.68072
7.07698
6.57599
1.0649
1.07101
1.07977
1.08842
1.0987
1.11511
3.9242
7.41923
6.95996
6.54418
1.04497
1.04994
1.0571
1.06467
1.0742
1.08521
2.0265
6.92317
7.05028
6.64145
1
1
1
1
1
1
1
0.999997
0.999384
3.06319
1
1
1
1
1
1
1
1
0.999374
2.9895
1
1
1
1
1
1
1
1
0.999371
2.87123
1
1
1
1
1
1
1
1.00001
0.999382
2.7205
1
1
1
1
1
1
1
1.00001
0.999389
2.54904
1
1
1
1
1
1
1
1.00001
0.999406
2.36226
1
1
1
1
1
1
1
1.00001
0.999426
2.1487
1
1
1
1
1
1
1
1.00001
0.999457
1.92318
1
1
1
1
1
1
1
1.00001
0.99949
1.72165
1
1
1
1
1
1
1
1.00001
0.999524
1.56065
1
1
1
1
1
1
1
1.00001
0.999561
1.438
1
1
1
1
1
1
1
1.00001
0.999603
1.33949
1
1
1
1
1
1
1
1.00001
0.999646
1.26081
1
1
1
1
1
1
1
1
0.999689
1.18834
1
1
1
1
1
1
1
1
0.99973
1.13794
1
1
1
1
1
1
1
1
0.999769
1.10656
1
1
1
1
1
1
1
1
0.999804
1.07759
1
1
1
1
1
1
1
1
0.999836
1.05504
1
1
1
1
1
1
1
1
0.999864
1.03789
1
1
1
1
1
1
1
1
0.999889
1.02574
1
1
1
1
1
1
1
1
0.99989
1.02575
1
1
1
1
1
1
1
1
0.999866
1.03791
1
1
1
1
1
1
1
1
0.999839
1.05506
1
1
1
1
1
1
1
1
0.999807
1.07761
1
1
1
1
1
1
1
1
0.999771
1.1066
1
1
1
1
1
1
1
1
0.999731
1.13798
1
1
1
1
1
1
1
1
0.99969
1.18835
1
1
1
1
1
1
1
1.00001
0.999647
1.26089
1
1
1
1
1
1
1
1.00001
0.999605
1.33963
1
1
1
1
1
1
1
1.00001
0.999563
1.43818
1
1
1
1
1
1
1
1.00001
0.999524
1.5609
1
1
1
1
1
1
1
1.00001
0.999486
1.72199
1
1
1
1
1
1
1
1.00001
0.99945
1.92369
1
1
1
1
1
1
1
1.00001
0.999416
2.14919
1
1
1
1
1
1
1
1.00001
0.999403
2.36274
1
1
1
1
1
1
1
1.00001
0.999389
2.54945
1
1
1
1
1
1
1
1.00001
0.999383
2.72089
1
1
1
1
1
1
1
1
0.999372
2.87156
1
1
1
1
1
1
1
1
0.999375
2.98974
1
1
1
1
1
1
1
0.999997
0.999384
3.06332
1.04499
1.04996
1.05713
1.0647
1.07424
1.08524
2.02011
6.91979
7.05036
6.64106
1.06493
1.07105
1.07981
1.08846
1.09875
1.1151
3.91427
7.41685
6.95882
6.54335
1.0911
1.09871
1.10784
1.11965
1.12956
1.24857
5.69185
7.67985
7.07687
6.57587
1.12248
1.13168
1.14193
1.15764
1.17194
2.13077
7.02385
7.51867
6.88675
6.37959
1.16656
1.17947
1.19513
1.21078
1.28448
4.32016
7.62506
7.30985
6.69536
6.22771
1.22787
1.24893
1.27536
1.30264
2.17556
5.96735
7.69083
7.28585
6.66993
6.01182
1.31008
1.3364
1.36359
1.6349
4.637
6.96557
7.31613
7.03384
6.41806
5.86154
1.41783
1.44277
1.53775
3.4135
6.43892
7.01527
6.89516
6.69403
6.19058
5.72515
1.56705
1.62824
2.62364
6.00036
7.15394
6.94342
6.66037
6.43703
5.86981
5.48705
1.81239
2.29711
5.24789
7.24857
7.01131
6.75152
6.45855
6.23792
5.69086
5.31246
2.36646
4.23756
7.01356
7.0942
6.93816
6.72307
6.39958
6.14991
5.62211
5.15038
3.48284
6.09072
7.10152
7.09695
6.92754
6.68987
6.37252
6.08364
5.61313
5.05222
4.92795
6.59309
6.98179
7.00657
6.85987
6.65812
6.35135
6.03187
5.60248
4.99161
5.77655
6.76952
6.83332
6.88648
6.81007
6.66164
6.37968
6.04752
5.6054
4.9544
6.22577
6.85997
6.81867
6.81009
6.72988
6.60842
6.38397
6.06541
5.61882
4.93648
6.65354
7.0681
6.92011
6.85059
6.7467
6.61415
6.4017
6.0899
5.64548
4.94068
7.0574
7.29139
7.06261
6.93517
6.78725
6.63234
6.42688
6.12938
5.69334
4.97957
7.45683
7.52266
7.26034
7.08227
6.88234
6.68866
6.47394
6.18402
5.75112
5.06338
7.77838
7.65778
7.37988
7.16021
6.94785
6.73536
6.50353
6.21245
5.78196
5.10538
8.47847
8.22312
7.87687
7.53617
7.22392
6.93855
6.66104
6.36612
5.96196
5.4375
5.65592
4.50475
3.59505
2.94756
2.38178
1.95898
1.49612
1.53532
2.24031
3.26283
5.5802
4.32863
3.42539
2.81656
2.28236
1.87747
1.44821
1.50832
2.37378
3.30181
5.48599
4.21091
3.29665
2.68863
2.18458
1.78931
1.40737
1.49691
2.50971
3.33007
5.36106
3.93994
3.07969
2.56021
2.08133
1.68993
1.36513
1.54419
2.63251
3.34513
5.04765
3.73625
2.91222
2.43032
1.97636
1.60243
1.33839
1.62974
2.72172
3.3466
4.84811
3.55395
2.7551
2.31013
1.8694
1.49601
1.32072
1.75736
2.78297
3.33904
4.68346
3.35151
2.60106
2.19006
1.75692
1.40916
1.31352
1.91524
2.82779
3.31667
4.48554
3.16151
2.45979
2.06242
1.63813
1.33887
1.31729
2.08861
2.8632
3.29242
4.27835
2.98867
2.31796
1.93786
1.52633
1.28472
1.34349
2.26509
2.88697
3.26953
4.1131
2.83708
2.18219
1.80212
1.41015
1.23906
1.45681
2.40626
2.92498
3.25524
3.96089
2.69336
2.04292
1.67278
1.30685
1.20598
1.63421
2.5155
2.95055
3.24582
3.82951
2.55332
1.90234
1.53596
1.22608
1.1902
1.84832
2.5777
2.97346
3.23702
3.70712
2.39822
1.76069
1.41335
1.16141
1.22162
2.05812
2.59136
2.97336
3.22334
3.55859
2.22848
1.61819
1.2964
1.10272
1.35943
2.23687
2.58679
2.96978
3.21129
3.38377
2.03336
1.47846
1.2009
1.07616
1.57195
2.36582
2.59936
2.96673
3.20758
3.16806
1.82131
1.34949
1.1168
1.08001
1.81651
2.42776
2.62324
2.95956
3.20825
2.9008
1.60033
1.22977
1.06199
1.25294
2.0317
2.4599
2.63916
2.95397
3.21133
2.56658
1.39757
1.16001
1.04499
1.5172
2.18068
2.4738
2.65549
2.94205
3.21051
2.14397
1.24577
1.12108
1.17786
1.77337
2.2672
2.49069
2.65372
2.91385
3.20795
1.6154
1.1947
1.13788
1.3625
1.94905
2.32107
2.49629
2.65522
2.91191
3.21638
1.07397
1.29347
3.2179
6.61164
7.50848
6.63989
5.55466
4.53128
3.66064
3.04246
1.05919
1.30359
3.57191
6.37187
7.35334
6.55348
5.52353
4.53658
3.67818
3.06969
1.05257
1.37655
4.09141
6.08822
7.1842
6.45709
5.4732
4.53172
3.69021
3.06826
1.04918
1.6319
4.71835
5.83083
6.79576
6.25922
5.39372
4.50994
3.71054
3.10778
1.04782
2.20744
5.40359
5.67819
6.18428
6.02834
5.26418
4.44874
3.68508
3.08154
1.0482
3.04099
5.87878
5.68165
5.49352
5.51068
5.06945
4.39382
3.67638
3.07884
1.0596
3.79464
6.07661
5.66523
4.90387
4.88308
4.81767
4.25405
3.60799
3.05356
1.20554
4.55089
6.17769
5.50927
4.55691
4.29284
4.40533
4.0252
3.53673
3.03298
1.65484
5.243
6.06702
5.30713
4.3657
3.87624
3.89647
3.77476
3.42212
2.97085
2.3972
5.79692
5.83707
5.10943
4.24375
3.63131
3.42271
3.45612
3.21331
2.85635
3.03988
5.93191
5.65497
4.9357
4.12711
3.47412
3.09007
3.09387
2.95072
2.70956
3.83423
6.0173
5.47841
4.75305
3.99515
3.32791
2.88226
2.77302
2.66754
2.54358
4.41733
5.96354
5.3179
4.57587
3.85552
3.17509
2.73402
2.52819
2.42919
2.40961
5.32319
5.85964
5.16626
4.4136
3.70595
3.00638
2.59585
2.33003
2.24922
2.3644
6.05954
5.69902
4.97362
4.24703
3.54533
2.84167
2.4474
2.15299
2.12549
2.37223
6.44773
5.47047
4.72543
4.04891
3.36845
2.68933
2.28897
1.97946
2.02291
2.49218
6.34512
5.29575
4.49197
3.83325
3.17439
2.53796
2.11839
1.85268
1.95048
2.65433
6.16961
5.12684
4.27974
3.6119
2.97105
2.3929
1.94543
1.74554
1.89809
2.84101
5.97669
4.94191
4.05811
3.37577
2.76549
2.23827
1.77186
1.65904
1.93636
3.01502
5.79728
4.72321
3.81011
3.13107
2.54149
2.07994
1.60504
1.59417
2.0758
3.17111
5.7977
4.72378
3.81054
3.13139
2.54164
2.07993
1.60498
1.59414
2.07577
3.1711
5.97734
4.9425
4.05855
3.37609
2.76561
2.23824
1.77178
1.65902
1.93635
3.01502
6.17041
5.12747
4.28022
3.6122
2.97114
2.39284
1.94536
1.74553
1.89808
2.84102
6.34618
5.29652
4.49249
3.8335
3.17443
2.53788
2.11832
1.85267
1.95047
2.65434
6.44896
5.47119
4.72589
4.04908
3.36842
2.68924
2.28892
1.97945
2.02291
2.49218
6.06019
5.69965
4.97394
4.24705
3.54524
2.84159
2.44736
2.15298
2.12549
2.37223
5.3233
5.86012
5.16639
4.41349
3.70582
3.00632
2.59583
2.33002
2.2492
2.3644
4.41722
5.96371
5.31777
4.57564
3.85539
3.17507
2.73402
2.52818
2.42917
2.4096
3.83398
6.0171
5.47808
4.75277
3.99504
3.32792
2.88227
2.77301
2.66752
2.54357
3.03953
5.93155
5.65457
4.93546
4.12705
3.47415
3.09009
3.09387
2.95072
2.70954
2.39675
5.79641
5.83673
5.10925
4.24371
3.63135
3.42276
3.45613
3.21331
2.85634
1.65458
5.24257
6.06675
5.30702
4.3657
3.87628
3.89652
3.77478
3.42212
2.97084
1.20546
4.55059
6.17757
5.50922
4.55692
4.29289
4.40536
4.02522
3.53673
3.03298
1.05959
3.79452
6.07652
5.6652
4.90389
4.88311
4.81768
4.25406
3.60799
3.05355
1.0482
3.04097
5.87876
5.68165
5.49356
5.51071
5.06945
4.39382
3.67638
3.07884
1.04782
2.20745
5.40358
5.67826
6.18434
6.02834
5.26418
4.44873
3.68507
3.08154
1.04918
1.6319
4.71831
5.83088
6.79582
6.25922
5.39371
4.50992
3.71052
3.10777
1.05257
1.37654
4.09135
6.08826
7.18422
6.45711
5.4732
4.5317
3.6902
3.06825
1.05919
1.30359
3.57181
6.37186
7.35335
6.5535
5.52353
4.53657
3.67818
3.06969
1.07398
1.29347
3.21779
6.61161
7.50851
6.63989
5.55465
4.53127
3.66063
3.04246
1.0288
1.0323
1.03708
1.04297
1.05076
1.05719
1.17697
4.90066
7.29579
6.83512
1.01741
1.01955
1.02241
1.02632
1.03101
1.03719
1.04193
1.98238
6.49185
6.90884
1.01195
1.01333
1.0151
1.01768
1.02059
1.02546
1.02863
1.10215
4.31303
6.92419
1.0093
1.01028
1.01151
1.01325
1.01533
1.01836
1.02236
1.02532
1.75895
5.969
1.00877
1.0097
1.01097
1.01244
1.01448
1.01664
1.02034
1.02308
1.07053
3.97626
1.00872
1.00965
1.01101
1.01258
1.01459
1.01685
1.01978
1.02377
1.02645
1.80203
1.00895
1.00988
1.01111
1.01264
1.01447
1.0169
1.01951
1.02377
1.02709
1.09156
1.00897
1.00993
1.01103
1.01255
1.01418
1.01659
1.01922
1.0232
1.02811
1.03216
1.00874
1.00962
1.01072
1.01217
1.01393
1.0163
1.01916
1.02294
1.02841
1.0328
1.00807
1.00899
1.01019
1.01173
1.01365
1.01609
1.01919
1.0231
1.02864
1.03353
1.00753
1.00843
1.0097
1.01127
1.01332
1.01584
1.0191
1.02314
1.02901
1.03414
1.00728
1.00812
1.00941
1.01085
1.013
1.01533
1.01892
1.02278
1.0292
1.0341
1.00727
1.00811
1.00931
1.01076
1.01272
1.01501
1.01855
1.02222
1.02912
1.03406
1.00749
1.00834
1.00952
1.01098
1.01289
1.01521
1.01829
1.0221
1.02796
1.03417
1.0078
1.00866
1.00983
1.0113
1.01315
1.01548
1.01848
1.02233
1.02741
1.0346
1.00813
1.00902
1.0102
1.01169
1.01352
1.01586
1.01876
1.0226
1.02738
1.03463
1.00849
1.0094
1.01058
1.01211
1.0139
1.01631
1.01905
1.02302
1.02736
1.03507
1.00881
1.00973
1.01088
1.01243
1.01416
1.01658
1.01922
1.02322
1.0276
1.03467
1.00904
1.00995
1.01108
1.01258
1.01431
1.01661
1.01937
1.02309
1.02797
1.03409
1.00921
1.0101
1.01129
1.01268
1.01453
1.01661
1.01961
1.02294
1.02851
1.03372
1
1
1
1
1
1
1
0.999999
0.999914
1.0164
1
1
1
1
1
1
1
1
0.999941
1.00998
1
1
1
1
1
1
1
0.999999
0.999964
1.00697
1
1
1
1
1
1
1
1
0.999986
1.00554
1
1
1
1
1
1
1
1
1.00001
1.00512
1
1
1
1
1
1
1
1
1.00003
1.00504
1
1
1
1
1
1
1
1
1.00004
1.00527
1
1
1
1
1
1
1
1
1.00004
1.00535
1
1
1
1
1
1
1
1
1.00005
1.00522
1
1
1
1
1
1
1
1
1.00005
1.00469
1
1
1
1
1
1
1
1
1.00006
1.00431
1
1
1
1
1
1
1
1
1.00006
1.00416
1
1
1
1
1
1
1
1
1.00006
1.00418
1
1
1
1
1
1
1
1
1.00006
1.00434
1
1
1
1
1
1
1
1
1.00006
1.00455
1
1
1
1
1
1
1
1
1.00006
1.00476
1
1
1
1
1
1
1
1
1.00005
1.00499
1
1
1
1
1
1
1
1
1.00005
1.00522
1
1
1
1
1
1
1
1
1.00005
1.0054
1
1
1
1
1
1
1
1
1.00005
1.00548
1
1
1
1
1
1
1
1
1.00005
1.00548
1
1
1
1
1
1
1
1
1.00005
1.0054
1
1
1
1
1
1
1
1
1.00005
1.00522
1
1
1
1
1
1
1
1
1.00005
1.00499
1
1
1
1
1
1
1
1
1.00006
1.00476
1
1
1
1
1
1
1
1
1.00006
1.00455
1
1
1
1
1
1
1
1
1.00006
1.00434
1
1
1
1
1
1
1
1
1.00006
1.00418
1
1
1
1
1
1
1
1
1.00006
1.00416
1
1
1
1
1
1
1
1
1.00006
1.00431
1
1
1
1
1
1
1
1
1.00005
1.00469
1
1
1
1
1
1
1
1
1.00005
1.00522
1
1
1
1
1
1
1
1
1.00004
1.00535
1
1
1
1
1
1
1
1
1.00004
1.00527
1
1
1
1
1
1
1
1
1.00003
1.00504
1
1
1
1
1
1
1
1
1.00001
1.00512
1
1
1
1
1
1
1
1
0.999986
1.00554
1
1
1
1
1
1
1
0.999999
0.999964
1.00697
1
1
1
1
1
1
1
1
0.999941
1.00998
1
1
1
1
1
1
1
0.999999
0.999914
1.01641
1.00921
1.01009
1.01129
1.01268
1.01453
1.01662
1.01962
1.02294
1.02851
1.03372
1.00904
1.00995
1.01108
1.01258
1.01431
1.01661
1.01937
1.02309
1.02797
1.03409
1.00881
1.00973
1.01088
1.01243
1.01416
1.01658
1.01922
1.02322
1.0276
1.03467
1.00849
1.0094
1.01058
1.01211
1.0139
1.01631
1.01906
1.02302
1.02737
1.03507
1.00813
1.00902
1.0102
1.01169
1.01352
1.01586
1.01876
1.0226
1.02738
1.03463
1.0078
1.00866
1.00983
1.0113
1.01315
1.01548
1.01848
1.02233
1.02741
1.0346
1.00749
1.00834
1.00952
1.01098
1.01289
1.01521
1.01829
1.0221
1.02796
1.03417
1.00727
1.00811
1.00931
1.01076
1.01272
1.01501
1.01855
1.02222
1.02912
1.03406
1.00728
1.00812
1.00941
1.01085
1.013
1.01533
1.01892
1.02278
1.0292
1.0341
1.00753
1.00843
1.0097
1.01127
1.01332
1.01584
1.0191
1.02314
1.02901
1.03414
1.00807
1.00899
1.01019
1.01173
1.01365
1.01609
1.01919
1.0231
1.02864
1.03353
1.00874
1.00962
1.01072
1.01217
1.01393
1.0163
1.01916
1.02294
1.02841
1.0328
1.00897
1.00993
1.01103
1.01255
1.01418
1.01659
1.01922
1.0232
1.0281
1.03216
1.00895
1.00988
1.01111
1.01264
1.01447
1.0169
1.01951
1.02377
1.02709
1.09158
1.00872
1.00965
1.01101
1.01258
1.01459
1.01685
1.01978
1.02377
1.02645
1.80191
1.00877
1.00969
1.01097
1.01244
1.01448
1.01663
1.02034
1.02308
1.07041
3.97526
1.0093
1.01028
1.01151
1.01325
1.01533
1.01836
1.02237
1.02532
1.75765
5.9673
1.01196
1.01334
1.0151
1.01768
1.0206
1.02547
1.02864
1.1017
4.30963
6.92301
1.01742
1.01956
1.02243
1.02634
1.03103
1.03721
1.04193
1.97857
6.48871
6.90833
1.02881
1.03232
1.03711
1.04299
1.05079
1.05722
1.17598
4.89449
7.29519
6.83508
)
;

boundaryField
{
    inlet
    {
        type            fixedValue;
        value           uniform 1;
    }
    outlet
    {
        type            zeroGradient;
    }
    triangle
    {
        type            zeroGradient;
    }
    top
    {
        type            symmetryPlane;
    }
    bottom
    {
        type            symmetryPlane;
    }
    defaultFaces
    {
        type            empty;
    }
}


// ************************************************************************* //
