/*--------------------------------*- C++ -*----------------------------------*\
  =========                 |
  \\      /  F ield         | OpenFOAM: The Open Source CFD Toolbox
   \\    /   O peration     | Website:  https://openfoam.org
    \\  /    A nd           | Version:  7
     \\/     M anipulation  |
\*---------------------------------------------------------------------------*/
FoamFile
{
    version     2.0;
    format      ascii;
    class       volScalarField;
    location    "0.7";
    object      rho;
}
// * * * * * * * * * * * * * * * * * * * * * * * * * * * * * * * * * * * * * //

dimensions      [1 -3 0 0 0 0 0];

internalField   nonuniform List<scalar> 
2600
(
0.864797
1.00389
1.18805
1.57099
2.07341
2.28229
2.36081
2.46655
2.62481
2.86811
0.948372
0.98395
1.184
1.61151
2.07538
2.25318
2.3113
2.40366
2.58261
2.83637
0.988913
0.969173
1.19751
1.6422
2.05793
2.20559
2.22679
2.29299
2.4937
2.78064
1.03625
0.996964
1.23378
1.6618
2.01731
2.11476
2.10836
2.1777
2.39345
2.71476
1.07195
1.01954
1.28044
1.66029
1.9437
1.99128
1.98706
2.06667
2.28905
2.64896
1.10026
1.03279
1.30759
1.61046
1.82545
1.86854
1.88645
1.99369
2.21928
2.60935
1.11015
1.03159
1.29351
1.54718
1.70525
1.77086
1.83066
1.97232
2.20287
2.59944
1.10832
1.02868
1.27053
1.46733
1.62267
1.7337
1.81515
1.97751
2.21278
2.60358
1.10222
1.02269
1.25093
1.43899
1.60421
1.71854
1.81742
1.9855
2.23695
2.61748
1.09737
1.02719
1.24414
1.43835
1.60396
1.70851
1.81644
1.99549
2.24956
2.61603
1.09732
1.0272
1.24432
1.43938
1.59858
1.70195
1.81502
1.99908
2.24102
2.62351
1.10209
1.02264
1.25116
1.44118
1.59721
1.71527
1.8161
1.9924
2.23199
2.61586
1.10813
1.02858
1.27066
1.46686
1.62304
1.73004
1.81518
1.97734
2.21491
2.60555
1.10992
1.03139
1.29345
1.54571
1.70785
1.77555
1.83089
1.97396
2.20497
2.60039
1.10005
1.03255
1.30741
1.61086
1.8269
1.86945
1.88487
1.99213
2.21998
2.60962
1.07177
1.01935
1.28038
1.66101
1.94119
1.99401
1.98644
2.06459
2.28822
2.64879
1.03612
0.996847
1.23381
1.66175
2.01694
2.11398
2.10874
2.17375
2.38904
2.71324
0.988861
0.969042
1.19749
1.64184
2.05888
2.20322
2.22539
2.29152
2.49468
2.78147
0.94835
0.983796
1.18395
1.61129
2.07603
2.25116
2.31251
2.4102
2.58889
2.83859
0.864774
1.00374
1.18796
1.57115
2.07267
2.28184
2.3632
2.46887
2.6246
2.86709
1.16048
1.03972
1.16666
1.49385
2.02207
2.29801
2.40601
2.4946
2.63576
2.87311
1.52685
1.10461
1.17991
1.37532
1.9061
2.28743
2.43513
2.51955
2.64785
2.87533
1.82527
1.24316
1.23527
1.27535
1.71409
2.24514
2.44687
2.53544
2.66922
2.88147
2.05832
1.41822
1.3131
1.29941
1.5141
2.15123
2.455
2.53109
2.67456
2.88554
2.24556
1.59792
1.42624
1.3467
1.38222
1.99706
2.44558
2.51933
2.67479
2.88781
2.4015
1.76603
1.5433
1.42956
1.38631
1.81539
2.40628
2.49728
2.67707
2.89289
2.53635
1.92181
1.66726
1.52117
1.41987
1.64456
2.3039
2.48055
2.67974
2.90178
2.66119
2.06086
1.79179
1.62758
1.47913
1.52231
2.16156
2.47758
2.68321
2.91611
2.77861
2.19106
1.9139
1.73643
1.54095
1.49115
2.00987
2.46724
2.68429
2.93055
2.9112
2.31248
2.03369
1.85497
1.61049
1.50447
1.85393
2.42577
2.66892
2.94128
3.07005
2.43888
2.15189
1.96545
1.69626
1.53895
1.71287
2.34991
2.64944
2.95337
3.25362
2.57695
2.26813
2.07871
1.79293
1.58518
1.61323
2.2521
2.62387
2.97037
3.4716
2.73618
2.38951
2.18139
1.88467
1.63795
1.58451
2.14005
2.61257
2.99295
3.67755
2.90867
2.50999
2.28381
1.98069
1.69954
1.57371
2.02976
2.59536
3.01395
3.83302
3.08219
2.63604
2.37732
2.06931
1.76913
1.57591
1.91793
2.56736
3.02794
3.97799
3.23007
2.75729
2.46664
2.15127
1.85275
1.59195
1.81875
2.52377
3.02854
4.15404
3.37195
2.87566
2.5578
2.22893
1.92107
1.61454
1.74896
2.46648
3.02394
4.17251
3.52404
3.01144
2.64226
2.30315
1.99885
1.64892
1.70962
2.39912
3.01166
4.15595
3.55767
3.07573
2.72154
2.37187
2.06703
1.68212
1.71768
2.32789
2.99372
4.12049
3.61605
3.16014
2.80042
2.44146
2.12967
1.722
1.7385
2.2491
2.97102
4.13355
4.04594
3.92599
3.80755
3.6985
3.59927
3.50461
3.40799
3.27539
3.07275
3.95624
3.90735
3.80111
3.71588
3.63365
3.55288
3.46829
3.36736
3.21988
2.97103
3.9771
3.97713
3.87082
3.78722
3.69524
3.60747
3.51627
3.40439
3.2473
3.00559
3.97172
4.02457
3.92247
3.84712
3.76327
3.67843
3.57771
3.44918
3.2781
3.01944
3.95293
4.07528
3.9926
3.93188
3.85207
3.76561
3.65362
3.5077
3.32108
3.05451
3.91709
4.14471
4.08018
4.02823
3.94646
3.85425
3.73068
3.57332
3.37605
3.10825
3.87933
4.28947
4.23624
4.18955
4.09423
3.97539
3.81665
3.64457
3.44003
3.17643
3.64133
4.41868
4.48553
4.4107
4.26471
4.09802
3.90998
3.72913
3.51736
3.26191
3.01475
4.39156
4.76765
4.66553
4.48932
4.28016
4.05507
3.87087
3.61842
3.3746
2.41855
3.56003
4.96197
4.88423
4.71512
4.50554
4.24645
4.051
3.7457
3.53135
2.06589
2.42366
4.17704
5.11371
4.94455
4.73321
4.47975
4.2727
3.92955
3.74726
1.89101
1.9437
2.65894
4.59437
5.11069
4.97289
4.75513
4.55569
4.18423
3.9809
1.77649
1.79947
1.88058
3.14982
4.81296
5.0598
4.97326
4.82448
4.49779
4.2369
1.68831
1.71259
1.73795
1.95966
3.8211
5.04612
5.22509
5.0647
4.71694
4.40424
1.61627
1.63602
1.66094
1.68624
2.34565
4.50768
5.39578
5.20381
4.88585
4.52594
1.56031
1.57262
1.58754
1.60257
1.66766
3.501
5.24269
5.13117
4.85692
4.63351
1.51913
1.52801
1.53787
1.55307
1.56642
2.27795
4.88436
5.15617
4.87067
4.6469
1.4893
1.4967
1.50555
1.51701
1.52659
1.633
4.03623
5.11608
4.86358
4.66249
1.46402
1.47001
1.47858
1.48699
1.49711
1.51224
3.08762
4.87268
4.7069
4.55667
1.44454
1.44943
1.45648
1.46389
1.47332
1.48341
2.1444
4.61802
4.68351
4.51172
1.40001
1.40001
1.40001
1.40001
1.40001
1.40001
1.40001
1.4
1.39936
2.27596
1.40001
1.40001
1.40001
1.40001
1.40001
1.40001
1.40001
1.40001
1.39935
2.2653
1.40001
1.40001
1.40001
1.40001
1.40001
1.40001
1.40001
1.40001
1.39935
2.25713
1.40001
1.40001
1.40001
1.40001
1.40001
1.40001
1.40001
1.40001
1.39937
2.23902
1.40001
1.40001
1.40001
1.40001
1.40001
1.40001
1.40001
1.40001
1.39938
2.20525
1.40001
1.40001
1.40001
1.40001
1.40001
1.40001
1.40001
1.40001
1.3994
2.15743
1.40001
1.40001
1.40001
1.40001
1.40001
1.40001
1.40001
1.40001
1.39943
2.09491
1.40001
1.40001
1.40001
1.40001
1.40001
1.40001
1.40001
1.40001
1.39946
2.01638
1.40001
1.40001
1.40001
1.40001
1.40001
1.40001
1.40001
1.40001
1.39949
1.92963
1.40001
1.40001
1.40001
1.40001
1.40001
1.40001
1.40001
1.40001
1.39953
1.84478
1.40001
1.40001
1.40001
1.40001
1.40001
1.40001
1.40001
1.40001
1.39957
1.769
1.40001
1.40001
1.40001
1.40001
1.40001
1.40001
1.40001
1.40001
1.39961
1.69965
1.40001
1.40001
1.40001
1.40001
1.40001
1.40001
1.40001
1.40001
1.39965
1.63896
1.40001
1.40001
1.40001
1.40001
1.40001
1.40001
1.40001
1.40001
1.39969
1.5775
1.40001
1.40001
1.40001
1.40001
1.40001
1.40001
1.40001
1.40001
1.39973
1.53235
1.40001
1.40001
1.40001
1.40001
1.40001
1.40001
1.40001
1.40001
1.39977
1.50346
1.40001
1.40001
1.40001
1.40001
1.40001
1.40001
1.40001
1.40001
1.39981
1.47601
1.40001
1.40001
1.40001
1.40001
1.40001
1.40001
1.40001
1.40001
1.39984
1.45428
1.40001
1.40001
1.40001
1.40001
1.40001
1.40001
1.40001
1.40001
1.39987
1.43754
1.40001
1.40001
1.40001
1.40001
1.40001
1.40001
1.40001
1.40001
1.39989
1.42558
1.40001
1.40001
1.40001
1.40001
1.40001
1.40001
1.40001
1.40001
1.3999
1.42559
1.40001
1.40001
1.40001
1.40001
1.40001
1.40001
1.40001
1.40001
1.39987
1.43755
1.40001
1.40001
1.40001
1.40001
1.40001
1.40001
1.40001
1.40001
1.39984
1.45429
1.40001
1.40001
1.40001
1.40001
1.40001
1.40001
1.40001
1.40001
1.39981
1.47601
1.40001
1.40001
1.40001
1.40001
1.40001
1.40001
1.40001
1.40001
1.39978
1.50347
1.40001
1.40001
1.40001
1.40001
1.40001
1.40001
1.40001
1.40001
1.39974
1.53236
1.40001
1.40001
1.40001
1.40001
1.40001
1.40001
1.40001
1.40001
1.39969
1.57749
1.40001
1.40001
1.40001
1.40001
1.40001
1.40001
1.40001
1.40001
1.39965
1.63899
1.40001
1.40001
1.40001
1.40001
1.40001
1.40001
1.40001
1.40001
1.39961
1.69973
1.40001
1.40001
1.40001
1.40001
1.40001
1.40001
1.40001
1.40001
1.39957
1.76909
1.40001
1.40001
1.40001
1.40001
1.40001
1.40001
1.40001
1.40001
1.39953
1.8449
1.40001
1.40001
1.40001
1.40001
1.40001
1.40001
1.40001
1.40001
1.39949
1.92974
1.40001
1.40001
1.40001
1.40001
1.40001
1.40001
1.40001
1.40001
1.39945
2.01646
1.40001
1.40001
1.40001
1.40001
1.40001
1.40001
1.40001
1.40001
1.39942
2.09485
1.40001
1.40001
1.40001
1.40001
1.40001
1.40001
1.40001
1.40001
1.3994
2.15728
1.40001
1.40001
1.40001
1.40001
1.40001
1.40001
1.40001
1.40001
1.39938
2.20507
1.40001
1.40001
1.40001
1.40001
1.40001
1.40001
1.40001
1.40001
1.39937
2.23891
1.40001
1.40001
1.40001
1.40001
1.40001
1.40001
1.40001
1.40001
1.39935
2.25709
1.40001
1.40001
1.40001
1.40001
1.40001
1.40001
1.40001
1.40001
1.39935
2.26531
1.40001
1.40001
1.40001
1.40001
1.40001
1.40001
1.40001
1.4
1.39936
2.27598
1.44456
1.44945
1.4565
1.46392
1.47335
1.48344
2.1416
4.61708
4.68375
4.51167
1.46405
1.47003
1.47861
1.48702
1.49715
1.51224
3.08389
4.87181
4.70651
4.55639
1.48933
1.49673
1.50558
1.51703
1.52662
1.63197
4.0319
5.11573
4.86349
4.66244
1.51915
1.52803
1.53789
1.55309
1.56643
2.27405
4.88167
5.15707
4.87141
4.64713
1.56031
1.57262
1.58753
1.60258
1.66715
3.49675
5.24155
5.13088
4.85702
4.63341
1.61624
1.63598
1.66092
1.68615
2.34236
4.50404
5.39545
5.20349
4.88587
4.52604
1.68833
1.71261
1.73798
1.95838
3.81722
5.04419
5.22522
5.06526
4.71732
4.40453
1.77654
1.79954
1.8804
3.146
4.8113
5.05957
4.97357
4.82494
4.49833
4.23735
1.89106
1.94369
2.65728
4.59177
5.10996
4.97278
4.75521
4.55603
4.18476
3.98141
2.06597
2.42317
4.17509
5.11218
4.94377
4.73305
4.48001
4.27298
3.92984
3.74766
2.41857
3.55886
4.96032
4.88345
4.71476
4.50546
4.24647
4.05099
3.74563
3.53152
3.01461
4.39016
4.76682
4.66487
4.48873
4.2798
4.05471
3.87056
3.61797
3.37445
3.64089
4.41767
4.48445
4.40962
4.2637
4.09723
3.90921
3.72849
3.51663
3.26145
3.87845
4.28809
4.23485
4.18821
4.09297
3.97421
3.81549
3.64354
3.43909
3.17579
3.91589
4.1431
4.07861
4.02665
3.94497
3.85281
3.72922
3.57203
3.37491
3.10749
3.95159
4.07355
3.99098
3.93021
3.85046
3.76405
3.65204
3.50628
3.31983
3.05364
3.97052
4.02292
3.92092
3.84555
3.76169
3.6769
3.5762
3.4478
3.27685
3.01849
3.97625
3.97588
3.86959
3.78591
3.69385
3.60609
3.51495
3.40315
3.24616
3.00465
3.95569
3.90656
3.8002
3.71487
3.63258
3.55177
3.46721
3.36634
3.21883
2.97
4.13337
4.0455
3.92528
3.8066
3.69743
3.5981
3.50347
3.40697
3.27443
3.07183
4.12032
3.61572
3.15988
2.80024
2.44139
2.12968
1.72202
1.73852
2.24914
2.97104
4.15579
3.55747
3.07555
2.72136
2.37179
2.06704
1.68214
1.7177
2.32799
2.99375
4.17244
3.52435
3.01135
2.64208
2.30305
1.99885
1.64895
1.70966
2.3992
3.01168
4.154
3.37184
2.87547
2.55762
2.22882
1.92107
1.61456
1.74903
2.46645
3.02395
3.97807
3.23003
2.75711
2.46646
2.15116
1.85274
1.59198
1.81873
2.52362
3.02851
3.83321
3.08217
2.63584
2.37714
2.06921
1.76912
1.57593
1.91782
2.56716
3.02788
3.67779
2.90865
2.5098
2.28363
1.98059
1.69952
1.57373
2.02968
2.59526
3.01383
3.47194
2.73611
2.38929
2.18123
1.88458
1.63794
1.58452
2.14021
2.61261
2.99288
3.25389
2.57681
2.26792
2.07857
1.79285
1.58517
1.6132
2.25235
2.62396
2.97042
3.07025
2.43871
2.1517
1.96532
1.69618
1.53894
1.71294
2.34985
2.64949
2.9535
2.91127
2.31233
2.03354
1.85486
1.61042
1.50446
1.85437
2.42563
2.66881
2.94135
2.77855
2.19094
1.91381
1.73632
1.54091
1.49113
2.01073
2.4673
2.68417
2.93043
2.66103
2.06081
1.79173
1.6275
1.47906
1.5222
2.16205
2.47792
2.68341
2.91592
2.53612
1.92177
1.66725
1.52111
1.41977
1.64381
2.30314
2.48098
2.68041
2.90198
2.40123
1.76601
1.54331
1.42949
1.38625
1.81439
2.40473
2.49809
2.67779
2.89336
2.24532
1.59793
1.42626
1.34665
1.38222
1.99719
2.44421
2.519
2.6748
2.88806
2.05817
1.41826
1.31306
1.29931
1.51413
2.15238
2.45403
2.53027
2.67382
2.88512
1.82518
1.24323
1.23533
1.27525
1.7134
2.24609
2.44694
2.53499
2.66798
2.88038
1.52684
1.1047
1.17991
1.37532
1.90544
2.28768
2.43682
2.52152
2.64993
2.87528
1.16052
1.03988
1.16677
1.49381
2.02266
2.29794
2.40649
2.49729
2.63852
2.87448
1.4735
1.67805
3.13097
5.23694
5.64585
5.14477
4.47721
3.81847
3.2488
2.86845
1.45875
1.69045
3.35984
5.09746
5.56325
5.09446
4.45445
3.81888
3.26022
2.88672
1.45199
1.76494
3.68682
4.92391
5.47197
5.03328
4.41303
3.81071
3.26939
2.88588
1.44859
1.99311
4.07069
4.75618
5.25991
4.91009
4.35209
3.79277
3.28414
2.91229
1.44724
2.40375
4.44911
4.64903
4.92118
4.7595
4.26955
3.75598
3.26891
2.89405
1.44762
2.86776
4.68974
4.62607
4.51324
4.45621
4.16033
3.72623
3.26208
2.88998
1.45949
3.25419
4.78439
4.59825
4.15625
4.08534
4.00647
3.64132
3.21687
2.8706
1.60325
3.69579
4.82366
4.48437
3.93129
3.71721
3.75139
3.4977
3.16856
2.85377
1.94182
4.04085
4.68405
4.32682
3.795
3.45458
3.42936
3.332
3.08823
2.8094
2.24939
4.24193
4.43524
4.17525
3.70545
3.29412
3.11822
3.11715
2.94612
2.73116
2.42336
4.28759
4.28226
4.04157
3.61744
3.18612
2.89637
2.87074
2.76388
2.63143
2.82302
4.34232
4.17093
3.91217
3.5243
3.0891
2.75478
2.64649
2.56417
2.51823
3.20018
4.3009
4.06286
3.7953
3.43433
2.9923
2.65175
2.47001
2.39681
2.42338
3.76874
4.19335
3.9541
3.69072
3.34171
2.8859
2.5566
2.32332
2.27475
2.3863
4.19446
4.06434
3.82857
3.58507
3.24081
2.77873
2.45427
2.19171
2.18732
2.39031
4.36453
3.93297
3.69331
3.46439
3.12547
2.67429
2.34258
2.06708
2.10482
2.4714
4.2933
3.84558
3.57266
3.3333
2.99455
2.56566
2.21906
1.97458
2.04756
2.57569
4.18754
3.7786
3.46825
3.19785
2.85401
2.45839
2.09019
1.89302
2.00769
2.69523
4.1263
3.72336
3.3665
3.05524
2.71068
2.34246
1.95527
1.82642
2.03685
2.80943
4.10818
3.67394
3.2577
2.90947
2.55392
2.22251
1.81534
1.78215
2.13775
2.91261
4.1084
3.67424
3.25794
2.90963
2.55398
2.22248
1.81531
1.78214
2.13775
2.91261
4.12659
3.72366
3.36672
3.05538
2.71071
2.34243
1.95523
1.82642
2.03685
2.80944
4.18788
3.77891
3.46848
3.19795
2.85401
2.45835
2.09017
1.89302
2.00769
2.69524
4.29372
3.84594
3.57288
3.33337
2.99452
2.56562
2.21904
1.97458
2.04756
2.57569
4.36499
3.9333
3.69348
3.4644
3.12542
2.67424
2.34257
2.06709
2.10482
2.47139
4.19464
4.06458
3.82865
3.58502
3.24074
2.7787
2.45427
2.19171
2.18732
2.39031
3.76864
4.19347
3.95408
3.69062
3.34164
2.88588
2.5566
2.32332
2.27475
2.3863
3.20005
4.30084
4.06276
3.79519
3.43428
2.9923
2.65175
2.47001
2.3968
2.42338
2.82289
4.34218
4.17078
3.91208
3.52427
3.08911
2.75478
2.64649
2.56417
2.51823
2.42323
4.28741
4.28212
4.04151
3.61743
3.18613
2.89638
2.87074
2.76388
2.63143
2.24926
4.24178
4.43514
4.17521
3.70545
3.29413
3.11822
3.11715
2.94612
2.73116
1.94173
4.04075
4.68398
4.3268
3.795
3.45458
3.42937
3.332
3.08823
2.8094
1.60322
3.69572
4.82363
4.48437
3.9313
3.71721
3.7514
3.49771
3.16856
2.85377
1.45949
3.25417
4.78438
4.59825
4.15625
4.08535
4.00647
3.64132
3.21687
2.8706
1.44762
2.86776
4.68974
4.62607
4.51324
4.45621
4.16033
3.72624
3.26208
2.88997
1.44724
2.40376
4.44911
4.64904
4.92119
4.7595
4.26955
3.75598
3.26891
2.89405
1.44859
1.99311
4.07069
4.75619
5.25992
4.91009
4.35209
3.79276
3.28413
2.91229
1.45199
1.76494
3.68682
4.92391
5.47197
5.03328
4.41303
3.81071
3.26938
2.88587
1.45875
1.69045
3.35983
5.09746
5.56325
5.09446
4.45445
3.81888
3.26022
2.88672
1.4735
1.67805
3.13096
5.23694
5.64586
5.14477
4.4772
3.81847
3.2488
2.86844
1.4286
1.43206
1.43679
1.44259
1.45027
1.45658
1.55946
3.59571
4.73128
4.53267
1.41731
1.41943
1.42227
1.42614
1.43078
1.43692
1.4415
2.11527
4.42633
4.54571
1.41188
1.41325
1.41501
1.41756
1.42045
1.42526
1.42842
1.49274
3.31749
4.53251
1.40924
1.41022
1.41143
1.41316
1.41522
1.41821
1.4222
1.42506
1.96301
4.14318
1.40872
1.40963
1.41089
1.41234
1.41437
1.4165
1.42016
1.42288
1.46435
3.08413
1.40866
1.40959
1.41093
1.41249
1.41447
1.41672
1.4196
1.42356
1.42617
1.9579
1.40889
1.40982
1.41103
1.41255
1.41436
1.41676
1.41934
1.42355
1.42683
1.48214
1.40891
1.40986
1.41095
1.41245
1.41407
1.41645
1.41905
1.42298
1.42783
1.43178
1.40868
1.40955
1.41065
1.41208
1.41382
1.41616
1.41899
1.42273
1.42812
1.43245
1.40802
1.40892
1.41012
1.41164
1.41354
1.41596
1.41902
1.42288
1.42834
1.43318
1.40748
1.40836
1.40963
1.41118
1.41321
1.4157
1.41893
1.42292
1.42871
1.43378
1.40722
1.40805
1.40933
1.41076
1.41289
1.4152
1.41875
1.42256
1.4289
1.43372
1.40721
1.40804
1.40923
1.41067
1.41261
1.41488
1.41837
1.422
1.42882
1.43368
1.40743
1.40827
1.40945
1.41089
1.41278
1.41507
1.41812
1.42188
1.42768
1.43375
1.40774
1.40859
1.40975
1.4112
1.41303
1.41534
1.4183
1.42211
1.42712
1.43419
1.40807
1.40895
1.41012
1.41159
1.41341
1.41572
1.41859
1.42238
1.42709
1.43422
1.40843
1.40933
1.4105
1.41201
1.41378
1.41617
1.41888
1.42279
1.42707
1.43465
1.40874
1.40966
1.4108
1.41233
1.41404
1.41643
1.41904
1.42299
1.4273
1.43425
1.40897
1.40988
1.411
1.41248
1.41419
1.41646
1.41919
1.42286
1.42767
1.43367
1.40914
1.41002
1.41121
1.41257
1.41441
1.41647
1.41943
1.42271
1.4282
1.43331
1.40001
1.40001
1.40001
1.40001
1.40001
1.40001
1.40001
1.4
1.39992
1.41632
1.40001
1.40001
1.40001
1.40001
1.40001
1.40001
1.4
1.4
1.39995
1.40993
1.40001
1.40001
1.40001
1.40001
1.40001
1.40001
1.4
1.4
1.39997
1.40694
1.40001
1.40001
1.40001
1.40001
1.40001
1.40001
1.4
1.4
1.39999
1.40551
1.40001
1.40001
1.40001
1.40001
1.40001
1.40001
1.4
1.40001
1.40001
1.40509
1.40001
1.40001
1.40001
1.40001
1.40001
1.40001
1.4
1.40001
1.40003
1.40501
1.40001
1.40001
1.40001
1.40001
1.40001
1.40001
1.4
1.40001
1.40004
1.40524
1.40001
1.40001
1.40001
1.40001
1.40001
1.40001
1.4
1.40001
1.40005
1.40532
1.40001
1.40001
1.40001
1.40001
1.40001
1.40001
1.4
1.40001
1.40005
1.40519
1.40001
1.40001
1.40001
1.40001
1.40001
1.40001
1.4
1.40001
1.40006
1.40466
1.40001
1.40001
1.40001
1.40001
1.40001
1.40001
1.4
1.40001
1.40006
1.40428
1.40001
1.40001
1.40001
1.40001
1.40001
1.40001
1.4
1.40001
1.40007
1.40413
1.40001
1.40001
1.40001
1.40001
1.40001
1.40001
1.4
1.40001
1.40007
1.40415
1.40001
1.40001
1.40001
1.40001
1.40001
1.40001
1.4
1.40001
1.40007
1.40431
1.40001
1.40001
1.40001
1.40001
1.40001
1.40001
1.4
1.40001
1.40006
1.40451
1.40001
1.40001
1.40001
1.40001
1.40001
1.40001
1.4
1.40001
1.40006
1.40473
1.40001
1.40001
1.40001
1.40001
1.40001
1.40001
1.40001
1.40001
1.40006
1.40495
1.40001
1.40001
1.40001
1.40001
1.40001
1.40001
1.40001
1.40001
1.40006
1.40519
1.40001
1.40001
1.40001
1.40001
1.40001
1.40001
1.40001
1.40001
1.40005
1.40536
1.40001
1.40001
1.40001
1.40001
1.40001
1.40001
1.40001
1.40001
1.40005
1.40544
1.40001
1.40001
1.40001
1.40001
1.40001
1.40001
1.40001
1.40001
1.40005
1.40544
1.40001
1.40001
1.40001
1.40001
1.40001
1.40001
1.40001
1.40001
1.40005
1.40536
1.40001
1.40001
1.40001
1.40001
1.40001
1.40001
1.40001
1.40001
1.40006
1.40519
1.40001
1.40001
1.40001
1.40001
1.40001
1.40001
1.40001
1.40001
1.40006
1.40495
1.40001
1.40001
1.40001
1.40001
1.40001
1.40001
1.4
1.40001
1.40006
1.40473
1.40001
1.40001
1.40001
1.40001
1.40001
1.40001
1.4
1.40001
1.40006
1.40451
1.40001
1.40001
1.40001
1.40001
1.40001
1.40001
1.4
1.40001
1.40007
1.40431
1.40001
1.40001
1.40001
1.40001
1.40001
1.40001
1.4
1.40001
1.40007
1.40415
1.40001
1.40001
1.40001
1.40001
1.40001
1.40001
1.4
1.40001
1.40007
1.40413
1.40001
1.40001
1.40001
1.40001
1.40001
1.40001
1.4
1.40001
1.40006
1.40428
1.40001
1.40001
1.40001
1.40001
1.40001
1.40001
1.4
1.40001
1.40006
1.40466
1.40001
1.40001
1.40001
1.40001
1.40001
1.40001
1.4
1.40001
1.40005
1.40519
1.40001
1.40001
1.40001
1.40001
1.40001
1.40001
1.4
1.40001
1.40005
1.40532
1.40001
1.40001
1.40001
1.40001
1.40001
1.40001
1.4
1.40001
1.40004
1.40524
1.40001
1.40001
1.40001
1.40001
1.40001
1.40001
1.4
1.40001
1.40003
1.40501
1.40001
1.40001
1.40001
1.40001
1.40001
1.40001
1.4
1.40001
1.40001
1.40509
1.40001
1.40001
1.40001
1.40001
1.40001
1.40001
1.4
1.4
1.39999
1.40551
1.40001
1.40001
1.40001
1.40001
1.40001
1.40001
1.4
1.4
1.39997
1.40694
1.40001
1.40001
1.40001
1.40001
1.40001
1.40001
1.4
1.4
1.39995
1.40994
1.40001
1.40001
1.40001
1.40001
1.40001
1.40001
1.40001
1.4
1.39992
1.41633
1.40914
1.41002
1.41121
1.41257
1.41441
1.41647
1.41943
1.42271
1.4282
1.43331
1.40897
1.40988
1.411
1.41248
1.41419
1.41646
1.41919
1.42286
1.42767
1.43367
1.40874
1.40966
1.4108
1.41233
1.41404
1.41643
1.41904
1.42299
1.4273
1.43425
1.40843
1.40933
1.4105
1.41201
1.41378
1.41617
1.41888
1.42279
1.42707
1.43465
1.40807
1.40895
1.41012
1.41159
1.41341
1.41572
1.41859
1.42238
1.42709
1.43422
1.40774
1.40859
1.40975
1.4112
1.41303
1.41534
1.4183
1.42211
1.42712
1.43419
1.40743
1.40827
1.40944
1.41089
1.41278
1.41507
1.41812
1.42188
1.42768
1.43375
1.40721
1.40804
1.40923
1.41067
1.41261
1.41488
1.41837
1.422
1.42882
1.43368
1.40722
1.40805
1.40933
1.41076
1.41289
1.4152
1.41875
1.42256
1.4289
1.43372
1.40748
1.40836
1.40963
1.41118
1.41321
1.4157
1.41892
1.42292
1.42871
1.43378
1.40802
1.40892
1.41012
1.41164
1.41354
1.41596
1.41902
1.42288
1.42834
1.43318
1.40868
1.40955
1.41065
1.41208
1.41381
1.41616
1.41899
1.42272
1.42812
1.43245
1.40891
1.40986
1.41095
1.41245
1.41407
1.41645
1.41905
1.42298
1.42783
1.43178
1.40889
1.40982
1.41103
1.41255
1.41436
1.41676
1.41934
1.42355
1.42683
1.48219
1.40866
1.40959
1.41093
1.41249
1.41447
1.41672
1.4196
1.42356
1.42617
1.95806
1.40872
1.40963
1.41089
1.41234
1.41437
1.4165
1.42016
1.42288
1.46432
3.08407
1.40924
1.41022
1.41143
1.41316
1.41522
1.41821
1.4222
1.42506
1.96265
4.14284
1.41188
1.41325
1.41501
1.41756
1.42045
1.42527
1.42842
1.4925
3.31658
4.53217
1.41732
1.41944
1.42228
1.42615
1.43079
1.43694
1.4415
2.11373
4.42562
4.54554
1.42861
1.43208
1.43681
1.44261
1.4503
1.45661
1.55886
3.59361
4.73115
4.53268
)
;

boundaryField
{
    inlet
    {
        type            calculated;
        value           uniform 1.40001;
    }
    outlet
    {
        type            calculated;
        value           nonuniform List<scalar> 
100
(
2.91276
2.80956
2.6954
2.57586
2.47164
2.39045
2.38662
2.42431
2.51974
2.63274
2.73195
2.80967
2.85357
2.87004
2.88943
2.89354
2.91164
2.88542
2.88639
2.86807
2.87345
2.8755
2.88156
2.88574
2.88808
2.89313
2.90196
2.91627
2.93086
2.9417
2.95376
2.97067
2.99319
3.01421
3.02835
3.02898
3.02435
3.012
2.994
2.97125
2.86842
2.83641
2.78094
2.71532
2.64957
2.61005
2.60018
2.60427
2.61825
2.61686
2.62408
2.61651
2.60636
2.60113
2.61033
2.64943
2.71376
2.78171
2.8387
2.86744
2.97127
2.99403
3.01203
3.02436
3.02895
3.02828
3.01409
2.99312
2.97072
2.95389
2.94177
2.93074
2.91609
2.90217
2.8936
2.88832
2.88529
2.88048
2.8755
2.87483
2.86807
2.88639
2.88542
2.91164
2.89354
2.88943
2.87005
2.85357
2.80968
2.73195
2.63274
2.51974
2.42431
2.38662
2.39045
2.47164
2.57586
2.6954
2.80955
2.91275
)
;
    }
    triangle
    {
        type            calculated;
        value           nonuniform List<scalar> 
40
(
4.13355
4.04594
3.92599
3.80755
3.6985
3.59927
3.50461
3.40799
3.27539
3.07275
0.864797
0.948372
0.988913
1.03625
1.07195
1.10026
1.11015
1.10832
1.10222
1.09737
1.09732
1.10209
1.10813
1.10992
1.10005
1.07177
1.03612
0.988861
0.94835
0.864774
4.13337
4.0455
3.92528
3.8066
3.69743
3.5981
3.50347
3.40697
3.27443
3.07183
)
;
    }
    top
    {
        type            symmetryPlane;
    }
    bottom
    {
        type            symmetryPlane;
    }
    defaultFaces
    {
        type            empty;
    }
}


// ************************************************************************* //
