/*--------------------------------*- C++ -*----------------------------------*\
  =========                 |
  \\      /  F ield         | OpenFOAM: The Open Source CFD Toolbox
   \\    /   O peration     | Website:  https://openfoam.org
    \\  /    A nd           | Version:  7
     \\/     M anipulation  |
\*---------------------------------------------------------------------------*/
FoamFile
{
    version     2.0;
    format      ascii;
    class       volScalarField;
    location    "0.7";
    object      T;
}
// * * * * * * * * * * * * * * * * * * * * * * * * * * * * * * * * * * * * * //

dimensions      [0 0 0 1 0 0 0];

internalField   nonuniform List<scalar> 
2600
(
1.78412
1.66696
1.42699
1.35401
1.39836
1.44145
1.47772
1.51689
1.56106
1.57585
1.72658
1.66024
1.48151
1.42702
1.44863
1.47739
1.5181
1.5589
1.58725
1.5882
1.61062
1.61696
1.53704
1.50001
1.50325
1.52846
1.57866
1.62286
1.63077
1.61336
1.52714
1.5746
1.57936
1.56969
1.56729
1.59898
1.6641
1.71391
1.7025
1.65202
1.49099
1.53467
1.62631
1.63522
1.64926
1.7023
1.77268
1.8051
1.77908
1.69036
1.48355
1.52278
1.68118
1.70678
1.76053
1.8331
1.87364
1.86803
1.82882
1.71383
1.48045
1.52838
1.74029
1.82291
1.89862
1.94251
1.93319
1.89214
1.84457
1.72041
1.47684
1.5444
1.80153
1.92905
1.9985
1.99715
1.95072
1.89102
1.83805
1.71741
1.47345
1.55983
1.83306
1.98043
2.03092
2.00643
1.94821
1.88093
1.82494
1.71215
1.47119
1.57082
1.83819
1.9882
2.03214
2.0029
1.94362
1.87466
1.81536
1.70567
1.47116
1.5708
1.83824
1.98878
2.03
2.0004
1.94296
1.8759
1.81257
1.70799
1.47336
1.55974
1.83307
1.98159
2.02766
2.00564
1.94766
1.88332
1.8235
1.7123
1.47672
1.54428
1.80148
1.92873
1.99804
1.99562
1.95078
1.89125
1.83914
1.71806
1.48032
1.52826
1.74022
1.82214
1.89962
1.94405
1.93338
1.89351
1.84561
1.72054
1.48342
1.52265
1.68108
1.70686
1.76125
1.83312
1.87308
1.86781
1.82929
1.71393
1.49084
1.53449
1.62624
1.63538
1.64836
1.70271
1.77264
1.80427
1.77881
1.69043
1.52687
1.5743
1.57926
1.56959
1.56702
1.59849
1.6644
1.71242
1.70104
1.65172
1.61015
1.61653
1.53688
1.49985
1.50349
1.52781
1.57833
1.62222
1.6307
1.61357
1.72609
1.65985
1.48139
1.42694
1.44869
1.47688
1.51852
1.56049
1.5885
1.58869
1.78386
1.66672
1.42695
1.35407
1.39811
1.44136
1.47843
1.5174
1.56086
1.57558
1.94872
1.6082
1.3653
1.27699
1.34957
1.41388
1.45244
1.48954
1.54612
1.56723
1.96591
1.57874
1.33025
1.19916
1.3025
1.38749
1.43213
1.47463
1.54079
1.5621
1.9688
1.57391
1.3148
1.14727
1.23915
1.35976
1.41565
1.46637
1.54359
1.55997
1.97333
1.57993
1.31136
1.14435
1.15859
1.32232
1.40288
1.45977
1.54605
1.55801
1.97557
1.596
1.32483
1.16114
1.09403
1.27369
1.38983
1.45759
1.5489
1.5553
1.97312
1.61229
1.34139
1.17622
1.0869
1.21251
1.37642
1.45714
1.55145
1.5523
1.96476
1.62382
1.35902
1.19327
1.08736
1.1574
1.35912
1.46006
1.55159
1.54938
1.95074
1.62961
1.37597
1.21587
1.09935
1.12351
1.33282
1.46439
1.5515
1.54755
1.92994
1.63195
1.39182
1.23852
1.114
1.1175
1.28742
1.46277
1.5509
1.54644
1.90514
1.63105
1.40665
1.26265
1.13612
1.12228
1.23406
1.45181
1.54777
1.54498
1.87588
1.62898
1.42
1.2838
1.16395
1.12722
1.19071
1.43353
1.54561
1.54311
1.8411
1.62399
1.43102
1.30528
1.19191
1.13467
1.1659
1.40803
1.54036
1.541
1.80899
1.61783
1.44142
1.3238
1.21696
1.1444
1.16389
1.36631
1.53428
1.54007
1.78306
1.61329
1.451
1.34269
1.24194
1.16082
1.16853
1.32099
1.52535
1.5406
1.77086
1.61441
1.46343
1.36059
1.26486
1.18389
1.17328
1.28279
1.51755
1.54384
1.77656
1.61951
1.47882
1.37954
1.28629
1.21087
1.17699
1.25451
1.50981
1.54704
1.8069
1.63597
1.49949
1.40147
1.3074
1.23157
1.18372
1.23609
1.49427
1.54871
1.84081
1.67264
1.53264
1.42473
1.32803
1.25326
1.19489
1.2258
1.46458
1.54804
1.87994
1.7035
1.55928
1.44904
1.34726
1.27162
1.2053
1.22934
1.42764
1.5441
1.92182
1.7443
1.59287
1.47371
1.36586
1.2878
1.21634
1.23635
1.39454
1.53752
2.87162
2.84565
2.80931
2.77159
2.73518
2.69968
2.66173
2.616
2.54917
2.47827
2.75284
2.7443
2.71868
2.6983
2.67754
2.65471
2.62589
2.58362
2.51492
2.40677
2.62525
2.64881
2.62653
2.61871
2.60818
2.59648
2.57835
2.54391
2.48041
2.35943
2.48808
2.53712
2.52138
2.52439
2.52562
2.52491
2.51568
2.48871
2.43244
2.30975
2.35681
2.42874
2.42706
2.43983
2.45261
2.45972
2.45381
2.43144
2.38076
2.26534
2.22538
2.31769
2.34017
2.36741
2.38801
2.40113
2.39651
2.3772
2.33091
2.22424
2.08484
2.20995
2.25887
2.30183
2.32933
2.34675
2.34095
2.32383
2.28207
2.18438
1.89475
2.0894
2.1797
2.22463
2.25268
2.2753
2.2749
2.26519
2.23073
2.14306
1.6174
1.94251
2.08594
2.13018
2.16102
2.1888
2.20076
2.20095
2.17248
2.09649
1.3698
1.66728
1.98002
2.03409
2.06062
2.08957
2.1104
2.12592
2.10186
2.04221
1.22811
1.32726
1.76024
1.98548
1.9859
1.9975
2.01881
2.04434
2.02784
1.985
1.16009
1.17276
1.38268
1.82996
1.96031
1.95511
1.96133
1.97847
1.96416
1.92984
1.11729
1.12241
1.14491
1.52013
1.87401
1.94146
1.94115
1.94262
1.92696
1.89187
1.08633
1.09244
1.09839
1.16918
1.70157
1.9337
1.96042
1.94425
1.90492
1.86334
1.06358
1.06878
1.07501
1.08159
1.30143
1.85558
1.99575
1.96039
1.91135
1.85978
1.0467
1.05
1.05396
1.05772
1.07884
1.7314
2.03697
1.99464
1.92996
1.88186
1.03443
1.03685
1.03953
1.04351
1.04742
1.31387
2.01513
2.04114
1.97913
1.92193
1.02565
1.0277
1.03014
1.03327
1.03586
1.07157
1.9775
2.10181
2.03715
1.97457
1.01834
1.02002
1.0224
1.02476
1.02744
1.03235
1.77892
2.13162
2.07012
2.01063
1.01276
1.01414
1.01612
1.01821
1.02075
1.0242
1.32261
2.09875
2.1075
2.06087
1
1
1
1
1
1
1
0.999999
0.999844
1.88426
1
1
1
1
1
1
1
1
0.99984
1.84759
1
1
1
1
1
1
1
1
0.999836
1.78092
1
1
1
1
1
1
1
1
0.999836
1.70108
1
1
1
1
1
1
1
1
0.999834
1.61828
1
1
1
1
1
1
1
1
0.999835
1.53296
1
1
1
1
1
1
1
1
0.999838
1.436
1
1
1
1
1
1
1
1
0.999845
1.33538
1
1
1
1
1
1
1
1
0.999854
1.24918
1
1
1
1
1
1
1
1
0.999864
1.18443
1
1
1
1
1
1
1
1
0.999875
1.13809
1
1
1
1
1
1
1
1
0.999887
1.10337
1
1
1
1
1
1
1
1
0.999899
1.07702
1
1
1
1
1
1
1
1
0.999911
1.05464
1
1
1
1
1
1
1
1
0.999923
1.03968
1
1
1
1
1
1
1
1
0.999934
1.03043
1
1
1
1
1
1
1
1
0.999944
1.02211
1
1
1
1
1
1
1
1
0.999953
1.01567
1
1
1
1
1
1
1
1
0.999961
1.01079
1
1
1
1
1
1
1
1
0.999968
1.00734
1
1
1
1
1
1
1
1
0.999969
1.00735
1
1
1
1
1
1
1
1
0.999962
1.0108
1
1
1
1
1
1
1
1
0.999954
1.01568
1
1
1
1
1
1
1
1
0.999945
1.02211
1
1
1
1
1
1
1
1
0.999935
1.03043
1
1
1
1
1
1
1
1
0.999923
1.03968
1
1
1
1
1
1
1
1
0.999912
1.05464
1
1
1
1
1
1
1
1
0.999899
1.07703
1
1
1
1
1
1
1
1
0.999887
1.10339
1
1
1
1
1
1
1
1
0.999876
1.13811
1
1
1
1
1
1
1
1
0.999864
1.18447
1
1
1
1
1
1
1
1
0.999853
1.24927
1
1
1
1
1
1
1
1
0.999843
1.33557
1
1
1
1
1
1
1
1
0.999835
1.43631
1
1
1
1
1
1
1
1
0.999834
1.53333
1
1
1
1
1
1
1
1
0.999834
1.61864
1
1
1
1
1
1
1
1
0.999836
1.70138
1
1
1
1
1
1
1
1
0.999837
1.78113
1
1
1
1
1
1
1
1
0.99984
1.8477
1
1
1
1
1
1
1
0.999999
0.999845
1.88431
1.01276
1.01414
1.01612
1.01822
1.02076
1.0242
1.321
2.09833
2.10737
2.06076
1.01835
1.02002
1.02241
1.02476
1.02745
1.03234
1.77737
2.13144
2.07002
2.01054
1.02566
1.02771
1.03015
1.03327
1.03586
1.0712
1.97673
2.10173
2.03715
1.97455
1.03443
1.03686
1.03954
1.04352
1.04742
1.31215
2.01456
2.04107
1.97914
1.92191
1.0467
1.05
1.05395
1.05773
1.07867
1.72997
2.03671
1.99456
1.92989
1.88174
1.06358
1.06877
1.07501
1.08157
1.3004
1.85504
1.99567
1.96031
1.91123
1.85963
1.08634
1.09245
1.0984
1.16873
1.70074
1.93342
1.96027
1.94413
1.90476
1.86315
1.11731
1.12243
1.14486
1.51903
1.87366
1.94124
1.94097
1.94237
1.9267
1.89159
1.16011
1.17276
1.38222
1.82949
1.96005
1.95485
1.96098
1.97806
1.96377
1.92948
1.22813
1.3271
1.75972
1.9851
1.98554
1.9971
2.01836
2.04384
2.02738
1.9846
1.36978
1.66692
1.97952
2.03384
2.06027
2.08914
2.10991
2.12543
2.1014
2.04181
1.61738
1.94227
2.08575
2.12997
2.16071
2.18844
2.20035
2.20054
2.17208
2.09613
1.89485
2.08944
2.17969
2.22456
2.25252
2.27511
2.27466
2.26495
2.23045
2.14275
2.08516
2.21019
2.25908
2.30202
2.32944
2.34678
2.34093
2.32378
2.28194
2.18416
2.22584
2.3181
2.34058
2.36781
2.38837
2.40138
2.3967
2.37732
2.33091
2.2241
2.35729
2.4292
2.42755
2.44033
2.45311
2.46014
2.45415
2.43168
2.38084
2.26526
2.48846
2.53748
2.5218
2.52484
2.52609
2.52537
2.51605
2.48896
2.43251
2.30969
2.6255
2.64894
2.6268
2.61902
2.60852
2.59682
2.57863
2.54408
2.48043
2.35939
2.75297
2.74438
2.7188
2.69848
2.67776
2.65494
2.62609
2.58373
2.5149
2.40671
2.87176
2.84577
2.80943
2.77171
2.73532
2.69981
2.66184
2.61606
2.54915
2.47829
1.92176
1.74426
1.59283
1.47367
1.36584
1.2878
1.21634
1.23636
1.39455
1.53752
1.87987
1.70348
1.55926
1.449
1.34724
1.27162
1.20531
1.22935
1.42767
1.5441
1.84074
1.67268
1.53263
1.42469
1.32801
1.25326
1.1949
1.22581
1.46461
1.54804
1.8068
1.63589
1.49945
1.40143
1.30738
1.23157
1.18372
1.23611
1.49427
1.54871
1.77642
1.61942
1.47878
1.37951
1.28626
1.21087
1.177
1.25451
1.50977
1.54703
1.77069
1.6143
1.46337
1.36055
1.26483
1.18388
1.17329
1.28276
1.5175
1.54382
1.78284
1.61316
1.45093
1.34265
1.24192
1.16082
1.16853
1.32097
1.52531
1.54058
1.80874
1.61768
1.44134
1.32377
1.21694
1.14439
1.16389
1.36635
1.53428
1.54006
1.8408
1.6238
1.43092
1.30524
1.1919
1.13466
1.16589
1.40809
1.54038
1.54101
1.87555
1.62874
1.41988
1.28376
1.16393
1.12721
1.19073
1.43352
1.54562
1.54314
1.9048
1.63076
1.40651
1.2626
1.1361
1.12228
1.23419
1.45177
1.54773
1.54499
1.92959
1.63163
1.39166
1.23846
1.11399
1.11749
1.28768
1.46279
1.55086
1.54641
1.95042
1.62928
1.37579
1.21581
1.09934
1.12348
1.33297
1.46446
1.55158
1.54752
1.96449
1.62349
1.35884
1.19321
1.08735
1.15717
1.35894
1.46017
1.55175
1.54943
1.97291
1.61199
1.34121
1.17614
1.08687
1.21219
1.37609
1.45736
1.55157
1.55239
1.9754
1.59575
1.32466
1.16108
1.09402
1.27367
1.38954
1.45754
1.54892
1.55535
1.97321
1.57974
1.31118
1.14428
1.1586
1.32258
1.40266
1.4595
1.54588
1.55793
1.96874
1.57379
1.3147
1.1472
1.23893
1.36
1.41569
1.46608
1.54326
1.55978
1.96591
1.57868
1.33021
1.19914
1.3023
1.38759
1.43256
1.47489
1.54107
1.56216
1.94881
1.6083
1.36529
1.27695
1.34968
1.41386
1.45253
1.49009
1.54662
1.5676
1.0204
1.07915
1.43886
1.76751
1.86188
1.80686
1.73692
1.66135
1.57748
1.48494
1.01654
1.07961
1.48836
1.75002
1.85049
1.80096
1.73601
1.66311
1.57949
1.48874
1.01488
1.09192
1.55363
1.73106
1.83808
1.79604
1.73634
1.66489
1.58021
1.48848
1.014
1.14629
1.62275
1.71634
1.8088
1.78468
1.73508
1.66473
1.58177
1.49398
1.01362
1.28568
1.70035
1.70993
1.75934
1.77323
1.72615
1.65822
1.57824
1.49071
1.01371
1.48457
1.75496
1.71946
1.70409
1.73129
1.70594
1.65083
1.57781
1.4915
1.01641
1.63249
1.77812
1.72486
1.65184
1.67338
1.68347
1.63559
1.57022
1.48923
1.05268
1.72388
1.79298
1.71997
1.6228
1.61681
1.64405
1.61115
1.56268
1.48792
1.19304
1.81645
1.81333
1.71718
1.61054
1.57089
1.5907
1.58604
1.55137
1.48046
1.49194
1.91317
1.84247
1.71322
1.60338
1.54331
1.53672
1.55225
1.52697
1.46418
1.75617
1.93691
1.84876
1.7097
1.59724
1.52656
1.49363
1.50882
1.49465
1.44157
1.9015
1.94005
1.83886
1.70089
1.58703
1.50823
1.46479
1.46694
1.45644
1.4141
1.93252
1.94129
1.83249
1.68793
1.57169
1.48552
1.44344
1.43298
1.41892
1.39205
1.97752
1.95638
1.82923
1.67423
1.55259
1.45844
1.42149
1.40404
1.38429
1.38715
2.02259
1.96314
1.81876
1.65853
1.53155
1.4317
1.39608
1.37527
1.36043
1.38942
2.06829
1.94733
1.79128
1.63625
1.50885
1.40787
1.36795
1.34065
1.34553
1.41178
2.06912
1.92798
1.76029
1.61002
1.4841
1.38488
1.33648
1.31357
1.33362
1.44275
2.06267
1.89956
1.7276
1.5813
1.45744
1.36271
1.30303
1.29093
1.32357
1.47573
2.02781
1.85821
1.68764
1.54691
1.42834
1.33774
1.26867
1.2717
1.33093
1.50245
1.97561
1.79986
1.63742
1.50666
1.39321
1.3102
1.23781
1.25232
1.35942
1.52425
1.97566
1.7999
1.63746
1.50669
1.39323
1.3102
1.2378
1.25232
1.35942
1.52426
2.02788
1.85824
1.68768
1.54694
1.42834
1.33773
1.26866
1.27169
1.33093
1.50245
2.06274
1.8996
1.72764
1.58133
1.45744
1.3627
1.30302
1.29093
1.32357
1.47573
2.06919
1.92803
1.76032
1.61003
1.4841
1.38487
1.33648
1.31357
1.33362
1.44275
2.06836
1.94738
1.79131
1.63625
1.50884
1.40786
1.36795
1.34065
1.34553
1.41178
2.02261
1.96316
1.81877
1.65852
1.53154
1.43169
1.39608
1.37527
1.36043
1.38942
1.97752
1.95639
1.82922
1.67421
1.55258
1.45844
1.42149
1.40404
1.38429
1.38715
1.9325
1.94127
1.83247
1.68791
1.57168
1.48552
1.44344
1.43298
1.41892
1.39205
1.90145
1.94002
1.83883
1.70088
1.58702
1.50823
1.46479
1.46694
1.45644
1.4141
1.75606
1.93688
1.84873
1.70969
1.59724
1.52656
1.49364
1.50882
1.49465
1.44157
1.49183
1.91314
1.84245
1.71322
1.60338
1.54331
1.53672
1.55225
1.52697
1.46418
1.19299
1.81643
1.81331
1.71718
1.61054
1.57089
1.5907
1.58604
1.55137
1.48046
1.05267
1.72386
1.79298
1.71997
1.6228
1.61681
1.64405
1.61115
1.56268
1.48792
1.01641
1.63248
1.77812
1.72486
1.65184
1.67338
1.68347
1.63559
1.57022
1.48923
1.01371
1.48457
1.75496
1.71946
1.70409
1.73129
1.70594
1.65083
1.57781
1.4915
1.01362
1.28568
1.70035
1.70993
1.75935
1.77323
1.72615
1.65822
1.57824
1.49071
1.014
1.14629
1.62275
1.71634
1.8088
1.78468
1.73508
1.66473
1.58178
1.49398
1.01488
1.09192
1.55363
1.73106
1.83808
1.79604
1.73634
1.66489
1.58021
1.48848
1.01654
1.07961
1.48836
1.75002
1.85049
1.80096
1.73601
1.66311
1.57949
1.48874
1.02041
1.07915
1.43886
1.7675
1.86188
1.80686
1.73692
1.66135
1.57748
1.48494
1.00821
1.0092
1.01054
1.01218
1.01435
1.01613
1.05653
1.90782
2.15886
2.11118
1.00499
1.0056
1.00641
1.00751
1.00884
1.01054
1.01194
1.31172
2.0532
2.12781
1.00344
1.00383
1.00434
1.00507
1.0059
1.00729
1.00817
1.03362
1.81994
2.13871
1.00269
1.00297
1.00332
1.00382
1.00442
1.00529
1.00641
1.0073
1.25432
2.01687
1.00254
1.0028
1.00317
1.00359
1.00418
1.0048
1.00586
1.00663
1.02346
1.80487
1.00252
1.00279
1.00318
1.00363
1.00421
1.00486
1.0057
1.00683
1.00762
1.28848
1.00259
1.00286
1.00321
1.00365
1.00418
1.00487
1.00562
1.00684
1.00778
1.03106
1.00259
1.00287
1.00319
1.00362
1.00409
1.00479
1.00554
1.00668
1.00807
1.00926
1.00253
1.00278
1.0031
1.00352
1.00402
1.0047
1.00552
1.0066
1.00816
1.00941
1.00234
1.0026
1.00295
1.00339
1.00394
1.00465
1.00553
1.00665
1.00823
1.00961
1.00219
1.00244
1.00281
1.00326
1.00385
1.00457
1.00551
1.00666
1.00834
1.00978
1.00211
1.00236
1.00273
1.00315
1.00376
1.00443
1.00546
1.00656
1.00839
1.00978
1.00211
1.00235
1.0027
1.00312
1.00368
1.00434
1.00536
1.00641
1.00837
1.00978
1.00218
1.00242
1.00276
1.00318
1.00373
1.0044
1.00528
1.00637
1.00804
1.00983
1.00226
1.00251
1.00285
1.00327
1.00381
1.00448
1.00534
1.00644
1.00789
1.00994
1.00236
1.00261
1.00295
1.00338
1.00391
1.00459
1.00542
1.00652
1.00788
1.00995
1.00246
1.00272
1.00306
1.0035
1.00402
1.00471
1.0055
1.00663
1.00788
1.01008
1.00255
1.00282
1.00315
1.00359
1.00409
1.00479
1.00555
1.00669
1.00794
1.00997
1.00262
1.00288
1.00321
1.00364
1.00414
1.0048
1.00559
1.00666
1.00805
1.0098
1.00266
1.00292
1.00327
1.00366
1.0042
1.0048
1.00566
1.00662
1.0082
1.00969
1
1
1
1
1
1
1
1
0.999975
1.00469
1
1
1
1
1
1
1
1
0.999983
1.00287
1
1
1
1
1
1
1
1
0.99999
1.00201
1
1
1
1
1
1
1
1
0.999996
1.0016
1
1
1
1
1
1
1
1
1
1.00148
1
1
1
1
1
1
1
1
1.00001
1.00146
1
1
1
1
1
1
1
1
1.00001
1.00153
1
1
1
1
1
1
1
1
1.00001
1.00155
1
1
1
1
1
1
1
1
1.00001
1.00151
1
1
1
1
1
1
1
1
1.00002
1.00136
1
1
1
1
1
1
1
1
1.00002
1.00125
1
1
1
1
1
1
1
1
1.00002
1.00121
1
1
1
1
1
1
1
1
1.00002
1.00122
1
1
1
1
1
1
1
1
1.00002
1.00126
1
1
1
1
1
1
1
1
1.00002
1.00132
1
1
1
1
1
1
1
1
1.00002
1.00138
1
1
1
1
1
1
1
1
1.00002
1.00145
1
1
1
1
1
1
1
1
1.00001
1.00151
1
1
1
1
1
1
1
1
1.00001
1.00156
1
1
1
1
1
1
1
1
1.00001
1.00159
1
1
1
1
1
1
1
1
1.00001
1.00159
1
1
1
1
1
1
1
1
1.00001
1.00156
1
1
1
1
1
1
1
1
1.00001
1.00151
1
1
1
1
1
1
1
1
1.00002
1.00145
1
1
1
1
1
1
1
1
1.00002
1.00138
1
1
1
1
1
1
1
1
1.00002
1.00132
1
1
1
1
1
1
1
1
1.00002
1.00126
1
1
1
1
1
1
1
1
1.00002
1.00122
1
1
1
1
1
1
1
1
1.00002
1.00121
1
1
1
1
1
1
1
1
1.00002
1.00125
1
1
1
1
1
1
1
1
1.00002
1.00136
1
1
1
1
1
1
1
1
1.00001
1.00151
1
1
1
1
1
1
1
1
1.00001
1.00155
1
1
1
1
1
1
1
1
1.00001
1.00153
1
1
1
1
1
1
1
1
1.00001
1.00146
1
1
1
1
1
1
1
1
1
1.00148
1
1
1
1
1
1
1
1
0.999996
1.0016
1
1
1
1
1
1
1
1
0.99999
1.00201
1
1
1
1
1
1
1
1
0.999983
1.00287
1
1
1
1
1
1
1
1
0.999975
1.0047
1.00266
1.00292
1.00327
1.00367
1.0042
1.0048
1.00566
1.00662
1.0082
1.00969
1.00262
1.00288
1.00321
1.00364
1.00414
1.0048
1.00559
1.00666
1.00805
1.0098
1.00255
1.00282
1.00315
1.00359
1.00409
1.00479
1.00555
1.00669
1.00794
1.00997
1.00246
1.00272
1.00306
1.0035
1.00402
1.00471
1.0055
1.00664
1.00788
1.01008
1.00236
1.00261
1.00295
1.00338
1.00391
1.00459
1.00542
1.00652
1.00788
1.00995
1.00226
1.00251
1.00285
1.00327
1.00381
1.00448
1.00534
1.00644
1.00789
1.00994
1.00218
1.00242
1.00276
1.00318
1.00373
1.0044
1.00528
1.00637
1.00804
1.00983
1.00211
1.00235
1.0027
1.00312
1.00368
1.00434
1.00536
1.00641
1.00837
1.00978
1.00211
1.00236
1.00273
1.00315
1.00376
1.00443
1.00546
1.00656
1.00839
1.00978
1.00219
1.00244
1.00281
1.00326
1.00385
1.00457
1.00551
1.00666
1.00834
1.00978
1.00234
1.0026
1.00295
1.00339
1.00394
1.00465
1.00553
1.00665
1.00823
1.00961
1.00253
1.00278
1.0031
1.00352
1.00402
1.0047
1.00552
1.0066
1.00816
1.00941
1.00259
1.00287
1.00319
1.00362
1.00409
1.00479
1.00554
1.00668
1.00807
1.00926
1.00259
1.00286
1.00321
1.00365
1.00418
1.00487
1.00562
1.00684
1.00778
1.03108
1.00252
1.00279
1.00318
1.00363
1.00421
1.00486
1.0057
1.00683
1.00762
1.28854
1.00254
1.0028
1.00317
1.00359
1.00418
1.0048
1.00586
1.00663
1.02345
1.80479
1.00269
1.00297
1.00332
1.00382
1.00442
1.00529
1.00641
1.0073
1.25406
2.01669
1.00344
1.00383
1.00434
1.00507
1.00591
1.00729
1.00818
1.03351
1.8195
2.13857
1.00499
1.0056
1.00641
1.00752
1.00885
1.01055
1.01194
1.31092
2.05277
2.1277
1.00821
1.0092
1.01054
1.01219
1.01435
1.01614
1.05624
1.90711
2.15871
2.1111
)
;

boundaryField
{
    inlet
    {
        type            fixedValue;
        value           uniform 1;
    }
    outlet
    {
        type            inletOutlet;
        inletValue      uniform 1;
        value           nonuniform List<scalar> 
100
(
1.52418
1.50239
1.47564
1.44266
1.41164
1.38934
1.38697
1.39152
1.41325
1.44085
1.46375
1.48031
1.48803
1.48952
1.49178
1.49097
1.49431
1.48872
1.48891
1.48513
1.56705
1.56201
1.55991
1.5579
1.55515
1.55217
1.54929
1.54746
1.54627
1.54476
1.54291
1.54085
1.53995
1.54047
1.54363
1.54682
1.5485
1.54786
1.54395
1.5374
1.57568
1.58818
1.61318
1.65168
1.68997
1.71337
1.71992
1.71695
1.71165
1.70514
1.70763
1.71188
1.71752
1.72005
1.71346
1.69002
1.6514
1.61344
1.58864
1.57538
1.5374
1.54395
1.54787
1.5485
1.54681
1.54362
1.54045
1.53994
1.54086
1.54293
1.54477
1.54625
1.54743
1.54932
1.55226
1.55522
1.55783
1.55973
1.56205
1.5674
1.48513
1.48891
1.48872
1.49431
1.49097
1.49178
1.48952
1.48803
1.48031
1.46375
1.44085
1.41325
1.39152
1.38697
1.38934
1.41164
1.44266
1.47564
1.50239
1.52418
)
;
    }
    triangle
    {
        type            zeroGradient;
    }
    top
    {
        type            symmetryPlane;
    }
    bottom
    {
        type            symmetryPlane;
    }
    defaultFaces
    {
        type            empty;
    }
}


// ************************************************************************* //
