/*--------------------------------*- C++ -*----------------------------------*\
  =========                 |
  \\      /  F ield         | OpenFOAM: The Open Source CFD Toolbox
   \\    /   O peration     | Website:  https://openfoam.org
    \\  /    A nd           | Version:  8
     \\/     M anipulation  |
\*---------------------------------------------------------------------------*/
FoamFile
{
    version     2.0;
    format      ascii;
    class       volScalarField;
    location    "0.7";
    object      T;
}
// * * * * * * * * * * * * * * * * * * * * * * * * * * * * * * * * * * * * * //

dimensions      [0 0 0 1 0 0 0];

internalField   nonuniform List<scalar> 
2600
(
1.78432
1.66712
1.42707
1.3541
1.39804
1.44138
1.47847
1.5176
1.56115
1.57566
1.72672
1.66036
1.48163
1.42705
1.44861
1.47679
1.51849
1.5603
1.58838
1.5887
1.61067
1.61704
1.53718
1.49997
1.50347
1.52765
1.57832
1.622
1.63037
1.61343
1.52713
1.57466
1.57951
1.5697
1.5672
1.59848
1.6645
1.71245
1.70117
1.6517
1.49097
1.5347
1.62642
1.63538
1.64864
1.70289
1.77273
1.80438
1.77908
1.69048
1.48353
1.52278
1.68121
1.70684
1.76099
1.83306
1.87303
1.86788
1.82925
1.71393
1.48045
1.52839
1.7403
1.82244
1.89922
1.94376
1.93324
1.89355
1.84522
1.7205
1.47685
1.54439
1.80155
1.92885
1.99849
1.99556
1.95062
1.89132
1.83847
1.71806
1.47345
1.55981
1.8331
1.98128
2.02905
2.00579
1.94759
1.88312
1.82439
1.71216
1.47119
1.5708
1.83819
1.98859
2.03063
2.00028
1.94293
1.8759
1.81317
1.7076
1.47116
1.5708
1.83816
1.98824
2.0315
2.00338
1.94373
1.87447
1.81459
1.7063
1.47336
1.55977
1.83304
1.98073
2.02951
2.00664
1.9483
1.88121
1.82418
1.71214
1.47672
1.54428
1.80151
1.92889
1.99837
1.99718
1.95082
1.89093
1.83875
1.7174
1.48031
1.52825
1.74021
1.8226
1.89914
1.94259
1.93334
1.89217
1.84492
1.72044
1.48343
1.52263
1.68108
1.70673
1.76077
1.83309
1.87367
1.86803
1.82886
1.71378
1.49084
1.53446
1.62618
1.63521
1.64897
1.7021
1.77256
1.80501
1.77882
1.69025
1.52685
1.57427
1.57918
1.56964
1.56703
1.59893
1.66399
1.71392
1.70242
1.65203
1.61011
1.61652
1.53678
1.49995
1.5032
1.52857
1.57861
1.62307
1.63106
1.61348
1.7261
1.65988
1.48132
1.42698
1.44866
1.47744
1.51806
1.55901
1.58731
1.58819
1.78395
1.66674
1.4269
1.35401
1.39839
1.44139
1.47766
1.51671
1.5608
1.57577
1.9488
1.6082
1.36531
1.27699
1.34969
1.41382
1.45252
1.48995
1.54646
1.56759
1.96597
1.57874
1.33028
1.1992
1.30229
1.38759
1.43263
1.47491
1.54108
1.56219
1.96881
1.57392
1.31482
1.14728
1.23893
1.36004
1.41576
1.46611
1.54337
1.5598
1.97331
1.57993
1.31136
1.14436
1.15863
1.32265
1.40266
1.4595
1.54586
1.55792
1.97551
1.596
1.32485
1.16117
1.09406
1.27373
1.38952
1.45753
1.5489
1.55535
1.97304
1.61228
1.34141
1.17623
1.08691
1.21223
1.37606
1.45736
1.55158
1.5524
1.96467
1.62381
1.35904
1.19329
1.08737
1.15719
1.35891
1.46018
1.55176
1.54943
1.95066
1.62959
1.37599
1.21588
1.09936
1.12349
1.33296
1.46446
1.55159
1.54752
1.92987
1.63194
1.39184
1.23853
1.11401
1.1175
1.28769
1.46279
1.55086
1.54641
1.9051
1.63105
1.40667
1.26266
1.13612
1.12229
1.23419
1.45176
1.54773
1.545
1.87585
1.62899
1.42002
1.28382
1.16396
1.12722
1.19072
1.43351
1.54562
1.54314
1.8411
1.62401
1.43104
1.30529
1.19192
1.13467
1.16589
1.4081
1.54038
1.54101
1.809
1.61785
1.44144
1.32381
1.21696
1.1444
1.16389
1.36635
1.53428
1.54006
1.78308
1.61331
1.45101
1.3427
1.24195
1.16082
1.16853
1.32096
1.52531
1.54058
1.77088
1.61443
1.46344
1.3606
1.26486
1.18389
1.17329
1.28275
1.51749
1.54382
1.77658
1.61953
1.47883
1.37955
1.28629
1.21087
1.17699
1.25451
1.50976
1.54703
1.80692
1.63598
1.49949
1.40147
1.30741
1.23157
1.18372
1.23611
1.49427
1.54872
1.84082
1.67264
1.53264
1.42473
1.32803
1.25326
1.19489
1.2258
1.46462
1.54805
1.87995
1.70351
1.55928
1.44904
1.34726
1.27162
1.2053
1.22934
1.42767
1.5441
1.92183
1.7443
1.59287
1.47371
1.36587
1.2878
1.21633
1.23635
1.39455
1.53752
2.87165
2.84569
2.80936
2.77165
2.73525
2.69976
2.66182
2.61609
2.54925
2.47836
2.75288
2.74434
2.71874
2.69837
2.67762
2.65479
2.62597
2.58369
2.51499
2.40683
2.62528
2.64886
2.62658
2.61877
2.60824
2.59654
2.5784
2.54395
2.48044
2.35946
2.48811
2.53715
2.52141
2.52441
2.52563
2.52492
2.51567
2.4887
2.43242
2.30971
2.35681
2.42873
2.42705
2.43981
2.45258
2.45968
2.45375
2.43138
2.38069
2.26525
2.22533
2.31764
2.34012
2.36736
2.38795
2.40105
2.39641
2.37709
2.3308
2.22413
2.08475
2.20987
2.25879
2.30175
2.32924
2.34665
2.34085
2.32372
2.28195
2.18426
1.89458
2.08932
2.17961
2.22455
2.25259
2.27521
2.2748
2.26509
2.23062
2.14295
1.61725
1.9424
2.08588
2.13012
2.16095
2.18872
2.20068
2.20087
2.17239
2.09642
1.3697
1.66714
1.97993
2.03407
2.06058
2.08952
2.11035
2.12587
2.1018
2.04217
1.22806
1.32716
1.76019
1.98547
1.9859
1.99748
2.01879
2.04432
2.02781
1.98498
1.16007
1.17273
1.38261
1.82998
1.96033
1.95512
1.96134
1.97847
1.96416
1.92984
1.11728
1.1224
1.14489
1.52012
1.87405
1.94149
1.94118
1.94263
1.92698
1.89188
1.08632
1.09243
1.09838
1.16916
1.70163
1.93376
1.96045
1.94427
1.90493
1.86336
1.06358
1.06877
1.075
1.08158
1.30147
1.85568
1.99577
1.96041
1.91137
1.85981
1.04669
1.05
1.05395
1.05772
1.07884
1.73156
2.03701
1.99466
1.92997
1.88188
1.03443
1.03685
1.03953
1.04351
1.04742
1.31404
2.01521
2.04115
1.97913
1.92194
1.02565
1.0277
1.03013
1.03326
1.03585
1.07161
1.97759
2.10182
2.03716
1.97458
1.01834
1.02001
1.0224
1.02475
1.02744
1.03235
1.77909
2.13164
2.07014
2.01065
1.01276
1.01414
1.01612
1.01821
1.02075
1.0242
1.32281
2.0988
2.10752
2.06089
1
1
1
1
1
1
1
0.999999
0.999844
1.88428
1
1
1
1
1
1
1
1
0.99984
1.84761
1
1
1
1
1
1
1
1
0.999836
1.78094
1
1
1
1
1
1
1
1
0.999836
1.70109
1
1
1
1
1
1
1
1
0.999834
1.61828
1
1
1
1
1
1
1
1
0.999835
1.53293
1
1
1
1
1
1
1
1
0.999838
1.43595
1
1
1
1
1
1
1
1
0.999845
1.33532
1
1
1
1
1
1
1
1
0.999854
1.24913
1
1
1
1
1
1
1
1
0.999864
1.1844
1
1
1
1
1
1
1
1
0.999875
1.13807
1
1
1
1
1
1
1
1
0.999887
1.10336
1
1
1
1
1
1
1
1
0.999899
1.07701
1
1
1
1
1
1
1
1
0.999911
1.05464
1
1
1
1
1
1
1
1
0.999923
1.03967
1
1
1
1
1
1
1
1
0.999934
1.03042
1
1
1
1
1
1
1
1
0.999944
1.02211
1
1
1
1
1
1
1
1
0.999953
1.01567
1
1
1
1
1
1
1
1
0.999961
1.01079
1
1
1
1
1
1
1
1
0.999968
1.00734
1
1
1
1
1
1
1
1
0.999969
1.00735
1
1
1
1
1
1
1
1
0.999962
1.0108
1
1
1
1
1
1
1
1
0.999954
1.01568
1
1
1
1
1
1
1
1
0.999945
1.02211
1
1
1
1
1
1
1
1
0.999935
1.03043
1
1
1
1
1
1
1
1
0.999923
1.03969
1
1
1
1
1
1
1
1
0.999912
1.05465
1
1
1
1
1
1
1
1
0.9999
1.07703
1
1
1
1
1
1
1
1
0.999888
1.1034
1
1
1
1
1
1
1
1
0.999876
1.13812
1
1
1
1
1
1
1
1
0.999865
1.18448
1
1
1
1
1
1
1
1
0.999853
1.24928
1
1
1
1
1
1
1
1
0.999843
1.33559
1
1
1
1
1
1
1
1
0.999835
1.43632
1
1
1
1
1
1
1
1
0.999834
1.53335
1
1
1
1
1
1
1
1
0.999834
1.61866
1
1
1
1
1
1
1
1
0.999836
1.7014
1
1
1
1
1
1
1
1
0.999837
1.78116
1
1
1
1
1
1
1
1
0.99984
1.84773
1
1
1
1
1
1
1
0.999999
0.999845
1.88434
1.01276
1.01414
1.01612
1.01822
1.02076
1.02421
1.32081
2.09829
2.10736
2.06074
1.01835
1.02002
1.02241
1.02476
1.02745
1.03234
1.77721
2.13142
2.07
2.01052
1.02566
1.02771
1.03015
1.03327
1.03587
1.07117
1.97664
2.10172
2.03714
1.97455
1.03444
1.03686
1.03954
1.04352
1.04742
1.312
2.01449
2.04105
1.97914
1.9219
1.0467
1.05
1.05395
1.05773
1.07866
1.72982
2.03667
1.99455
1.92988
1.88172
1.06358
1.06877
1.07501
1.08157
1.30037
1.85495
1.99564
1.96029
1.91122
1.85961
1.08634
1.09245
1.09841
1.16874
1.7007
1.93336
1.96025
1.94411
1.90475
1.86313
1.11731
1.12244
1.14487
1.51903
1.87363
1.9412
1.94094
1.94236
1.92669
1.89158
1.16012
1.17277
1.38223
1.82948
1.96003
1.95483
1.96096
1.97804
1.96375
1.92946
1.22814
1.32713
1.75973
1.98509
1.98553
1.99709
2.01834
2.04383
2.02737
1.98458
1.36981
1.66695
1.97953
2.03383
2.06026
2.08914
2.1099
2.12541
2.10138
2.04178
1.61742
1.94229
2.08575
2.12997
2.16071
2.18844
2.20033
2.20052
2.17206
2.09609
1.89489
2.08945
2.1797
2.22457
2.25253
2.2751
2.27466
2.26494
2.23043
2.14271
2.08518
2.2102
2.25909
2.30202
2.32945
2.34678
2.34094
2.32378
2.28193
2.18412
2.22586
2.31812
2.3406
2.36783
2.38839
2.4014
2.39672
2.37733
2.33092
2.22409
2.35731
2.42922
2.42758
2.44036
2.45314
2.46017
2.45419
2.43172
2.38088
2.26527
2.48848
2.53751
2.52184
2.52488
2.52613
2.52541
2.51611
2.48903
2.43259
2.30974
2.62554
2.64898
2.62684
2.61907
2.60857
2.59688
2.57871
2.54418
2.48054
2.35947
2.75301
2.74443
2.71885
2.69854
2.67783
2.65502
2.62618
2.58384
2.51503
2.40683
2.87181
2.84582
2.80949
2.77178
2.73539
2.6999
2.66194
2.61618
2.54929
2.47842
1.92176
1.74425
1.59282
1.47367
1.36584
1.2878
1.21634
1.23636
1.39454
1.53752
1.87986
1.70348
1.55926
1.449
1.34723
1.27162
1.20531
1.22935
1.42763
1.54409
1.84074
1.67269
1.53264
1.42469
1.328
1.25325
1.1949
1.2258
1.46457
1.54804
1.80679
1.63588
1.49944
1.40143
1.30737
1.23156
1.18372
1.23609
1.49426
1.54871
1.77641
1.61941
1.47877
1.3795
1.28626
1.21087
1.177
1.25451
1.50981
1.54704
1.77067
1.61428
1.46336
1.36055
1.26483
1.18388
1.17329
1.28279
1.51756
1.54384
1.78282
1.61315
1.45092
1.34265
1.24192
1.16082
1.16853
1.321
1.52536
1.54061
1.80872
1.61766
1.44133
1.32376
1.21693
1.14439
1.16389
1.36632
1.53429
1.54007
1.84077
1.62376
1.43091
1.30524
1.19189
1.13466
1.1659
1.40804
1.54037
1.541
1.8755
1.62869
1.41986
1.28376
1.16393
1.12721
1.19071
1.43354
1.5456
1.54311
1.90473
1.63069
1.40648
1.26259
1.1361
1.12227
1.23407
1.4518
1.54776
1.54498
1.92951
1.63153
1.39162
1.23845
1.11398
1.11748
1.28744
1.46274
1.55088
1.54643
1.95034
1.62918
1.37574
1.2158
1.09934
1.1235
1.33288
1.46436
1.55147
1.54754
1.96443
1.6234
1.35878
1.19319
1.08735
1.15736
1.35916
1.46004
1.55157
1.54937
1.97289
1.61192
1.34115
1.17613
1.08686
1.21243
1.37643
1.45716
1.55146
1.5523
1.97541
1.59571
1.32462
1.16106
1.09399
1.27361
1.38984
1.45764
1.54896
1.55532
1.97327
1.57974
1.31115
1.14427
1.15857
1.32229
1.40287
1.45979
1.54612
1.55803
1.96884
1.57382
1.31467
1.14719
1.23916
1.35977
1.41558
1.46634
1.54347
1.55994
1.96605
1.57874
1.33019
1.19909
1.30251
1.38752
1.43207
1.4746
1.54076
1.56206
1.94899
1.60841
1.3653
1.27695
1.34954
1.41392
1.45246
1.48973
1.5463
1.56724
1.0204
1.07915
1.43887
1.76751
1.86188
1.80686
1.73692
1.66134
1.57748
1.48494
1.01654
1.07961
1.48836
1.75002
1.85049
1.80096
1.73601
1.66311
1.57949
1.48874
1.01488
1.09192
1.55364
1.73106
1.83808
1.79604
1.73634
1.66489
1.58021
1.48848
1.014
1.14629
1.62275
1.71634
1.8088
1.78468
1.73508
1.66473
1.58177
1.49398
1.01362
1.28567
1.70035
1.70993
1.75934
1.77323
1.72615
1.65823
1.57824
1.49071
1.01371
1.48457
1.75496
1.71946
1.70409
1.73129
1.70594
1.65083
1.57781
1.4915
1.01641
1.6325
1.77813
1.72486
1.65184
1.67338
1.68347
1.63559
1.57022
1.48923
1.05269
1.7239
1.79299
1.71997
1.6228
1.61681
1.64405
1.61115
1.56268
1.48792
1.19307
1.81648
1.81334
1.71719
1.61054
1.57089
1.5907
1.58604
1.55137
1.48046
1.49199
1.91319
1.84248
1.71323
1.60338
1.54331
1.53672
1.55225
1.52697
1.46418
1.75619
1.93692
1.84877
1.70971
1.59725
1.52656
1.49363
1.50882
1.49465
1.44157
1.9015
1.94004
1.83887
1.7009
1.58703
1.50823
1.46479
1.46694
1.45644
1.4141
1.9325
1.94127
1.83249
1.68793
1.57169
1.48552
1.44344
1.43298
1.41892
1.39205
1.9775
1.95637
1.82922
1.67422
1.5526
1.45844
1.42149
1.40404
1.38429
1.38716
2.02257
1.96313
1.81875
1.65852
1.53155
1.4317
1.39608
1.37527
1.36043
1.38942
2.06827
1.94732
1.79127
1.63624
1.50885
1.40787
1.36796
1.34065
1.34553
1.41178
2.0691
1.92797
1.76028
1.61001
1.48409
1.38488
1.33648
1.31357
1.33362
1.44275
2.06265
1.89956
1.72759
1.5813
1.45743
1.36271
1.30303
1.29094
1.32357
1.47573
2.0278
1.8582
1.68764
1.5469
1.42833
1.33774
1.26867
1.2717
1.33093
1.50245
1.9756
1.79986
1.63742
1.50665
1.39321
1.3102
1.23781
1.25232
1.35943
1.52426
1.97566
1.7999
1.63746
1.50669
1.39323
1.3102
1.2378
1.25231
1.35942
1.52426
2.02789
1.85824
1.68768
1.54694
1.42835
1.33773
1.26866
1.27169
1.33093
1.50245
2.06275
1.8996
1.72764
1.58134
1.45744
1.3627
1.30302
1.29093
1.32357
1.47573
2.06921
1.92803
1.76033
1.61004
1.4841
1.38487
1.33647
1.31357
1.33362
1.44275
2.06838
1.94738
1.79132
1.63626
1.50885
1.40786
1.36795
1.34065
1.34553
1.41178
2.02263
1.96317
1.81878
1.65852
1.53154
1.43169
1.39607
1.37527
1.36043
1.38942
1.97752
1.9564
1.82923
1.67421
1.55258
1.45844
1.42149
1.40404
1.38429
1.38715
1.9325
1.94128
1.83247
1.68791
1.57168
1.48552
1.44344
1.43298
1.41891
1.39205
1.90145
1.94002
1.83883
1.70087
1.58702
1.50823
1.46479
1.46693
1.45644
1.4141
1.75606
1.93688
1.84873
1.70969
1.59724
1.52656
1.49364
1.50882
1.49465
1.44157
1.49181
1.91313
1.84244
1.71321
1.60338
1.54332
1.53672
1.55225
1.52697
1.46418
1.19298
1.81642
1.81331
1.71718
1.61054
1.5709
1.59071
1.58604
1.55137
1.48046
1.05267
1.72385
1.79297
1.71996
1.6228
1.61681
1.64405
1.61115
1.56268
1.48792
1.01641
1.63247
1.77812
1.72486
1.65184
1.67338
1.68347
1.63559
1.57022
1.48923
1.01371
1.48457
1.75496
1.71946
1.7041
1.73129
1.70594
1.65083
1.57781
1.4915
1.01362
1.28568
1.70035
1.70994
1.75935
1.77323
1.72615
1.65823
1.57824
1.49071
1.014
1.14629
1.62274
1.71634
1.8088
1.78468
1.73508
1.66473
1.58178
1.49398
1.01488
1.09192
1.55363
1.73106
1.83808
1.79604
1.73634
1.66489
1.58021
1.48848
1.01654
1.07961
1.48835
1.75001
1.85049
1.80096
1.73601
1.66312
1.57949
1.48874
1.02041
1.07915
1.43885
1.76749
1.86189
1.80686
1.73692
1.66135
1.57748
1.48494
1.00821
1.00919
1.01054
1.01218
1.01435
1.01613
1.05657
1.90793
2.15887
2.11119
1.00499
1.0056
1.00641
1.00751
1.00884
1.01054
1.01194
1.31187
2.05326
2.12782
1.00344
1.00383
1.00434
1.00507
1.0059
1.00729
1.00817
1.03364
1.82002
2.13874
1.00269
1.00297
1.00332
1.00382
1.00442
1.00529
1.00641
1.0073
1.25438
2.01691
1.00254
1.0028
1.00317
1.00359
1.00418
1.0048
1.00586
1.00663
1.02347
1.80491
1.00252
1.00279
1.00318
1.00363
1.00421
1.00486
1.0057
1.00683
1.00762
1.28852
1.00259
1.00286
1.00321
1.00365
1.00418
1.00487
1.00562
1.00684
1.00778
1.03107
1.00259
1.00287
1.00319
1.00362
1.00409
1.00479
1.00554
1.00668
1.00807
1.00926
1.00253
1.00278
1.0031
1.00352
1.00402
1.0047
1.00552
1.0066
1.00816
1.00941
1.00234
1.0026
1.00295
1.00339
1.00394
1.00465
1.00553
1.00665
1.00823
1.00961
1.00219
1.00244
1.00281
1.00326
1.00385
1.00457
1.00551
1.00666
1.00834
1.00978
1.00211
1.00236
1.00273
1.00315
1.00376
1.00443
1.00546
1.00656
1.00839
1.00978
1.00211
1.00235
1.0027
1.00312
1.00368
1.00434
1.00536
1.00641
1.00837
1.00978
1.00218
1.00242
1.00276
1.00318
1.00373
1.0044
1.00528
1.00637
1.00804
1.00983
1.00226
1.00251
1.00285
1.00327
1.00381
1.00448
1.00534
1.00644
1.00789
1.00994
1.00236
1.00261
1.00295
1.00338
1.00391
1.00459
1.00542
1.00652
1.00788
1.00995
1.00246
1.00272
1.00306
1.0035
1.00402
1.00471
1.0055
1.00663
1.00788
1.01008
1.00255
1.00282
1.00315
1.00359
1.00409
1.00479
1.00555
1.00669
1.00794
1.00997
1.00262
1.00288
1.00321
1.00364
1.00414
1.0048
1.00559
1.00666
1.00805
1.0098
1.00266
1.00292
1.00327
1.00366
1.0042
1.0048
1.00566
1.00662
1.0082
1.00969
1
1
1
1
1
1
1
1
0.999975
1.00469
1
1
1
1
1
1
1
1
0.999983
1.00287
1
1
1
1
1
1
1
1
0.99999
1.00201
1
1
1
1
1
1
1
1
0.999996
1.0016
1
1
1
1
1
1
1
1
1
1.00148
1
1
1
1
1
1
1
1
1.00001
1.00146
1
1
1
1
1
1
1
1
1.00001
1.00153
1
1
1
1
1
1
1
1
1.00001
1.00155
1
1
1
1
1
1
1
1
1.00001
1.00151
1
1
1
1
1
1
1
1
1.00002
1.00136
1
1
1
1
1
1
1
1
1.00002
1.00125
1
1
1
1
1
1
1
1
1.00002
1.00121
1
1
1
1
1
1
1
1
1.00002
1.00122
1
1
1
1
1
1
1
1
1.00002
1.00126
1
1
1
1
1
1
1
1
1.00002
1.00132
1
1
1
1
1
1
1
1
1.00002
1.00138
1
1
1
1
1
1
1
1
1.00002
1.00145
1
1
1
1
1
1
1
1
1.00001
1.00151
1
1
1
1
1
1
1
1
1.00001
1.00156
1
1
1
1
1
1
1
1
1.00001
1.00159
1
1
1
1
1
1
1
1
1.00001
1.00159
1
1
1
1
1
1
1
1
1.00001
1.00156
1
1
1
1
1
1
1
1
1.00001
1.00151
1
1
1
1
1
1
1
1
1.00002
1.00145
1
1
1
1
1
1
1
1
1.00002
1.00138
1
1
1
1
1
1
1
1
1.00002
1.00132
1
1
1
1
1
1
1
1
1.00002
1.00126
1
1
1
1
1
1
1
1
1.00002
1.00122
1
1
1
1
1
1
1
1
1.00002
1.00121
1
1
1
1
1
1
1
1
1.00002
1.00125
1
1
1
1
1
1
1
1
1.00002
1.00136
1
1
1
1
1
1
1
1
1.00001
1.00151
1
1
1
1
1
1
1
1
1.00001
1.00155
1
1
1
1
1
1
1
1
1.00001
1.00153
1
1
1
1
1
1
1
1
1.00001
1.00146
1
1
1
1
1
1
1
1
1
1.00148
1
1
1
1
1
1
1
1
0.999996
1.0016
1
1
1
1
1
1
1
1
0.99999
1.00201
1
1
1
1
1
1
1
1
0.999983
1.00287
1
1
1
1
1
1
1
1
0.999975
1.0047
1.00266
1.00292
1.00327
1.00367
1.0042
1.0048
1.00566
1.00662
1.0082
1.00969
1.00262
1.00288
1.00321
1.00364
1.00414
1.0048
1.00559
1.00666
1.00805
1.0098
1.00255
1.00282
1.00315
1.00359
1.00409
1.00479
1.00555
1.00669
1.00794
1.00997
1.00246
1.00272
1.00306
1.0035
1.00402
1.00471
1.0055
1.00664
1.00788
1.01008
1.00236
1.00261
1.00295
1.00338
1.00391
1.00459
1.00542
1.00652
1.00788
1.00995
1.00226
1.00251
1.00285
1.00327
1.00381
1.00448
1.00534
1.00644
1.00789
1.00994
1.00218
1.00242
1.00276
1.00318
1.00373
1.0044
1.00528
1.00637
1.00804
1.00983
1.00211
1.00235
1.0027
1.00312
1.00368
1.00434
1.00536
1.00641
1.00837
1.00978
1.00211
1.00236
1.00273
1.00315
1.00376
1.00443
1.00546
1.00656
1.00839
1.00978
1.00219
1.00244
1.00281
1.00326
1.00385
1.00457
1.00551
1.00666
1.00834
1.00978
1.00234
1.0026
1.00295
1.00339
1.00394
1.00465
1.00553
1.00665
1.00823
1.00961
1.00253
1.00278
1.0031
1.00352
1.00402
1.0047
1.00552
1.0066
1.00816
1.00941
1.00259
1.00287
1.00319
1.00362
1.00409
1.00479
1.00554
1.00668
1.00807
1.00926
1.00259
1.00286
1.00321
1.00365
1.00418
1.00487
1.00562
1.00684
1.00778
1.03107
1.00252
1.00279
1.00318
1.00363
1.00421
1.00486
1.0057
1.00683
1.00762
1.28845
1.00254
1.0028
1.00317
1.00359
1.00418
1.0048
1.00586
1.00663
1.02343
1.80469
1.00269
1.00297
1.00332
1.00382
1.00442
1.00529
1.00641
1.0073
1.25394
2.01663
1.00344
1.00384
1.00434
1.00508
1.00591
1.00729
1.00818
1.03348
1.81938
2.13854
1.00499
1.0056
1.00641
1.00752
1.00885
1.01055
1.01194
1.31074
2.0527
2.12768
1.00821
1.0092
1.01054
1.01219
1.01435
1.01614
1.0562
1.907
2.15871
2.1111
)
;

boundaryField
{
    inlet
    {
        type            fixedValue;
        value           uniform 1;
    }
    outlet
    {
        type            inletOutlet;
        inletValue      uniform 1;
        value           nonuniform List<scalar> 
100
(
1.52418
1.50239
1.47564
1.44266
1.41164
1.38934
1.38697
1.39152
1.41325
1.44085
1.46375
1.48031
1.48803
1.48952
1.49178
1.49097
1.49431
1.48872
1.48891
1.48513
1.5674
1.56208
1.55975
1.55783
1.55521
1.55227
1.54933
1.54743
1.54625
1.54478
1.54294
1.54086
1.53993
1.54044
1.54362
1.54681
1.54851
1.54787
1.54396
1.5374
1.57547
1.58866
1.6133
1.65137
1.69007
1.71346
1.72002
1.71755
1.71174
1.70723
1.70575
1.71165
1.71693
1.71994
1.71332
1.68986
1.6517
1.6133
1.58815
1.57561
1.5374
1.54395
1.54786
1.5485
1.54682
1.54364
1.54048
1.53995
1.54085
1.54291
1.54475
1.54627
1.54745
1.54927
1.55217
1.55517
1.55793
1.5599
1.56197
1.56706
1.48513
1.48891
1.48872
1.49431
1.49097
1.49178
1.48952
1.48803
1.48032
1.46375
1.44085
1.41325
1.39152
1.38697
1.38934
1.41164
1.44265
1.47564
1.50239
1.52418
)
;
    }
    triangle
    {
        type            zeroGradient;
    }
    top
    {
        type            symmetryPlane;
    }
    bottom
    {
        type            symmetryPlane;
    }
    defaultFaces
    {
        type            empty;
    }
}


// ************************************************************************* //
