/*--------------------------------*- C++ -*----------------------------------*\
  =========                 |
  \\      /  F ield         | OpenFOAM: The Open Source CFD Toolbox
   \\    /   O peration     | Website:  https://openfoam.org
    \\  /    A nd           | Version:  7
     \\/     M anipulation  |
\*---------------------------------------------------------------------------*/
FoamFile
{
    version     2.0;
    format      ascii;
    class       volVectorField;
    location    "0.7";
    object      U;
}
// * * * * * * * * * * * * * * * * * * * * * * * * * * * * * * * * * * * * * //

dimensions      [0 1 -1 0 0 0 0];

internalField   nonuniform List<vector> 
2600
(
(1.59359 0.507869 0)
(2.14173 0.519984 0)
(2.15182 0.671709 0)
(2.10232 0.444788 0)
(2.03008 0.195746 0)
(2.02169 0.0341239 0)
(2.09174 0.00319087 0)
(2.12978 0.00817039 0)
(2.05473 0.0546349 0)
(1.93574 0.0375389 0)
(1.0978 0.0401458 0)
(1.98251 0.458965 0)
(2.17069 0.64947 0)
(2.09585 0.374922 0)
(2.03664 0.161058 0)
(2.02089 0.024387 0)
(2.08691 -0.0143641 0)
(2.12847 -0.00181164 0)
(2.06524 0.0550938 0)
(1.93891 0.0413365 0)
(0.52675 -0.0032217 0)
(1.62203 0.441681 0)
(2.12719 0.603605 0)
(2.10785 0.324657 0)
(2.04575 0.135558 0)
(2.03632 0.00618952 0)
(2.08973 -0.0266043 0)
(2.12187 0.00541753 0)
(2.07559 0.0680286 0)
(1.94552 0.0479229 0)
(0.186188 -0.142433 0)
(1.19214 0.287133 0)
(1.97689 0.52241 0)
(2.08265 0.265721 0)
(2.0596 0.111151 0)
(2.04857 0.0044921 0)
(2.07095 -0.0255571 0)
(2.07885 -0.00594246 0)
(2.05425 0.0603419 0)
(1.9396 0.0480149 0)
(-0.00886014 -0.150251 0)
(0.767579 0.184137 0)
(1.71379 0.42878 0)
(1.99587 0.20532 0)
(2.04747 0.0981607 0)
(2.0112 0.00773975 0)
(1.97221 -0.028567 0)
(1.9465 -0.00780735 0)
(1.95109 0.0579837 0)
(1.8916 0.0514948 0)
(-0.148175 -0.147639 0)
(0.409747 0.0696069 0)
(1.37151 0.287144 0)
(1.7951 0.190927 0)
(1.93151 0.0805083 0)
(1.84647 0.00690431 0)
(1.74201 -0.021415 0)
(1.68324 -0.00729249 0)
(1.72498 0.0484539 0)
(1.77738 0.0510589 0)
(-0.257989 -0.131424 0)
(0.085844 0.00320816 0)
(0.911364 0.199875 0)
(1.43231 0.137047 0)
(1.61515 0.0778687 0)
(1.51079 0.0125192 0)
(1.4007 -0.0109059 0)
(1.34208 0.000190103 0)
(1.42267 0.0450684 0)
(1.61616 0.0470336 0)
(-0.338797 -0.110661 0)
(-0.185513 -0.0371132 0)
(0.395273 0.108063 0)
(0.911155 0.0847658 0)
(1.12527 0.0403429 0)
(1.11136 0.033269 0)
(1.0717 -0.0017926 0)
(1.0465 0.00103055 0)
(1.15491 0.0279814 0)
(1.4612 0.0355397 0)
(-0.386725 -0.0711403 0)
(-0.361425 -0.0420303 0)
(-0.0121735 0.0660116 0)
(0.442771 0.0673471 0)
(0.713807 0.0485588 0)
(0.832864 0.0230868 0)
(0.870275 0.00453416 0)
(0.877478 0.000642763 0)
(0.991924 0.0213732 0)
(1.35577 0.0276412 0)
(-0.40498 -0.0247007 0)
(-0.429511 -0.0170355 0)
(-0.17766 0.0270876 0)
(0.246816 0.0319339 0)
(0.554822 0.0198551 0)
(0.735009 0.0152184 0)
(0.806516 0.00153322 0)
(0.824653 0.00136625 0)
(0.934363 0.00805881 0)
(1.3142 0.00841136 0)
(-0.404987 0.0250327 0)
(-0.429527 0.0171235 0)
(-0.177635 -0.0272115 0)
(0.246769 -0.0298417 0)
(0.5558 -0.0209073 0)
(0.735074 -0.0080148 0)
(0.806058 -0.00113082 0)
(0.824217 0.000676183 0)
(0.935046 -0.00842136 0)
(1.31464 -0.0124635 0)
(-0.386761 0.0714897 0)
(-0.36146 0.0422376 0)
(-0.0121749 -0.0657436 0)
(0.443037 -0.0691693 0)
(0.715189 -0.0459261 0)
(0.830763 -0.0309459 0)
(0.869368 -0.00397327 0)
(0.877767 -0.00163176 0)
(0.991505 -0.0215922 0)
(1.3578 -0.023427 0)
(-0.338865 0.111025 0)
(-0.185585 0.0373917 0)
(0.39531 -0.107976 0)
(0.91088 -0.0846369 0)
(1.12728 -0.0470235 0)
(1.11147 -0.021332 0)
(1.07151 0.00217259 0)
(1.04761 0.0023466 0)
(1.15513 -0.0282533 0)
(1.46119 -0.0358453 0)
(-0.258088 0.131771 0)
(0.0856977 -0.00303538 0)
(0.911429 -0.2 0)
(1.43221 -0.137784 0)
(1.61524 -0.0754256 0)
(1.51179 -0.0274994 0)
(1.40115 0.00931072 0)
(1.34243 -0.00116667 0)
(1.42329 -0.0449658 0)
(1.6153 -0.0474103 0)
(-0.148322 0.147983 0)
(0.409535 -0.0693104 0)
(1.37153 -0.287368 0)
(1.7948 -0.190561 0)
(1.93219 -0.0785232 0)
(1.84545 0.00189103 0)
(1.74181 0.0213663 0)
(1.68369 0.00710983 0)
(1.72504 -0.0471345 0)
(1.77722 -0.050342 0)
(-0.00910356 0.150563 0)
(0.767235 -0.183896 0)
(1.71385 -0.428803 0)
(1.99557 -0.204849 0)
(2.04865 -0.100252 0)
(2.01133 -0.00895044 0)
(1.9719 0.0283389 0)
(1.94676 0.00785033 0)
(1.95126 -0.0580794 0)
(1.89184 -0.0516837 0)
(0.185733 0.142828 0)
(1.19175 -0.286727 0)
(1.97692 -0.522469 0)
(2.08284 -0.265626 0)
(2.06009 -0.111476 0)
(2.0481 -0.00479146 0)
(2.07022 0.0257309 0)
(2.07909 0.00232516 0)
(2.05486 -0.0642541 0)
(1.93972 -0.0491252 0)
(0.525856 0.00366891 0)
(1.62162 -0.441632 0)
(2.1273 -0.603719 0)
(2.10823 -0.32491 0)
(2.04587 -0.135313 0)
(2.0358 -0.00774228 0)
(2.08904 0.0250355 0)
(2.1229 -0.00573965 0)
(2.07646 -0.0665472 0)
(1.94554 -0.0471424 0)
(1.09698 -0.0395395 0)
(1.98243 -0.458929 0)
(2.17091 -0.649624 0)
(2.09601 -0.375205 0)
(2.03604 -0.161326 0)
(2.02081 -0.0252118 0)
(2.08696 0.0157002 0)
(2.1289 0.00666274 0)
(2.06527 -0.0513657 0)
(1.93879 -0.0402242 0)
(1.59388 -0.507435 0)
(2.14199 -0.520042 0)
(2.15213 -0.671871 0)
(2.10226 -0.44486 0)
(2.0296 -0.19572 0)
(2.02203 -0.0336829 0)
(2.09164 -0.00233497 0)
(2.12884 -0.00735047 0)
(2.05438 -0.0549814 0)
(1.93575 -0.0382551 0)
(2.00966 -0.173201 0)
(2.13809 -0.526427 0)
(2.12788 -0.700051 0)
(2.12197 -0.531347 0)
(2.07435 -0.240947 0)
(2.03846 -0.0469168 0)
(2.11132 -0.00624556 0)
(2.13686 -0.0141279 0)
(2.05032 -0.0581525 0)
(1.93698 -0.0428147 0)
(2.00216 -0.00535465 0)
(2.14273 -0.452371 0)
(2.09463 -0.711929 0)
(2.14369 -0.648134 0)
(2.14628 -0.323202 0)
(2.05878 -0.0752291 0)
(2.13789 -0.0261707 0)
(2.14449 -0.0118865 0)
(2.04729 -0.0517066 0)
(1.9433 -0.04379 0)
(1.89528 0.131958 0)
(2.1133 -0.388911 0)
(2.07435 -0.690924 0)
(2.16222 -0.745539 0)
(2.1961 -0.439776 0)
(2.07716 -0.112839 0)
(2.16903 -0.0419991 0)
(2.14669 -0.00443433 0)
(2.04531 -0.0427441 0)
(1.95294 -0.0428275 0)
(1.81029 0.1893 0)
(2.03225 -0.268026 0)
(2.07197 -0.61281 0)
(2.17264 -0.763729 0)
(2.22253 -0.585006 0)
(2.11167 -0.172737 0)
(2.19469 -0.0579182 0)
(2.14553 -0.00143291 0)
(2.0417 -0.0370617 0)
(1.96222 -0.0432946 0)
(1.73296 0.237202 0)
(1.96161 -0.188519 0)
(2.06863 -0.548862 0)
(2.16589 -0.726243 0)
(2.23277 -0.684175 0)
(2.19143 -0.278156 0)
(2.21136 -0.0802244 0)
(2.14492 -0.00552613 0)
(2.03679 -0.0368616 0)
(1.97073 -0.0463856 0)
(1.67811 0.261624 0)
(1.89476 -0.0981701 0)
(2.05262 -0.458277 0)
(2.15598 -0.692966 0)
(2.27549 -0.704953 0)
(2.26787 -0.39504 0)
(2.22661 -0.106009 0)
(2.15024 -0.00755296 0)
(2.03242 -0.0355133 0)
(1.97981 -0.0501439 0)
(1.62764 0.290617 0)
(1.8545 -0.0419538 0)
(2.04184 -0.390644 0)
(2.1628 -0.627026 0)
(2.29433 -0.673708 0)
(2.31251 -0.50182 0)
(2.25027 -0.130065 0)
(2.1605 -0.0136272 0)
(2.03159 -0.0331323 0)
(1.98859 -0.0542923 0)
(1.60063 0.312127 0)
(1.82173 0.0188343 0)
(2.03763 -0.321246 0)
(2.17755 -0.58218 0)
(2.28684 -0.66301 0)
(2.35087 -0.584704 0)
(2.29177 -0.19136 0)
(2.16821 -0.0195265 0)
(2.04175 -0.0308167 0)
(1.99631 -0.0551709 0)
(1.59533 0.338176 0)
(1.81495 0.0589332 0)
(2.04748 -0.27009 0)
(2.18513 -0.515808 0)
(2.28457 -0.607056 0)
(2.3776 -0.608056 0)
(2.32415 -0.271335 0)
(2.17588 -0.0377643 0)
(2.05151 -0.0256253 0)
(2.00051 -0.0575182 0)
(1.61958 0.367654 0)
(1.82664 0.0995913 0)
(2.06418 -0.21444 0)
(2.19482 -0.468918 0)
(2.29855 -0.576098 0)
(2.38961 -0.607562 0)
(2.35572 -0.371882 0)
(2.17465 -0.0564157 0)
(2.05897 -0.02014 0)
(2.00127 -0.0631212 0)
(1.68309 0.396801 0)
(1.86174 0.130804 0)
(2.09105 -0.174672 0)
(2.203 -0.412867 0)
(2.29938 -0.500369 0)
(2.38448 -0.594466 0)
(2.37242 -0.445167 0)
(2.17392 -0.0814581 0)
(2.06639 -0.0209713 0)
(2.00111 -0.0686967 0)
(1.77367 0.440415 0)
(1.91489 0.165707 0)
(2.11586 -0.12558 0)
(2.21291 -0.365005 0)
(2.30168 -0.462699 0)
(2.37368 -0.580519 0)
(2.39103 -0.504134 0)
(2.20357 -0.140253 0)
(2.07666 -0.0278746 0)
(1.99995 -0.0731323 0)
(1.87033 0.489052 0)
(1.98007 0.203508 0)
(2.14316 -0.0879198 0)
(2.21858 -0.318337 0)
(2.28981 -0.390036 0)
(2.36013 -0.546149 0)
(2.40648 -0.511625 0)
(2.24786 -0.199368 0)
(2.09267 -0.0361447 0)
(2.00126 -0.0746155 0)
(1.94751 0.536884 0)
(2.04659 0.246769 0)
(2.16422 -0.0388268 0)
(2.22008 -0.270233 0)
(2.28198 -0.352345 0)
(2.35409 -0.51691 0)
(2.4083 -0.51456 0)
(2.30572 -0.274429 0)
(2.11514 -0.0506746 0)
(2.00655 -0.0753612 0)
(1.99075 0.570272 0)
(2.09547 0.29441 0)
(2.17752 0.00845182 0)
(2.21574 -0.2276 0)
(2.26497 -0.30053 0)
(2.33785 -0.460731 0)
(2.40667 -0.501927 0)
(2.34456 -0.339573 0)
(2.13267 -0.0761904 0)
(2.01368 -0.0748237 0)
(1.95113 0.614808 0)
(2.10576 0.334771 0)
(2.17031 0.0581139 0)
(2.19835 -0.176169 0)
(2.24936 -0.266273 0)
(2.32818 -0.430235 0)
(2.4082 -0.49188 0)
(2.36958 -0.398394 0)
(2.13785 -0.104269 0)
(2.01753 -0.0797713 0)
(1.91893 0.637759 0)
(2.05894 0.391263 0)
(2.13948 0.111332 0)
(2.18058 -0.135822 0)
(2.22855 -0.225588 0)
(2.31046 -0.381346 0)
(2.40115 -0.463208 0)
(2.38236 -0.440182 0)
(2.14557 -0.142387 0)
(2.01948 -0.0840149 0)
(1.89083 0.653525 0)
(2.03701 0.428378 0)
(2.11747 0.151231 0)
(2.15702 -0.0947876 0)
(2.20855 -0.196134 0)
(2.29334 -0.344296 0)
(2.39917 -0.441727 0)
(2.38757 -0.467088 0)
(2.1617 -0.185153 0)
(2.02514 -0.0900454 0)
(1.84538 0.665556 0)
(1.99468 0.458494 0)
(2.0569 0.1991 0)
(2.11128 -0.0474389 0)
(2.18271 -0.159609 0)
(2.27879 -0.313923 0)
(2.39221 -0.408658 0)
(2.38176 -0.471041 0)
(2.19579 -0.240883 0)
(2.03221 -0.0973616 0)
(1.77793 0.670375 0)
(1.94232 0.487991 0)
(2.02685 0.236161 0)
(2.09088 -0.0162165 0)
(2.16625 -0.135325 0)
(2.26253 -0.276713 0)
(2.38058 -0.376322 0)
(2.37133 -0.462756 0)
(2.22547 -0.293667 0)
(2.04021 -0.107438 0)
(0.626658 0.198836 0)
(0.685356 0.262622 0)
(0.761713 0.340701 0)
(0.821566 0.408884 0)
(0.872867 0.459219 0)
(0.918027 0.49741 0)
(0.961488 0.52899 0)
(1.01458 0.55576 0)
(1.095 0.589339 0)
(1.26395 0.618501 0)
(0.680779 0.263212 0)
(0.695324 0.315321 0)
(0.755916 0.371565 0)
(0.804638 0.428903 0)
(0.856055 0.473054 0)
(0.903155 0.508499 0)
(0.950767 0.537512 0)
(1.00894 0.563096 0)
(1.09661 0.59612 0)
(1.26535 0.619646 0)
(0.796512 0.286956 0)
(0.766072 0.327134 0)
(0.810279 0.358456 0)
(0.833341 0.404331 0)
(0.869049 0.447381 0)
(0.905928 0.484414 0)
(0.951111 0.51502 0)
(1.01249 0.542766 0)
(1.1073 0.575448 0)
(1.28452 0.581738 0)
(0.895226 0.347998 0)
(0.839189 0.38433 0)
(0.864748 0.414616 0)
(0.867689 0.43871 0)
(0.885813 0.461548 0)
(0.913379 0.482733 0)
(0.95565 0.504028 0)
(1.01651 0.526853 0)
(1.11196 0.554304 0)
(1.28394 0.550025 0)
(0.991512 0.403812 0)
(0.915706 0.430091 0)
(0.921606 0.447962 0)
(0.915112 0.459845 0)
(0.919462 0.466754 0)
(0.934785 0.478634 0)
(0.969292 0.493331 0)
(1.02684 0.512034 0)
(1.11842 0.531026 0)
(1.28877 0.52619 0)
(1.10234 0.491215 0)
(0.975717 0.507898 0)
(0.961238 0.500829 0)
(0.943009 0.498886 0)
(0.940481 0.494633 0)
(0.955444 0.491244 0)
(0.988359 0.495738 0)
(1.04422 0.507842 0)
(1.13061 0.515313 0)
(1.29001 0.506252 0)
(1.29029 0.615648 0)
(1.08149 0.599951 0)
(1.04628 0.566839 0)
(1.01036 0.535278 0)
(0.997826 0.511424 0)
(1.00676 0.49773 0)
(1.02919 0.500664 0)
(1.07381 0.505693 0)
(1.14919 0.503769 0)
(1.29476 0.492945 0)
(1.62511 0.732578 0)
(1.25207 0.741429 0)
(1.18136 0.688394 0)
(1.13637 0.626288 0)
(1.10316 0.582431 0)
(1.09245 0.554486 0)
(1.0944 0.544445 0)
(1.11892 0.531439 0)
(1.1793 0.511054 0)
(1.31336 0.494785 0)
(2.10921 0.69156 0)
(1.53914 0.84566 0)
(1.36408 0.782702 0)
(1.31563 0.740448 0)
(1.26558 0.692745 0)
(1.23472 0.642865 0)
(1.21191 0.610908 0)
(1.21184 0.568352 0)
(1.24329 0.529056 0)
(1.36344 0.507212 0)
(2.52808 0.514645 0)
(2.09281 0.76489 0)
(1.49759 0.884336 0)
(1.47613 0.855767 0)
(1.44151 0.813812 0)
(1.40385 0.763095 0)
(1.36326 0.717476 0)
(1.34426 0.650941 0)
(1.34012 0.590467 0)
(1.44854 0.549139 0)
(2.71491 0.37239 0)
(2.64626 0.468471 0)
(1.92789 0.861652 0)
(1.55902 0.941414 0)
(1.56658 0.915223 0)
(1.55981 0.863955 0)
(1.51927 0.818489 0)
(1.50373 0.73767 0)
(1.48062 0.654118 0)
(1.57731 0.591621 0)
(2.81372 0.270653 0)
(2.79804 0.302396 0)
(2.59271 0.535876 0)
(1.85281 0.939475 0)
(1.61352 0.975558 0)
(1.62967 0.945056 0)
(1.61946 0.902481 0)
(1.63106 0.82345 0)
(1.62422 0.731372 0)
(1.71554 0.648462 0)
(2.86754 0.220381 0)
(2.85986 0.236483 0)
(2.84513 0.268768 0)
(2.4361 0.684362 0)
(1.74171 1.01218 0)
(1.65193 0.965921 0)
(1.6657 0.92859 0)
(1.71209 0.849832 0)
(1.73251 0.779054 0)
(1.81441 0.706181 0)
(2.90163 0.183764 0)
(2.89689 0.192223 0)
(2.88714 0.211245 0)
(2.86372 0.274446 0)
(2.11764 0.855871 0)
(1.70229 0.986655 0)
(1.66277 0.91646 0)
(1.72177 0.850786 0)
(1.77744 0.790385 0)
(1.85909 0.731346 0)
(2.93613 0.12367 0)
(2.92923 0.140147 0)
(2.92839 0.141537 0)
(2.91798 0.166753 0)
(2.81654 0.400191 0)
(1.76848 0.981255 0)
(1.608 0.874903 0)
(1.67012 0.852732 0)
(1.74937 0.823654 0)
(1.83777 0.772625 0)
(2.95552 0.0938468 0)
(2.95089 0.103392 0)
(2.9486 0.109124 0)
(2.94168 0.126385 0)
(2.96063 0.136867 0)
(2.01521 0.761475 0)
(1.56166 0.884038 0)
(1.63372 0.859274 0)
(1.71995 0.833826 0)
(1.80252 0.788731 0)
(2.96228 0.0794941 0)
(2.96106 0.0815722 0)
(2.95734 0.0908011 0)
(2.95482 0.0939824 0)
(2.94955 0.10575 0)
(2.74406 0.376978 0)
(1.52661 0.83898 0)
(1.55719 0.834243 0)
(1.64964 0.821388 0)
(1.76387 0.787664 0)
(2.97275 0.0548749 0)
(2.97132 0.0574261 0)
(2.96811 0.0650853 0)
(2.9664 0.0674214 0)
(2.96284 0.0781732 0)
(3.0123 0.0878312 0)
(1.64275 0.721856 0)
(1.49886 0.762687 0)
(1.59829 0.757725 0)
(1.7141 0.745165 0)
(2.98038 0.0377926 0)
(2.9789 0.0404853 0)
(2.9758 0.0468351 0)
(2.9744 0.0496896 0)
(2.97038 0.0578308 0)
(2.96917 0.0641154 0)
(1.92705 0.614457 0)
(1.41599 0.798653 0)
(1.51275 0.785778 0)
(1.63039 0.772177 0)
(2.98623 0.0236119 0)
(2.9842 0.0278243 0)
(2.98263 0.0297465 0)
(2.97946 0.0362993 0)
(2.977 0.0403425 0)
(2.97335 0.0450696 0)
(2.71283 0.343665 0)
(1.44641 0.775883 0)
(1.43418 0.757071 0)
(1.53763 0.744452 0)
(3 1.24377e-15 0)
(3 -1.26562e-15 0)
(3 -7.04315e-16 0)
(3 -5.02096e-14 0)
(3 1.49819e-12 0)
(3 4.63428e-11 0)
(3 -1.51694e-08 0)
(2.99999 1.74861e-06 0)
(3.00123 -6.19367e-05 0)
(1.63358 0.0498915 0)
(3 2.59344e-17 0)
(3 -3.07044e-15 0)
(3 -1.19533e-15 0)
(3 -1.16908e-13 0)
(3 7.11022e-12 0)
(3 -2.29431e-10 0)
(3 -3.62064e-08 0)
(2.99999 1.39311e-06 0)
(3.00112 -0.000147943 0)
(1.69149 0.157493 0)
(3 -8.52285e-16 0)
(3 -2.92056e-15 0)
(3 -1.95267e-15 0)
(3 -1.7675e-13 0)
(3 2.46134e-12 0)
(3 -3.4942e-10 0)
(3 -5.15394e-08 0)
(2.99999 2.94681e-06 0)
(3.00098 -0.000206993 0)
(1.79838 0.231298 0)
(3 -3.28615e-16 0)
(3 -3.36123e-15 0)
(3 2.11731e-15 0)
(3 -2.33112e-13 0)
(3 -5.03169e-12 0)
(3 -8.53401e-11 0)
(3 -7.41186e-08 0)
(2.99999 4.8924e-06 0)
(3.00085 -0.000290814 0)
(1.92117 0.291194 0)
(3 -2.08461e-15 0)
(3 -5.03705e-15 0)
(3 2.31466e-15 0)
(3 -2.80428e-13 0)
(3 -1.28533e-11 0)
(3 3.89778e-10 0)
(3 -8.52142e-08 0)
(2.99999 6.22183e-06 0)
(3.00067 -0.000332678 0)
(2.05336 0.336285 0)
(3 -1.31137e-15 0)
(3 -8.93538e-16 0)
(3 4.24377e-15 0)
(3 -2.94333e-13 0)
(3 -1.46209e-11 0)
(3 8.9732e-10 0)
(3 -1.07511e-07 0)
(2.99999 6.95414e-06 0)
(3.00052 -0.000359562 0)
(2.19886 0.370884 0)
(3 5.9703e-16 0)
(3 3.71301e-15 0)
(3 8.27145e-15 0)
(3 -2.67938e-13 0)
(3 -1.74937e-11 0)
(3 1.43456e-09 0)
(3 -1.32163e-07 0)
(2.99999 6.89557e-06 0)
(3.0004 -0.000372176 0)
(2.36877 0.383007 0)
(3 2.40418e-15 0)
(3 1.46461e-15 0)
(3 7.38692e-15 0)
(3 -6.62012e-14 0)
(3 -1.72966e-11 0)
(3 1.82536e-09 0)
(3 -1.38819e-07 0)
(2.99999 6.88642e-06 0)
(3.00033 -0.000375519 0)
(2.53841 0.366102 0)
(3 1.74784e-15 0)
(3 1.33052e-15 0)
(3 7.08058e-15 0)
(3 -2.96008e-14 0)
(3 -1.27794e-11 0)
(3 1.55706e-09 0)
(3 -1.47583e-07 0)
(2.99999 6.65048e-06 0)
(3.00025 -0.000365551 0)
(2.66701 0.31998 0)
(3 -7.10474e-16 0)
(3 2.55497e-15 0)
(3 8.94836e-15 0)
(3 -4.27691e-14 0)
(3 -6.38304e-12 0)
(3 1.30862e-09 0)
(3 -1.60121e-07 0)
(2.99999 6.3883e-06 0)
(3.00021 -0.0003529 0)
(2.75448 0.273924 0)
(3 -1.86192e-15 0)
(3 1.9328e-15 0)
(3 8.08821e-15 0)
(3 -1.17282e-13 0)
(3 -1.47513e-13 0)
(3 1.11853e-09 0)
(3 -1.664e-07 0)
(2.99999 6.21515e-06 0)
(3.00018 -0.000332665 0)
(2.8203 0.226409 0)
(3 7.71307e-16 0)
(3 3.60152e-15 0)
(3 8.55586e-15 0)
(3 -9.47751e-14 0)
(3 3.61767e-12 0)
(3 5.99855e-10 0)
(3 -1.75977e-07 0)
(3 6.11779e-06 0)
(3.00016 -0.000313826 0)
(2.86841 0.184602 0)
(3 -1.60236e-16 0)
(3 6.90257e-16 0)
(3 6.36017e-15 0)
(3 -9.67753e-14 0)
(3 4.99308e-12 0)
(3 3.00147e-10 0)
(3 -1.70712e-07 0)
(3 6.09169e-06 0)
(3.00014 -0.000287444 0)
(2.90627 0.149695 0)
(3 -7.6624e-16 0)
(3 -4.11266e-15 0)
(3 3.61127e-15 0)
(3 -1.02833e-13 0)
(3 1.81957e-12 0)
(3 2.43428e-10 0)
(3 -1.49569e-07 0)
(3 6.04205e-06 0)
(3.00011 -0.000263943 0)
(2.93871 0.113491 0)
(3 1.24561e-16 0)
(3 -3.31474e-15 0)
(3 2.5489e-15 0)
(3 -9.54558e-14 0)
(3 -3.11302e-12 0)
(3 2.90008e-10 0)
(3 -1.26093e-07 0)
(3 5.85205e-06 0)
(3.00009 -0.000236763 0)
(2.95275 0.097241 0)
(3 8.69156e-16 0)
(3 1.62223e-15 0)
(3 2.95441e-15 0)
(3 -3.85755e-14 0)
(3 -5.21338e-12 0)
(3 2.88502e-10 0)
(3 -9.69654e-08 0)
(3 5.40597e-06 0)
(3.00007 -0.000213447 0)
(2.97004 0.0627336 0)
(3 1.45941e-15 0)
(3 3.97839e-15 0)
(3 1.31945e-15 0)
(3 2.02611e-14 0)
(3 -1.03513e-11 0)
(3 3.73279e-10 0)
(3 -5.73835e-08 0)
(3 4.72602e-06 0)
(3.00005 -0.000189128 0)
(2.97778 0.0454005 0)
(3 3.14031e-16 0)
(3 1.43033e-15 0)
(3 -3.73654e-16 0)
(3 7.33724e-14 0)
(3 -1.22144e-11 0)
(3 6.14908e-10 0)
(3 -2.1168e-08 0)
(3 4.00447e-06 0)
(3.00004 -0.000168085 0)
(2.98445 0.0306196 0)
(3 2.06988e-16 0)
(3 7.99321e-16 0)
(3 -8.21057e-16 0)
(3 1.34675e-13 0)
(3 -1.54735e-11 0)
(3 4.61897e-10 0)
(3 1.29675e-08 0)
(3 3.50432e-06 0)
(3.00002 -0.000146933 0)
(2.98913 0.0206393 0)
(3 8.80684e-16 0)
(3 1.64957e-15 0)
(3 -2.73578e-15 0)
(3 1.40645e-13 0)
(3 -1.65572e-11 0)
(3 8.01564e-10 0)
(3 3.04254e-08 0)
(3 2.47915e-06 0)
(3.00001 -0.000128353 0)
(2.99204 0.0137135 0)
(3 -9.66271e-16 0)
(3 -1.26679e-15 0)
(3 2.06684e-15 0)
(3 -1.37543e-13 0)
(3 1.65534e-11 0)
(3 -8.02204e-10 0)
(3 -3.05698e-08 0)
(3 -2.46944e-06 0)
(3.00001 0.000127421 0)
(2.99204 -0.0137226 0)
(3 1.05415e-15 0)
(3 1.31259e-16 0)
(3 8.49929e-16 0)
(3 -1.34465e-13 0)
(3 1.54683e-11 0)
(3 -4.62747e-10 0)
(3 -1.30817e-08 0)
(3 -3.48933e-06 0)
(3.00002 0.000145706 0)
(2.98913 -0.0206465 0)
(3 7.35274e-16 0)
(3 -1.37062e-15 0)
(3 -3.16594e-15 0)
(3 -7.86005e-14 0)
(3 1.22128e-11 0)
(3 -6.1366e-10 0)
(3 2.11027e-08 0)
(3 -3.99369e-06 0)
(3.00004 0.000166598 0)
(2.98445 -0.0306234 0)
(3 -1.25486e-15 0)
(3 -2.62433e-15 0)
(3 -4.29667e-15 0)
(3 -2.29516e-14 0)
(3 1.03506e-11 0)
(3 -3.73077e-10 0)
(3 5.7442e-08 0)
(3 -4.71849e-06 0)
(3.00005 0.000187815 0)
(2.97778 -0.0454098 0)
(3 -1.26835e-15 0)
(3 -1.27604e-15 0)
(3 -4.63764e-15 0)
(3 3.69052e-14 0)
(3 5.21257e-12 0)
(3 -2.88143e-10 0)
(3 9.70222e-08 0)
(3 -5.40255e-06 0)
(3.00007 0.000212306 0)
(2.97004 -0.0627193 0)
(3 8.62508e-16 0)
(3 1.29753e-15 0)
(3 -4.26887e-15 0)
(3 9.38969e-14 0)
(3 3.10892e-12 0)
(3 -2.89687e-10 0)
(3 1.26093e-07 0)
(3 -5.85122e-06 0)
(3.00009 0.00023611 0)
(2.95274 -0.0972505 0)
(3 2.41592e-15 0)
(3 2.37311e-15 0)
(3 -4.16724e-15 0)
(3 1.03781e-13 0)
(3 -1.81775e-12 0)
(3 -2.42604e-10 0)
(3 1.49584e-07 0)
(3 -6.04407e-06 0)
(3.00011 0.000263525 0)
(2.93869 -0.113528 0)
(3 1.76995e-15 0)
(3 -1.15794e-15 0)
(3 -7.66792e-15 0)
(3 9.71817e-14 0)
(3 -4.98686e-12 0)
(3 -2.98336e-10 0)
(3 1.70521e-07 0)
(3 -6.09843e-06 0)
(3.00014 0.000286917 0)
(2.90627 -0.149685 0)
(3 -2.05865e-16 0)
(3 -2.9541e-15 0)
(3 -9.76318e-15 0)
(3 9.29299e-14 0)
(3 -3.61144e-12 0)
(3 -5.97282e-10 0)
(3 1.75828e-07 0)
(3 -6.13932e-06 0)
(3.00016 0.000313087 0)
(2.86837 -0.184652 0)
(3 -1.0549e-15 0)
(3 -2.54765e-16 0)
(3 -6.4424e-15 0)
(3 1.15719e-13 0)
(3 1.59738e-13 0)
(3 -1.12522e-09 0)
(3 1.65906e-07 0)
(2.99999 -6.24645e-06 0)
(3.00018 0.000331655 0)
(2.82025 -0.226462 0)
(3 7.25551e-17 0)
(3 9.51864e-16 0)
(3 -4.39241e-15 0)
(3 4.33507e-14 0)
(3 6.41502e-12 0)
(3 -1.32672e-09 0)
(3 1.59448e-07 0)
(2.99999 -6.47234e-06 0)
(3.00021 0.000353881 0)
(2.75441 -0.273997 0)
(3 8.25553e-16 0)
(3 2.31601e-15 0)
(3 -4.22129e-15 0)
(3 3.06292e-14 0)
(3 1.28439e-11 0)
(3 -1.6025e-09 0)
(3 1.47689e-07 0)
(2.99999 -6.76571e-06 0)
(3.00025 0.00036708 0)
(2.66687 -0.320109 0)
(3 1.15637e-15 0)
(3 3.61835e-15 0)
(3 -4.13561e-15 0)
(3 6.64905e-14 0)
(3 1.73701e-11 0)
(3 -1.9058e-09 0)
(3 1.42964e-07 0)
(2.99999 -7.11216e-06 0)
(3.00033 0.000380585 0)
(2.53815 -0.366269 0)
(3 1.99028e-15 0)
(3 1.59271e-15 0)
(3 -4.21197e-15 0)
(3 2.63488e-13 0)
(3 1.7747e-11 0)
(3 -1.57749e-09 0)
(3 1.34879e-07 0)
(2.99999 -7.1929e-06 0)
(3.00041 0.000379398 0)
(2.36823 -0.383094 0)
(3 -2.49577e-15 0)
(3 -1.44587e-15 0)
(3 -5.4778e-15 0)
(3 2.9488e-13 0)
(3 1.45377e-11 0)
(3 -9.93048e-10 0)
(3 1.12619e-07 0)
(2.99999 -6.98511e-06 0)
(3.00052 0.000363847 0)
(2.19812 -0.370911 0)
(3 -3.29883e-15 0)
(3 -1.75334e-15 0)
(3 -4.65845e-15 0)
(3 2.78441e-13 0)
(3 1.31339e-11 0)
(3 -3.29094e-10 0)
(3 9.4484e-08 0)
(2.99999 -6.12403e-06 0)
(3.00067 0.000332847 0)
(2.05258 -0.336175 0)
(3 -9.12955e-17 0)
(3 2.70961e-16 0)
(3 -2.67558e-15 0)
(3 2.30166e-13 0)
(3 5.1269e-12 0)
(3 6.71317e-11 0)
(3 7.38982e-08 0)
(2.99999 -4.33166e-06 0)
(3.00085 0.000290421 0)
(1.9205 -0.290948 0)
(3 1.45515e-15 0)
(3 1.28068e-15 0)
(3 -1.15265e-15 0)
(3 1.81457e-13 0)
(3 -2.3957e-12 0)
(3 4.44007e-10 0)
(3 5.41156e-08 0)
(2.99999 -2.60366e-06 0)
(3.00099 0.000205234 0)
(1.79791 -0.230973 0)
(3 1.12589e-16 0)
(3 2.47146e-15 0)
(3 -8.57828e-16 0)
(3 1.19109e-13 0)
(3 -4.46174e-12 0)
(3 4.90007e-10 0)
(3 3.0675e-08 0)
(2.99999 -1.07644e-06 0)
(3.00113 0.00014749 0)
(1.69118 -0.157123 0)
(3 -9.94534e-16 0)
(3 1.03212e-15 0)
(3 -1.07778e-15 0)
(3 3.46229e-14 0)
(3 -3.51987e-12 0)
(3 2.69904e-10 0)
(3 2.90163e-09 0)
(2.99999 -1.59524e-06 0)
(3.00123 5.93125e-05 0)
(1.63345 -0.0494952 0)
(2.98623 -0.0236169 0)
(2.98419 -0.0278352 0)
(2.98262 -0.0297602 0)
(2.97945 -0.0363056 0)
(2.97698 -0.040373 0)
(2.97335 -0.0450861 0)
(2.71509 -0.342286 0)
(1.44705 -0.775562 0)
(1.43425 -0.756718 0)
(1.53764 -0.744173 0)
(2.98037 -0.0378028 0)
(2.97889 -0.0405031 0)
(2.97579 -0.0468476 0)
(2.97438 -0.0497203 0)
(2.97037 -0.0578358 0)
(2.96908 -0.0641422 0)
(1.92916 -0.613575 0)
(1.41585 -0.798505 0)
(1.51262 -0.785626 0)
(1.63036 -0.771998 0)
(2.97274 -0.0548834 0)
(2.97131 -0.0574378 0)
(2.9681 -0.0651046 0)
(2.9664 -0.0674355 0)
(2.96282 -0.0782128 0)
(3.01214 -0.0875979 0)
(1.64363 -0.721083 0)
(1.49874 -0.762489 0)
(1.59825 -0.757572 0)
(1.71409 -0.744954 0)
(2.96226 -0.0795271 0)
(2.96105 -0.0815837 0)
(2.95733 -0.0908269 0)
(2.95482 -0.0939759 0)
(2.94954 -0.105763 0)
(2.74698 -0.375202 0)
(1.52719 -0.838719 0)
(1.55729 -0.833835 0)
(1.64973 -0.821072 0)
(1.76391 -0.787398 0)
(2.9555 -0.0938917 0)
(2.95088 -0.10341 0)
(2.94859 -0.109149 0)
(2.94166 -0.126402 0)
(2.96041 -0.136814 0)
(2.01756 -0.760517 0)
(1.56178 -0.884221 0)
(1.63376 -0.859292 0)
(1.72003 -0.833653 0)
(1.80264 -0.788545 0)
(2.93613 -0.123648 0)
(2.92923 -0.14015 0)
(2.9284 -0.141513 0)
(2.91798 -0.166744 0)
(2.81795 -0.398827 0)
(1.76962 -0.98108 0)
(1.60821 -0.874854 0)
(1.67028 -0.852631 0)
(1.74949 -0.82349 0)
(1.83794 -0.772493 0)
(2.90165 -0.183706 0)
(2.8969 -0.192174 0)
(2.88716 -0.211201 0)
(2.86401 -0.273995 0)
(2.11929 -0.85528 0)
(1.70303 -0.986904 0)
(1.66288 -0.916377 0)
(1.72189 -0.850675 0)
(1.77766 -0.790221 0)
(1.85933 -0.731191 0)
(2.86749 -0.220468 0)
(2.85983 -0.236522 0)
(2.84509 -0.268784 0)
(2.43785 -0.683383 0)
(1.74244 -1.01225 0)
(1.65209 -0.966016 0)
(1.66581 -0.928734 0)
(1.7123 -0.849904 0)
(1.73282 -0.778958 0)
(1.81477 -0.706054 0)
(2.8137 -0.270665 0)
(2.79803 -0.302386 0)
(2.59317 -0.53536 0)
(1.85372 -0.939223 0)
(1.61402 -0.975585 0)
(1.63005 -0.945068 0)
(1.61992 -0.902476 0)
(1.63151 -0.823532 0)
(1.62469 -0.731442 0)
(1.71606 -0.64848 0)
(2.71489 -0.372412 0)
(2.64635 -0.468335 0)
(1.92866 -0.861334 0)
(1.5597 -0.941393 0)
(1.56715 -0.915302 0)
(1.56043 -0.864017 0)
(1.51993 -0.818635 0)
(1.50445 -0.7379 0)
(1.48131 -0.654291 0)
(1.57798 -0.591677 0)
(2.52808 -0.514678 0)
(2.09347 -0.764725 0)
(1.49831 -0.88437 0)
(1.4767 -0.855979 0)
(1.44211 -0.81412 0)
(1.40456 -0.763396 0)
(1.36409 -0.717747 0)
(1.34514 -0.651256 0)
(1.34088 -0.590692 0)
(1.44922 -0.549218 0)
(2.10928 -0.69163 0)
(1.53976 -0.845892 0)
(1.36452 -0.782995 0)
(1.31617 -0.740834 0)
(1.2662 -0.693165 0)
(1.23545 -0.643184 0)
(1.21272 -0.611217 0)
(1.21269 -0.568616 0)
(1.24398 -0.529184 0)
(1.36403 -0.50718 0)
(1.62517 -0.732757 0)
(1.2523 -0.741739 0)
(1.18165 -0.6887 0)
(1.13678 -0.626638 0)
(1.10361 -0.582836 0)
(1.09295 -0.554842 0)
(1.09499 -0.54471 0)
(1.11952 -0.531597 0)
(1.17977 -0.511038 0)
(1.31375 -0.494653 0)
(1.29009 -0.615745 0)
(1.08146 -0.600078 0)
(1.04628 -0.567021 0)
(1.01042 -0.535505 0)
(0.997967 -0.511692 0)
(1.00693 -0.497992 0)
(1.02941 -0.5008 0)
(1.07408 -0.505703 0)
(1.14942 -0.503545 0)
(1.29496 -0.492626 0)
(1.10194 -0.491227 0)
(0.975462 -0.507965 0)
(0.96093 -0.500958 0)
(0.942694 -0.499104 0)
(0.94021 -0.494836 0)
(0.955205 -0.491387 0)
(0.988194 -0.49575 0)
(1.04415 -0.507755 0)
(1.13055 -0.514967 0)
(1.29001 -0.505787 0)
(0.991067 -0.403786 0)
(0.91535 -0.430071 0)
(0.921153 -0.447957 0)
(0.914588 -0.459929 0)
(0.918875 -0.466812 0)
(0.934243 -0.478595 0)
(0.96883 -0.493224 0)
(1.02648 -0.511848 0)
(1.11813 -0.530579 0)
(1.28859 -0.525601 0)
(0.894817 -0.347927 0)
(0.83881 -0.384208 0)
(0.864264 -0.414544 0)
(0.867165 -0.438676 0)
(0.885157 -0.461536 0)
(0.912734 -0.482662 0)
(0.955044 -0.503904 0)
(1.01596 -0.526654 0)
(1.11146 -0.553853 0)
(1.28361 -0.549395 0)
(0.796225 -0.286717 0)
(0.765797 -0.326943 0)
(0.809938 -0.358453 0)
(0.832974 -0.404377 0)
(0.868569 -0.447459 0)
(0.905346 -0.484438 0)
(0.950484 -0.51492 0)
(1.01182 -0.542486 0)
(1.10661 -0.574941 0)
(1.28403 -0.581111 0)
(0.68061 -0.263018 0)
(0.695214 -0.315192 0)
(0.755754 -0.371546 0)
(0.804431 -0.428899 0)
(0.855754 -0.473029 0)
(0.902699 -0.508422 0)
(0.950178 -0.537317 0)
(1.00826 -0.562753 0)
(1.0959 -0.595639 0)
(1.26479 -0.619079 0)
(0.626586 -0.19866 0)
(0.685342 -0.262503 0)
(0.761681 -0.340676 0)
(0.821445 -0.408888 0)
(0.872638 -0.459184 0)
(0.917622 -0.497318 0)
(0.9609 -0.528786 0)
(1.01387 -0.555403 0)
(1.09426 -0.588865 0)
(1.26335 -0.617967 0)
(1.77795 -0.67022 0)
(1.94235 -0.487894 0)
(2.02681 -0.236083 0)
(2.09084 0.0162883 0)
(2.16623 0.135357 0)
(2.26253 0.276707 0)
(2.38059 0.376302 0)
(2.37133 0.462751 0)
(2.22547 0.293642 0)
(2.04021 0.10743 0)
(1.84545 -0.66542 0)
(1.99476 -0.458435 0)
(2.05688 -0.199035 0)
(2.11124 0.0475132 0)
(2.18268 0.159649 0)
(2.27879 0.313919 0)
(2.39223 0.408645 0)
(2.38177 0.471027 0)
(2.1958 0.240839 0)
(2.03221 0.0973503 0)
(1.89092 -0.653353 0)
(2.03696 -0.428454 0)
(2.11745 -0.151217 0)
(2.15697 0.0948637 0)
(2.20852 0.196177 0)
(2.29334 0.344291 0)
(2.39918 0.441711 0)
(2.38758 0.467069 0)
(2.16168 0.185096 0)
(2.02514 0.0900356 0)
(1.91904 -0.637599 0)
(2.059 -0.391202 0)
(2.13947 -0.111276 0)
(2.18054 0.135905 0)
(2.22852 0.225637 0)
(2.31046 0.381347 0)
(2.40116 0.463195 0)
(2.38237 0.440151 0)
(2.14558 0.14241 0)
(2.0195 0.0840162 0)
(1.95124 -0.614699 0)
(2.10586 -0.334689 0)
(2.17031 -0.0580269 0)
(2.19831 0.176255 0)
(2.24933 0.26632 0)
(2.32818 0.430236 0)
(2.40821 0.491867 0)
(2.36957 0.398381 0)
(2.13786 0.104346 0)
(2.01753 0.0797756 0)
(1.99094 -0.570186 0)
(2.0956 -0.294332 0)
(2.17752 -0.00835735 0)
(2.2157 0.227697 0)
(2.26493 0.300585 0)
(2.33784 0.460734 0)
(2.40668 0.501914 0)
(2.34458 0.339701 0)
(2.13267 0.0762867 0)
(2.01367 0.0748566 0)
(1.94785 -0.53675 0)
(2.04677 -0.246682 0)
(2.16422 0.0389489 0)
(2.22004 0.270324 0)
(2.28194 0.352387 0)
(2.35408 0.516916 0)
(2.40831 0.514549 0)
(2.30567 0.2744 0)
(2.11513 0.0507466 0)
(2.00654 0.0754072 0)
(1.87081 -0.488919 0)
(1.98028 -0.203379 0)
(2.14316 0.0880426 0)
(2.21853 0.318439 0)
(2.28977 0.390087 0)
(2.36013 0.546149 0)
(2.40649 0.511626 0)
(2.24799 0.199359 0)
(2.0927 0.0361459 0)
(2.00125 0.0746556 0)
(1.77423 -0.440279 0)
(1.91508 -0.165519 0)
(2.11586 0.125754 0)
(2.21286 0.365093 0)
(2.30163 0.462741 0)
(2.37368 0.580518 0)
(2.39104 0.504151 0)
(2.20357 0.140139 0)
(2.07667 0.0278013 0)
(1.99995 0.0731029 0)
(1.68364 -0.396577 0)
(1.86187 -0.130557 0)
(2.09103 0.174842 0)
(2.20295 0.412965 0)
(2.29933 0.500414 0)
(2.38448 0.594463 0)
(2.37243 0.445158 0)
(2.17387 0.0814021 0)
(2.06638 0.0209355 0)
(2.0011 0.0686307 0)
(1.61999 -0.3674 0)
(1.82668 -0.0992944 0)
(2.06414 0.214651 0)
(2.19476 0.469002 0)
(2.29849 0.576126 0)
(2.38961 0.60757 0)
(2.35571 0.371582 0)
(2.17467 0.0564725 0)
(2.05898 0.0201756 0)
(2.00127 0.0630801 0)
(1.59557 -0.337799 0)
(1.81489 -0.0585965 0)
(2.04739 0.270297 0)
(2.18505 0.515901 0)
(2.28454 0.607114 0)
(2.37757 0.608069 0)
(2.32415 0.270844 0)
(2.17595 0.0377842 0)
(2.05152 0.0256996 0)
(2.0005 0.0575652 0)
(1.60067 -0.311689 0)
(1.82157 -0.0184247 0)
(2.03749 0.321449 0)
(2.17745 0.582283 0)
(2.28682 0.663004 0)
(2.35084 0.584778 0)
(2.29171 0.191089 0)
(2.16827 0.0194756 0)
(2.04175 0.0307374 0)
(1.99631 0.0552687 0)
(1.62752 -0.290063 0)
(1.85418 0.0423321 0)
(2.04165 0.390843 0)
(2.16267 0.627108 0)
(2.29431 0.673783 0)
(2.31251 0.502295 0)
(2.25018 0.130369 0)
(2.16039 0.0133281 0)
(2.03154 0.0328604 0)
(1.9886 0.0542149 0)
(1.67775 -0.261037 0)
(1.89436 0.0985921 0)
(2.05238 0.458456 0)
(2.15585 0.692988 0)
(2.27546 0.705033 0)
(2.26796 0.395762 0)
(2.22664 0.106742 0)
(2.15016 0.00701644 0)
(2.03227 0.0351847 0)
(1.97982 0.0499262 0)
(1.73249 -0.236496 0)
(1.96108 0.188835 0)
(2.06834 0.549023 0)
(2.16579 0.726313 0)
(2.23273 0.684159 0)
(2.19147 0.278007 0)
(2.21152 0.0811377 0)
(2.145 0.00538821 0)
(2.03669 0.0369453 0)
(1.97075 0.0462821 0)
(1.80962 -0.188653 0)
(2.03169 0.268388 0)
(2.07164 0.612794 0)
(2.1725 0.763791 0)
(2.22252 0.585061 0)
(2.11201 0.172174 0)
(2.19466 0.0587807 0)
(2.14567 0.0016808 0)
(2.04175 0.0374026 0)
(1.96216 0.0434433 0)
(1.89453 -0.131257 0)
(2.11267 0.389154 0)
(2.07409 0.691071 0)
(2.16207 0.745613 0)
(2.19598 0.440296 0)
(2.07731 0.11232 0)
(2.16882 0.0429107 0)
(2.14673 0.00446101 0)
(2.04544 0.0430835 0)
(1.95285 0.0433411 0)
(2.00124 0.00592856 0)