/*--------------------------------*- C++ -*----------------------------------*\
  =========                 |
  \\      /  F ield         | OpenFOAM: The Open Source CFD Toolbox
   \\    /   O peration     | Website:  https://openfoam.org
    \\  /    A nd           | Version:  8
     \\/     M anipulation  |
\*---------------------------------------------------------------------------*/
FoamFile
{
    version     2.0;
    format      ascii;
    class       volScalarField;
    location    "0.9";
    object      p;
}
// * * * * * * * * * * * * * * * * * * * * * * * * * * * * * * * * * * * * * //

dimensions      [1 -1 -2 0 0 0 0];

internalField   nonuniform List<scalar> 
2600
(
1.08705
1.01314
0.967642
1.07667
1.49403
1.92111
2.26125
2.49489
2.50268
2.91192
1.20559
1.01796
0.978925
1.11104
1.52741
1.92299
2.28217
2.50622
2.5066
2.88287
1.20214
1.01148
0.992021
1.14345
1.55362
1.92545
2.28845
2.53296
2.53028
2.86987
1.20328
1.01154
1.00335
1.17498
1.57864
1.93955
2.28297
2.53746
2.53472
2.85459
1.20588
0.995395
0.999769
1.19809
1.59564
1.951
2.27886
2.51054
2.53169
2.83371
1.21348
0.985955
1.00211
1.22438
1.6177
1.9625
2.28417
2.50459
2.53507
2.81651
1.21034
0.973837
1.0008
1.23948
1.64258
1.9864
2.29118
2.49852
2.54387
2.80821
1.20473
0.962439
0.999078
1.24953
1.64802
1.98544
2.28791
2.51312
2.56422
2.80433
1.19147
0.946034
0.98676
1.24711
1.66758
1.99432
2.30028
2.51702
2.55935
2.79567
1.17833
0.936075
0.984779
1.25156
1.67459
1.99644
2.29282
2.50109
2.55911
2.79101
1.17817
0.935648
0.983698
1.25059
1.67349
2.01021
2.25688
2.51386
2.55981
2.78811
1.19106
0.94548
0.985687
1.24914
1.6681
2.0102
2.26928
2.49264
2.55406
2.79252
1.20396
0.961977
0.998684
1.24969
1.64944
1.98479
2.28783
2.49764
2.5454
2.79691
1.20935
0.973386
1.00107
1.24204
1.64332
1.98005
2.29142
2.52278
2.55519
2.81262
1.21224
0.985392
1.00283
1.22727
1.61549
1.95764
2.29862
2.5226
2.54866
2.82201
1.20444
0.994594
1.00045
1.20062
1.5925
1.94796
2.29944
2.52595
2.53553
2.83565
1.20179
1.01091
1.00355
1.17593
1.57444
1.9431
2.28787
2.50196
2.52034
2.84815
1.20053
1.01058
0.991709
1.14321
1.55557
1.93826
2.27056
2.49354
2.50894
2.86543
1.204
1.01715
0.979344
1.11314
1.5366
1.92514
2.26025
2.51712
2.52776
2.89103
1.08535
1.01213
0.96849
1.08077
1.5012
1.91099
2.2605
2.5272
2.52225
2.91255
1.55836
1.00799
0.953612
1.04263
1.44584
1.90006
2.25781
2.49816
2.49971
2.95076
2.0797
1.03631
0.952528
1.00971
1.39765
1.88734
2.24176
2.46426
2.49239
3.01143
2.42534
1.15664
0.93832
0.986068
1.33654
1.86372
2.23029
2.44159
2.49434
3.08197
2.72026
1.34719
0.924187
0.977142
1.27566
1.83155
2.23022
2.42078
2.49792
3.15879
3.00825
1.50793
0.941789
0.989701
1.21399
1.79175
2.2335
2.39892
2.51699
3.23708
3.26342
1.69822
1.00721
1.00119
1.14823
1.73857
2.22376
2.37557
2.55807
3.31492
3.53452
1.90678
1.10615
1.00332
1.11808
1.67222
2.19932
2.36051
2.61813
3.38778
3.75288
2.09468
1.23878
1.02661
1.1012
1.59945
2.16281
2.34956
2.6905
3.45446
3.97536
2.293
1.38769
1.08152
1.09942
1.51301
2.10629
2.34055
2.77376
3.51153
4.1656
2.49237
1.53093
1.15079
1.1032
1.4224
2.03315
2.32916
2.86516
3.55594
4.34013
2.68818
1.69243
1.24798
1.12675
1.34061
1.93689
2.32311
2.96359
3.59026
4.50334
2.87805
1.8674
1.35264
1.15551
1.27826
1.81973
2.3195
3.06274
3.61723
4.64397
3.04909
2.04959
1.46587
1.19735
1.27447
1.68689
2.29448
3.13793
3.64459
4.79537
3.21637
2.22196
1.59273
1.25549
1.26457
1.56023
2.25252
3.1834
3.65899
4.89535
3.36878
2.39515
1.71387
1.35189
1.24553
1.44419
2.18803
3.2025
3.66215
4.99443
3.52095
2.56246
1.83979
1.46401
1.23844
1.34632
2.074
3.18581
3.6609
4.97693
3.68365
2.73265
1.96698
1.56501
1.2846
1.31259
1.90397
3.11616
3.65336
4.81846
3.85687
2.91082
2.09156
1.66742
1.35109
1.3162
1.74612
2.98788
3.63049
4.67689
4.04226
3.08852
2.21268
1.75946
1.42591
1.34636
1.66971
2.79799
3.59345
4.34264
4.21763
3.24603
2.32605
1.85478
1.49543
1.4031
1.66741
2.55856
3.53423
6.68092
8.01772
7.7322
7.55403
7.41187
7.30364
7.11969
6.83706
6.45053
5.76713
5.38805
7.21896
7.18931
7.25704
7.25037
7.18589
6.98222
6.65882
6.23529
5.40783
2.9727
6.60722
7.50229
7.59164
7.43735
7.24182
6.99523
6.6992
6.2722
5.41244
1.55262
3.46805
7.0541
7.42564
7.27682
7.07032
6.83981
6.60152
6.13998
5.39821
1.24675
1.39397
4.45473
7.25711
7.19127
7.07265
6.88757
6.64419
6.11801
5.52091
1.2093
1.21085
1.59469
5.31011
7.20429
7.03842
6.82682
6.61422
6.06503
5.61386
1.17172
1.18064
1.18681
2.05816
6.24096
6.99721
6.82876
6.58192
6.09287
5.71978
1.1334
1.14111
1.14959
1.16917
3.36912
6.56436
6.78317
6.56029
6.12217
5.77032
1.10341
1.10754
1.11232
1.1177
1.31317
4.71724
6.73964
6.6219
6.22867
5.87596
1.08269
1.08866
1.09584
1.10441
1.11186
1.91295
5.89402
6.62395
6.34241
5.92041
1.06253
1.06634
1.07156
1.07727
1.08219
1.10963
3.61564
6.47964
6.36652
5.97021
1.05051
1.05295
1.05539
1.05883
1.06271
1.0682
1.50489
5.38807
6.3461
6.01768
1.03718
1.04006
1.04325
1.04749
1.05171
1.05559
1.07275
3.24998
6.09088
6.00076
1.02662
1.02873
1.03194
1.03524
1.0394
1.04317
1.0487
1.46692
5.16463
6.02138
1.01999
1.02131
1.02315
1.02536
1.02875
1.03245
1.03658
1.06056
3.4368
5.79308
1.01508
1.01613
1.01728
1.01893
1.02092
1.02391
1.02741
1.03469
1.72179
5.24947
1.01161
1.01255
1.01362
1.01497
1.01643
1.01864
1.0211
1.02474
1.09823
4.12738
1.00872
1.00956
1.01059
1.01185
1.01316
1.01484
1.01684
1.01909
1.029
2.81437
1.0064
1.00705
1.00792
1.00896
1.01015
1.0115
1.01318
1.01497
1.01958
1.63829
1.0046
1.0051
1.00578
1.00663
1.00765
1.0089
1.01033
1.01203
1.01458
1.11607
1
1
1
1
1
1
1
1
0.999995
1.45643
1
1
1
1
1
1
1
1
0.999995
1.34036
1
1
1
1
1
1
1
1
0.999995
1.27462
1
1
1
1
1
1
1
1
0.999995
1.20728
1
1
1
1
1
1
1
1
0.999995
1.16935
1
1
1
1
1
1
1
1
0.999995
1.1421
1
1
1
1
1
1
1
1
0.999995
1.11481
1
1
1
1
1
1
1
1
0.999995
1.08606
1
1
1
1
1
1
1
1
0.999996
1.07034
1
1
1
1
1
1
1
1
0.999996
1.05331
1
1
1
1
1
1
1
1
0.999996
1.03996
1
1
1
1
1
1
1
1
0.999996
1.03358
1
1
1
1
1
1
1
1
0.999996
1.02341
1
1
1
1
1
1
1
1
0.999996
1.01644
1
1
1
1
1
1
1
1
0.999997
1.0128
1
1
1
1
1
1
1
1
0.999997
1.00968
1
1
1
1
1
1
1
1
0.999997
1.00716
1
1
1
1
1
1
1
1
0.999997
1.00522
1
1
1
1
1
1
1
1
0.999997
1.00378
1
1
1
1
1
1
1
1
0.999997
1.00269
1
1
1
1
1
1
1
1
0.999997
1.00269
1
1
1
1
1
1
1
1
0.999997
1.00378
1
1
1
1
1
1
1
1
0.999997
1.00522
1
1
1
1
1
1
1
1
0.999997
1.00716
1
1
1
1
1
1
1
1
0.999997
1.00969
1
1
1
1
1
1
1
1
0.999997
1.0128
1
1
1
1
1
1
1
1
0.999996
1.01644
1
1
1
1
1
1
1
1
0.999996
1.02341
1
1
1
1
1
1
1
1
0.999996
1.03358
1
1
1
1
1
1
1
1
0.999996
1.03997
1
1
1
1
1
1
1
1
0.999996
1.05332
1
1
1
1
1
1
1
1
0.999996
1.07035
1
1
1
1
1
1
1
1
0.999996
1.08606
1
1
1
1
1
1
1
1
0.999995
1.11482
1
1
1
1
1
1
1
1
0.999995
1.14211
1
1
1
1
1
1
1
1
0.999995
1.16936
1
1
1
1
1
1
1
1
0.999995
1.2073
1
1
1
1
1
1
1
1
0.999995
1.27464
1
1
1
1
1
1
1
1
0.999995
1.34038
1
1
1
1
1
1
1
1
0.999995
1.45646
1.0046
1.0051
1.00578
1.00663
1.00765
1.00891
1.01033
1.01203
1.01459
1.11555
1.0064
1.00705
1.00792
1.00896
1.01015
1.01151
1.01319
1.01497
1.01959
1.63673
1.00872
1.00956
1.0106
1.01185
1.01317
1.01485
1.01685
1.01909
1.029
2.81241
1.01162
1.01256
1.01363
1.01498
1.01644
1.01865
1.0211
1.02474
1.09799
4.12528
1.01508
1.01614
1.01729
1.01894
1.02092
1.02392
1.02742
1.03469
1.72041
5.24755
1.01999
1.02131
1.02316
1.02537
1.02876
1.03245
1.03659
1.06054
3.43442
5.79162
1.02662
1.02873
1.03194
1.03525
1.03941
1.04318
1.04871
1.46624
5.16308
6.0207
1.03718
1.04006
1.04326
1.0475
1.05172
1.05559
1.07274
3.24807
6.0905
6.00047
1.05051
1.05296
1.0554
1.05884
1.06272
1.06821
1.50443
5.38672
6.34569
6.01748
1.06254
1.06635
1.07157
1.07728
1.0822
1.10961
3.61433
6.47908
6.36625
5.97002
1.08271
1.08867
1.09586
1.10443
1.11188
1.91246
5.89317
6.62381
6.3424
5.92033
1.10342
1.10756
1.11234
1.11771
1.31301
4.71634
6.7394
6.62177
6.2286
5.87588
1.13342
1.14112
1.14961
1.16919
3.36829
6.56381
6.78302
6.56014
6.12197
5.77021
1.17173
1.18065
1.18682
2.05805
6.2403
6.9971
6.82871
6.58169
6.09257
5.71962
1.2093
1.21086
1.59476
5.30979
7.20403
7.03834
6.82664
6.614
6.06487
5.61377
1.24677
1.39406
4.45479
7.25682
7.19103
7.07248
6.88743
6.64405
6.11795
5.52084
1.5528
3.46833
7.05405
7.42528
7.27652
7.07011
6.83966
6.60134
6.13988
5.39815
2.9732
6.60737
7.50204
7.59137
7.43711
7.24163
6.99508
6.699
6.27207
5.41241
5.38818
7.21881
7.18903
7.25681
7.25013
7.18569
6.98202
6.65863
6.23513
5.40782
6.68103
8.01763
7.73201
7.55384
7.41165
7.30345
7.11953
6.8369
6.45038
5.76711
4.34061
4.21699
3.24593
2.32589
1.85458
1.49532
1.40314
1.66735
2.55872
3.53388
4.67551
4.04188
3.08849
2.21248
1.75921
1.42589
1.3464
1.66976
2.79762
3.59295
4.81749
3.85655
2.91075
2.09134
1.6672
1.35093
1.31624
1.74611
2.98774
3.6305
4.97602
3.68323
2.73255
1.96673
1.56479
1.28451
1.3126
1.90425
3.11673
3.65343
4.99379
3.5205
2.56229
1.83953
1.4638
1.2383
1.34614
2.0739
3.18611
3.66123
4.89479
3.36822
2.3949
1.71369
1.35152
1.24556
1.44396
2.18793
3.20259
3.66258
4.79496
3.21586
2.22179
1.59253
1.25535
1.26461
1.56032
2.25267
3.18278
3.65862
4.64361
3.04865
2.04945
1.46559
1.19734
1.27436
1.68731
2.2944
3.13646
3.64393
4.50297
2.87765
1.86719
1.35265
1.15549
1.2783
1.8201
2.31896
3.06189
3.61756
4.33986
2.68771
1.6925
1.24771
1.12669
1.34089
1.93671
2.32253
2.96459
3.59148
4.16534
2.49198
1.53103
1.15059
1.10304
1.42265
2.03219
2.32955
2.86782
3.55787
3.97516
2.29271
1.3878
1.08131
1.0991
1.5126
2.10556
2.34146
2.77556
3.51262
3.7527
2.09449
1.23927
1.02588
1.1008
1.5982
2.16261
2.35168
2.69041
3.45336
3.53441
1.9068
1.10653
1.00259
1.11814
1.67122
2.19871
2.36266
2.61892
3.38581
3.26327
1.69877
1.00717
1.00035
1.14854
1.73895
2.22195
2.37451
2.55988
3.31466
3.00835
1.5084
0.941646
0.988905
1.21325
1.79373
2.23386
2.39266
2.5164
3.23865
2.72045
1.34778
0.923999
0.976146
1.27428
1.83333
2.23668
2.41699
2.49307
3.15885
2.42563
1.1576
0.938352
0.98516
1.33563
1.86075
2.23567
2.44675
2.49084
3.07913
2.08024
1.03716
0.952655
1.00844
1.39693
1.88323
2.23434
2.4782
2.50311
3.01123
1.55936
1.00895
0.952992
1.03965
1.44834
1.90595
2.24202
2.49472
2.5111
2.95695
1.00015
0.999309
1.15396
6.21889
8.00178
6.6692
5.29299
4.23308
3.47458
2.57857
1.00015
0.998833
1.1442
5.81688
8.08312
6.67031
5.29948
4.25881
3.48324
2.63337
1.00014
0.99802
1.20052
5.71578
8.1916
6.63614
5.26838
4.22056
3.46858
2.57459
1.00012
0.996851
1.27124
5.25528
8.14566
6.59251
5.23086
4.2007
3.46114
2.55895
1.00009
0.995351
1.37828
4.98279
7.97712
6.53528
5.18975
4.18166
3.42932
2.5345
0.99995
0.993198
1.55248
4.6253
7.58472
6.42864
5.14649
4.15601
3.39456
2.50624
0.99958
0.9915
1.82251
4.34189
7.01428
6.30178
5.11705
4.14044
3.36657
2.48754
0.998907
0.998762
2.22819
4.21307
6.3117
6.16223
5.07112
4.12168
3.32584
2.45396
0.99814
1.05221
2.79655
4.14585
5.60272
5.97965
4.97658
4.07376
3.26756
2.41932
0.997188
1.20522
3.29486
4.08261
4.80957
5.68714
4.88186
4.02036
3.21393
2.4014
0.995948
1.46475
3.6614
4.00222
4.0416
5.18885
4.80299
3.97622
3.15859
2.37918
0.994238
1.8326
3.90324
3.92574
3.47992
4.44732
4.62506
3.86049
3.0961
2.37096
0.99286
2.28053
4.087
3.87261
3.18076
3.6588
4.35232
3.68813
3.01033
2.35475
0.993371
2.78063
4.19517
3.84972
2.99466
3.03279
3.91065
3.48032
2.93221
2.35733
1.08367
3.27053
4.24494
3.79205
2.86648
2.63333
3.32969
3.27613
2.82977
2.38322
1.38296
3.71931
4.14736
3.62571
2.75123
2.36482
2.73808
3.04761
2.67042
2.43537
1.91294
4.05629
3.97648
3.36333
2.63927
2.1517
2.30457
2.78194
2.494
2.55922
2.49737
4.20833
3.81499
3.06864
2.39745
1.94094
1.99374
2.44512
2.30783
2.75758
3.01786
4.25995
3.66849
2.78716
2.17361
1.76301
1.76005
2.0923
2.23015
3.04477
3.68068
4.30224
3.46188
2.50598
1.99052
1.61071
1.54996
1.8156
2.26858
3.34119
3.68265
4.30281
3.46199
2.50604
1.99064
1.61074
1.54979
1.81534
2.26831
3.341
3.01942
4.26051
3.66863
2.78704
2.17352
1.76298
1.75994
2.09219
2.23004
3.0444
2.49925
4.20922
3.815
3.0683
2.39731
1.94091
1.99366
2.4451
2.3078
2.75747
1.91464
4.05766
3.97641
3.36276
2.63856
2.1515
2.30449
2.7819
2.49406
2.55945
1.38398
3.72077
4.14718
3.62525
2.75104
2.36469
2.73798
3.04761
2.67043
2.43555
1.08426
3.27249
4.24524
3.79214
2.86647
2.63329
3.32945
3.27612
2.82977
2.38335
0.993402
2.78291
4.19602
3.84981
2.99451
3.03254
3.91039
3.48026
2.93224
2.35744
0.99284
2.2825
4.0879
3.87261
3.1805
3.65823
4.35211
3.688
3.0103
2.35484
0.994225
1.83416
3.9042
3.92564
3.47936
4.44661
4.62492
3.86035
3.09609
2.37104
0.99594
1.46589
3.66272
4.00207
4.04074
5.18839
4.80295
3.97615
3.15858
2.37924
0.997182
1.20599
3.29647
4.08266
4.80885
5.687
4.88188
4.02039
3.214
2.40146
0.998136
1.05256
2.79852
4.14623
5.60242
5.97985
4.9767
4.07389
3.26769
2.41938
0.998904
0.998822
2.22977
4.2138
6.31188
6.1626
5.07138
4.12196
3.32605
2.45403
0.999576
0.991494
1.82356
4.34278
7.0145
6.30217
5.11744
4.14083
3.36686
2.48763
0.999949
0.993189
1.5532
4.62638
7.58511
6.42924
5.14697
4.15644
3.39488
2.50637
1.00009
0.995344
1.37879
4.98427
7.97784
6.53602
5.19031
4.18213
3.42967
2.53464
1.00012
0.996847
1.27162
5.25716
8.14654
6.59328
5.23145
4.2012
3.4615
2.55908
1.00014
0.998019
1.20083
5.71848
8.19263
6.63677
5.26891
4.22106
3.46897
2.57473
1.00015
0.998833
1.1445
5.81988
8.08419
6.67087
5.29997
4.25929
3.48368
2.63355
1.00015
0.999309
1.15425
6.22233
8.00281
6.6697
5.29341
4.2336
3.47505
2.57876
1.00309
1.00344
1.00392
1.00453
1.00529
1.00622
1.00737
1.00877
1.0103
1.01718
1.0019
1.00211
1.00242
1.00278
1.00327
1.00385
1.00465
1.00555
1.00693
1.00761
1.00116
1.00129
1.00147
1.00169
1.002
1.00235
1.00286
1.00343
1.00443
1.00499
1.00069
1.00077
1.00088
1.00101
1.0012
1.0014
1.00172
1.00205
1.00271
1.00313
1.00041
1.00045
1.00052
1.0006
1.00071
1.00084
1.00102
1.00122
1.0016
1.00187
1.00025
1.00027
1.00031
1.00036
1.00041
1.00049
1.00059
1.00073
1.00091
1.00111
1.00015
1.00017
1.00019
1.00021
1.00024
1.00029
1.00034
1.00043
1.00053
1.00073
1.00009
1.0001
1.00011
1.00013
1.00015
1.00017
1.00021
1.00025
1.00031
1.00046
1.00006
1.00006
1.00007
1.00008
1.00009
1.00011
1.00013
1.00015
1.00018
1.00028
1.00003
1.00004
1.00004
1.00005
1.00006
1.00007
1.00008
1.0001
1.00011
1.00017
1.00002
1.00002
1.00003
1.00003
1.00004
1.00004
1.00005
1.00006
1.00008
1.00011
1.00002
1.00002
1.00002
1.00002
1.00003
1.00003
1.00004
1.00005
1.00005
1.00008
1.00001
1.00001
1.00002
1.00002
1.00002
1.00002
1.00003
1.00004
1.00004
1.00006
1.00001
1.00001
1.00001
1.00001
1.00002
1.00002
1.00002
1.00003
1.00004
1.00005
1.00001
1.00001
1.00001
1.00002
1.00002
1.00002
1.00003
1.00003
1.00004
1.00005
1.00001
1.00001
1.00001
1.00002
1.00002
1.00002
1.00003
1.00003
1.00004
1.00005
1.00001
1.00001
1.00001
1.00002
1.00002
1.00002
1.00003
1.00003
1.00004
1.00005
1.00001
1.00001
1.00002
1.00002
1.00002
1.00002
1.00003
1.00003
1.00004
1.00005
1.00001
1.00002
1.00002
1.00002
1.00002
1.00003
1.00003
1.00004
1.00004
1.00005
1.00001
1.00002
1.00002
1.00002
1.00002
1.00003
1.00003
1.00004
1.00004
1.00005
1
1
1
1
1
1
1
1
0.999998
1.00179
1
1
1
1
1
1
1
1
0.999998
1.00109
1
1
1
1
1
1
1
1
0.999998
1.00066
1
1
1
1
1
1
1
1
0.999998
1.00039
1
1
1
1
1
1
1
1
0.999998
1.00023
1
1
1
1
1
1
1
1
0.999999
1.00014
1
1
1
1
1
1
1
1
0.999999
1.00009
1
1
1
1
1
1
1
1
0.999999
1.00005
1
1
1
1
1
1
1
1
0.999999
1.00003
1
1
1
1
1
1
1
1
0.999999
1.00002
1
1
1
1
1
1
1
1
1
1.00001
1
1
1
1
1
1
1
1
1
1.00001
1
1
1
1
1
1
1
1
1
1.00001
1
1
1
1
1
1
1
1
1
1.00001
1
1
1
1
1
1
1
1
1
1.00001
1
1
1
1
1
1
1
1
1
1.00001
1
1
1
1
1
1
1
1
1
1.00001
1
1
1
1
1
1
1
1
1
1.00001
1
1
1
1
1
1
1
1
1
1.00001
1
1
1
1
1
1
1
1
1
1.00001
1
1
1
1
1
1
1
1
1
1.00001
1
1
1
1
1
1
1
1
1
1.00001
1
1
1
1
1
1
1
1
1
1.00001
1
1
1
1
1
1
1
1
1
1.00001
1
1
1
1
1
1
1
1
1
1.00001
1
1
1
1
1
1
1
1
1
1.00001
1
1
1
1
1
1
1
1
1
1.00001
1
1
1
1
1
1
1
1
1
1.00001
1
1
1
1
1
1
1
1
1
1.00001
1
1
1
1
1
1
1
1
1
1.00001
1
1
1
1
1
1
1
1
0.999999
1.00002
1
1
1
1
1
1
1
1
0.999999
1.00003
1
1
1
1
1
1
1
1
0.999999
1.00005
1
1
1
1
1
1
1
1
0.999999
1.00009
1
1
1
1
1
1
1
1
0.999999
1.00014
1
1
1
1
1
1
1
1
0.999998
1.00023
1
1
1
1
1
1
1
1
0.999998
1.00039
1
1
1
1
1
1
1
1
0.999998
1.00066
1
1
1
1
1
1
1
1
0.999998
1.00109
1
1
1
1
1
1
1
1
0.999998
1.00179
1.00001
1.00002
1.00002
1.00002
1.00002
1.00003
1.00003
1.00004
1.00004
1.00005
1.00001
1.00002
1.00002
1.00002
1.00002
1.00003
1.00003
1.00004
1.00004
1.00005
1.00001
1.00001
1.00002
1.00002
1.00002
1.00002
1.00003
1.00003
1.00004
1.00005
1.00001
1.00001
1.00001
1.00002
1.00002
1.00002
1.00003
1.00003
1.00004
1.00005
1.00001
1.00001
1.00001
1.00002
1.00002
1.00002
1.00003
1.00003
1.00004
1.00005
1.00001
1.00001
1.00001
1.00002
1.00002
1.00002
1.00003
1.00003
1.00004
1.00005
1.00001
1.00001
1.00001
1.00001
1.00002
1.00002
1.00002
1.00003
1.00004
1.00005
1.00001
1.00001
1.00002
1.00002
1.00002
1.00002
1.00003
1.00004
1.00004
1.00006
1.00002
1.00002
1.00002
1.00002
1.00003
1.00003
1.00004
1.00005
1.00005
1.00008
1.00002
1.00002
1.00003
1.00003
1.00004
1.00004
1.00005
1.00006
1.00008
1.00011
1.00003
1.00004
1.00004
1.00005
1.00006
1.00007
1.00008
1.0001
1.00011
1.00017
1.00006
1.00006
1.00007
1.00008
1.00009
1.00011
1.00013
1.00015
1.00018
1.00028
1.00009
1.0001
1.00011
1.00013
1.00015
1.00017
1.00021
1.00025
1.00031
1.00046
1.00015
1.00017
1.00019
1.00021
1.00024
1.00029
1.00034
1.00043
1.00053
1.00073
1.00025
1.00027
1.00031
1.00036
1.00041
1.00049
1.00059
1.00073
1.00092
1.00111
1.00041
1.00045
1.00052
1.0006
1.00071
1.00084
1.00102
1.00123
1.0016
1.00187
1.00069
1.00077
1.00088
1.00101
1.0012
1.0014
1.00173
1.00205
1.00271
1.00313
1.00116
1.00129
1.00147
1.0017
1.002
1.00235
1.00286
1.00344
1.00443
1.00499
1.0019
1.00212
1.00242
1.00278
1.00328
1.00385
1.00465
1.00555
1.00694
1.00762
1.00309
1.00344
1.00392
1.00453
1.00529
1.00622
1.00737
1.00878
1.0103
1.01715
)
;

boundaryField
{
    inlet
    {
        type            fixedValue;
        value           uniform 1;
    }
    outlet
    {
        type            zeroGradient;
    }
    triangle
    {
        type            zeroGradient;
    }
    top
    {
        type            symmetryPlane;
    }
    bottom
    {
        type            symmetryPlane;
    }
    defaultFaces
    {
        type            empty;
    }
}


// ************************************************************************* //
