/*--------------------------------*- C++ -*----------------------------------*\
  =========                 |
  \\      /  F ield         | OpenFOAM: The Open Source CFD Toolbox
   \\    /   O peration     | Website:  https://openfoam.org
    \\  /    A nd           | Version:  7
     \\/     M anipulation  |
\*---------------------------------------------------------------------------*/
FoamFile
{
    version     2.0;
    format      ascii;
    class       volScalarField;
    location    "0.9";
    object      p;
}
// * * * * * * * * * * * * * * * * * * * * * * * * * * * * * * * * * * * * * //

dimensions      [1 -1 -2 0 0 0 0];

internalField   nonuniform List<scalar> 
2600
(
1.08681
1.01286
0.967774
1.07813
1.50092
1.91131
2.2675
2.52658
2.51675
2.91181
1.20541
1.01777
0.978756
1.11187
1.53498
1.92292
2.26401
2.52906
2.53412
2.89218
1.20195
1.01129
0.991638
1.1435
1.55415
1.9363
2.26709
2.50053
2.51523
2.86752
1.20313
1.01133
1.00315
1.17528
1.57142
1.94384
2.28176
2.49524
2.51523
2.84616
1.20574
0.995179
0.99982
1.19833
1.59026
1.94976
2.29562
2.51799
2.53274
2.83345
1.21334
0.985861
1.00242
1.22503
1.61512
1.95937
2.2992
2.52335
2.54887
2.82292
1.21022
0.973783
1.00118
1.24036
1.6434
1.97946
2.29795
2.52033
2.55131
2.80932
1.20461
0.962311
0.999098
1.24996
1.64975
1.98391
2.28746
2.49795
2.54907
2.79978
1.19138
0.94579
0.98621
1.24921
1.66693
2.00853
2.26287
2.5056
2.5619
2.79585
1.17827
0.935927
0.984289
1.25172
1.674
2.00765
2.25813
2.51935
2.56144
2.79311
1.17816
0.935887
0.984271
1.25026
1.67383
1.99855
2.29167
2.49612
2.55692
2.78656
1.19106
0.945748
0.986257
1.24759
1.66877
1.9965
2.3069
2.50456
2.55139
2.79194
1.20402
0.962092
0.998753
1.24917
1.64784
1.9871
2.28698
2.51165
2.56042
2.80208
1.20944
0.973417
1.00065
1.24108
1.64259
1.98733
2.28445
2.49942
2.54728
2.81117
1.21238
0.985528
1.0025
1.22664
1.61779
1.96091
2.28296
2.50484
2.53531
2.81549
1.2046
0.994817
1.00033
1.20062
1.59682
1.94924
2.28232
2.52023
2.53443
2.83611
1.20194
1.0111
1.00372
1.17593
1.57998
1.93843
2.28881
2.54062
2.53878
2.85509
1.2007
1.01074
0.992045
1.14302
1.55387
1.92719
2.29162
2.52134
2.52245
2.86773
1.20416
1.01726
0.979597
1.11214
1.529
1.92754
2.27839
2.49852
2.50168
2.88353
1.08557
1.01232
0.9685
1.0794
1.49555
1.92073
2.25652
2.49771
2.50904
2.91358
1.55852
1.0082
0.953524
1.04189
1.44877
1.90312
2.24151
2.49987
2.51388
2.95554
2.07983
1.03641
0.952709
1.00941
1.3981
1.88236
2.23695
2.47734
2.4995
3.01011
2.42548
1.15659
0.938629
0.985762
1.33633
1.8617
2.23638
2.44467
2.48903
3.07976
2.72039
1.34715
0.924408
0.97688
1.27529
1.83445
2.23541
2.41612
2.49391
3.15939
3.00834
1.50799
0.941844
0.989568
1.21431
1.79411
2.23307
2.39358
2.51723
3.23825
3.26346
1.69836
1.00719
1.00112
1.14911
1.73875
2.22232
2.37597
2.55955
3.31419
3.53455
1.90686
1.10621
1.00322
1.11852
1.671
2.19935
2.3629
2.61788
3.38591
3.7529
2.09471
1.23895
1.02638
1.10122
1.59823
2.16298
2.35153
2.69014
3.45351
3.97537
2.29301
1.38782
1.08143
1.09948
1.51269
2.10604
2.34134
2.77563
3.51238
4.16562
2.49233
1.53106
1.15076
1.10332
1.42263
2.03268
2.32982
2.86765
3.55758
4.34013
2.68817
1.69245
1.24803
1.12674
1.34072
1.93696
2.32269
2.96402
3.59139
4.50334
2.87801
1.8674
1.35278
1.15544
1.27818
1.82011
2.31886
3.06135
3.61763
4.64395
3.04906
2.04955
1.46593
1.19734
1.2744
1.68723
2.29414
3.13615
3.64391
4.79534
3.21633
2.22194
1.59278
1.25543
1.26477
1.56038
2.25233
3.18258
3.65852
4.89531
3.36872
2.3951
1.71388
1.3517
1.24576
1.4443
2.18776
3.2024
3.66262
4.9944
3.52091
2.56243
1.83973
1.46395
1.23852
1.3465
2.074
3.18591
3.66134
4.9769
3.68361
2.73264
1.96692
1.56492
1.28466
1.31265
1.90429
3.11645
3.65347
4.81842
3.85682
2.91079
2.0915
1.66738
1.35107
1.31625
1.74608
2.98764
3.63051
4.67684
4.04221
3.08849
2.21262
1.7594
1.42594
1.34635
1.66965
2.79763
3.59287
4.34258
4.21758
3.24599
2.32601
1.85474
1.49543
1.40307
1.66731
2.55855
3.53378
6.68092
8.01771
7.7322
7.55404
7.41188
7.30365
7.1197
6.83707
6.45054
5.76715
5.38808
7.21898
7.18932
7.25706
7.25039
7.18591
6.98223
6.65883
6.2353
5.40784
2.97274
6.60725
7.5023
7.59165
7.43736
7.24183
6.99524
6.69921
6.27221
5.41244
1.55264
3.4681
7.05414
7.42565
7.27683
7.07033
6.83982
6.60153
6.13999
5.3982
1.24675
1.39398
4.45479
7.25714
7.19128
7.07267
6.88759
6.6442
6.11801
5.52091
1.2093
1.21085
1.59472
5.31017
7.20431
7.03842
6.82683
6.61423
6.06504
5.61386
1.17172
1.18064
1.18681
2.0582
6.24101
6.99724
6.82877
6.58193
6.09288
5.71979
1.1334
1.14111
1.14959
1.16917
3.36919
6.56441
6.78319
6.56031
6.12219
5.77034
1.10341
1.10755
1.11232
1.1177
1.31318
4.71732
6.73967
6.62193
6.22869
5.87598
1.08269
1.08866
1.09584
1.10441
1.11186
1.91299
5.89409
6.62398
6.34242
5.92043
1.06253
1.06634
1.07156
1.07727
1.08219
1.10963
3.61575
6.47968
6.36653
5.97023
1.05051
1.05295
1.0554
1.05883
1.06271
1.0682
1.50493
5.38816
6.34615
6.0177
1.03718
1.04006
1.04325
1.04749
1.05171
1.05559
1.07275
3.25012
6.09095
6.00078
1.02662
1.02873
1.03194
1.03524
1.0394
1.04317
1.0487
1.46698
5.16476
6.02138
1.01999
1.02131
1.02315
1.02536
1.02875
1.03245
1.03658
1.06057
3.43695
5.79311
1.01508
1.01613
1.01728
1.01893
1.02092
1.02391
1.02741
1.03469
1.72187
5.24955
1.01161
1.01256
1.01363
1.01497
1.01643
1.01864
1.0211
1.02474
1.09824
4.12749
1.00872
1.00956
1.01059
1.01185
1.01316
1.01484
1.01684
1.01909
1.02901
2.81447
1.0064
1.00705
1.00792
1.00896
1.01015
1.0115
1.01318
1.01497
1.01958
1.63835
1.0046
1.0051
1.00578
1.00663
1.00765
1.0089
1.01033
1.01203
1.01458
1.11609
1
1
1
1
1
1
1
1
0.999995
1.45644
1
1
1
1
1
1
1
1
0.999995
1.34037
1
1
1
1
1
1
1
1
0.999995
1.27462
1
1
1
1
1
1
1
1
0.999995
1.20728
1
1
1
1
1
1
1
1
0.999995
1.16936
1
1
1
1
1
1
1
1
0.999995
1.1421
1
1
1
1
1
1
1
1
0.999995
1.11481
1
1
1
1
1
1
1
1
0.999995
1.08606
1
1
1
1
1
1
1
1
0.999996
1.07034
1
1
1
1
1
1
1
1
0.999996
1.05331
1
1
1
1
1
1
1
1
0.999996
1.03996
1
1
1
1
1
1
1
1
0.999996
1.03358
1
1
1
1
1
1
1
1
0.999996
1.02341
1
1
1
1
1
1
1
1
0.999996
1.01644
1
1
1
1
1
1
1
1
0.999997
1.0128
1
1
1
1
1
1
1
1
0.999997
1.00968
1
1
1
1
1
1
1
1
0.999997
1.00716
1
1
1
1
1
1
1
1
0.999997
1.00522
1
1
1
1
1
1
1
1
0.999997
1.00378
1
1
1
1
1
1
1
1
0.999997
1.00269
1
1
1
1
1
1
1
1
0.999997
1.00269
1
1
1
1
1
1
1
1
0.999997
1.00378
1
1
1
1
1
1
1
1
0.999997
1.00522
1
1
1
1
1
1
1
1
0.999997
1.00716
1
1
1
1
1
1
1
1
0.999997
1.00969
1
1
1
1
1
1
1
1
0.999997
1.0128
1
1
1
1
1
1
1
1
0.999996
1.01644
1
1
1
1
1
1
1
1
0.999996
1.02341
1
1
1
1
1
1
1
1
0.999996
1.03359
1
1
1
1
1
1
1
1
0.999996
1.03997
1
1
1
1
1
1
1
1
0.999996
1.05332
1
1
1
1
1
1
1
1
0.999996
1.07035
1
1
1
1
1
1
1
1
0.999996
1.08607
1
1
1
1
1
1
1
1
0.999995
1.11482
1
1
1
1
1
1
1
1
0.999995
1.14211
1
1
1
1
1
1
1
1
0.999995
1.16937
1
1
1
1
1
1
1
1
0.999995
1.2073
1
1
1
1
1
1
1
1
0.999995
1.27465
1
1
1
1
1
1
1
1
0.999995
1.3404
1
1
1
1
1
1
1
1
0.999995
1.45647
1.0046
1.0051
1.00578
1.00663
1.00765
1.00891
1.01033
1.01203
1.01459
1.1156
1.0064
1.00705
1.00792
1.00896
1.01015
1.01151
1.01319
1.01497
1.01959
1.63689
1.00872
1.00956
1.0106
1.01185
1.01317
1.01485
1.01685
1.01909
1.029
2.8126
1.01162
1.01256
1.01363
1.01498
1.01644
1.01865
1.0211
1.02474
1.09802
4.12549
1.01508
1.01614
1.01729
1.01894
1.02092
1.02392
1.02742
1.03469
1.72059
5.24774
1.01999
1.02131
1.02316
1.02537
1.02876
1.03246
1.03659
1.06054
3.43472
5.79175
1.02662
1.02873
1.03194
1.03525
1.03941
1.04318
1.04871
1.46635
5.16327
6.02072
1.03718
1.04006
1.04326
1.0475
1.05172
1.05559
1.07274
3.24836
6.09052
6.00047
1.05051
1.05296
1.0554
1.05884
1.06272
1.06821
1.50454
5.38692
6.34568
6.01745
1.06254
1.06635
1.07157
1.07729
1.0822
1.10962
3.61463
6.47917
6.36625
5.96999
1.08271
1.08867
1.09586
1.10443
1.11188
1.91257
5.89334
6.62382
6.34239
5.92031
1.10342
1.10756
1.11234
1.11772
1.31306
4.71652
6.73942
6.62178
6.22863
5.8759
1.13342
1.14112
1.14961
1.16919
3.36853
6.5639
6.78304
6.56016
6.12199
5.77022
1.17173
1.18066
1.18682
2.05816
6.24046
6.99711
6.82871
6.58169
6.09257
5.71962
1.20931
1.21086
1.59481
5.30995
7.20406
7.03833
6.82664
6.61399
6.06487
5.61376
1.24677
1.39409
4.45493
7.25688
7.19103
7.07249
6.88744
6.64405
6.11796
5.52083
1.55284
3.46844
7.05413
7.42527
7.27652
7.07012
6.83968
6.60135
6.13988
5.39815
2.97333
6.60745
7.50205
7.59137
7.43712
7.24164
6.99509
6.699
6.27207
5.41241
5.38824
7.21882
7.18903
7.25681
7.25014
7.18571
6.98202
6.65863
6.23513
5.40781
6.68106
8.01762
7.73201
7.55384
7.41166
7.30345
7.11953
6.8369
6.45038
5.76711
4.34077
4.21704
3.24595
2.32592
1.85461
1.49529
1.40316
1.66743
2.55873
3.53428
4.67562
4.0419
3.0885
2.21254
1.75925
1.42582
1.34644
1.66996
2.79812
3.59345
4.81756
3.85656
2.91077
2.09139
1.66722
1.3509
1.31624
1.74653
2.98822
3.63036
4.97609
3.68324
2.73255
1.96679
1.56484
1.2844
1.31258
1.90423
3.11652
3.65321
4.99383
3.5205
2.56232
1.83957
1.46384
1.2382
1.34609
2.07393
3.18589
3.66069
4.89481
3.36827
2.39492
1.71367
1.35168
1.24536
1.44392
2.18798
3.2024
3.66203
4.79497
3.21589
2.2218
1.59248
1.25541
1.26444
1.56018
2.25262
3.18322
3.65899
4.64361
3.04869
2.04946
1.46554
1.19732
1.27436
1.68701
2.29457
3.13784
3.64445
4.50298
2.87769
1.86716
1.35253
1.15551
1.27827
1.81993
2.31956
3.06299
3.61703
4.33986
2.68774
1.69244
1.24769
1.12663
1.3407
1.93706
2.32313
2.96402
3.59027
4.16533
2.49205
1.53088
1.15063
1.10286
1.42243
2.03325
2.32896
2.86513
3.55621
3.97515
2.29274
1.38768
1.08134
1.09899
1.513
2.10604
2.3406
2.77337
3.51165
3.75269
2.0945
1.23907
1.02605
1.10072
1.59958
2.16243
2.34944
2.69044
3.45406
3.53441
1.9067
1.10648
1.00261
1.11766
1.67275
2.19833
2.35976
2.61881
3.38749
3.26325
1.69856
1.0073
1.00029
1.14766
1.73922
2.22315
2.3739
2.55803
3.31531
3.00826
1.50829
0.941619
0.989001
1.21295
1.79183
2.23478
2.39866
2.516
3.2374
2.72032
1.34779
0.923687
0.976419
1.2746
1.83079
2.23155
2.42302
2.49744
3.15832
2.42548
1.15763
0.937958
0.985462
1.33577
1.86271
2.22886
2.44422
2.49695
3.08163
2.0801
1.03703
0.95246
1.00873
1.39679
1.88797
2.23844
2.46221
2.4953
3.01264
1.5592
1.00869
0.953173
1.04047
1.44813
1.90244
2.25827
2.49173
2.49534
2.95179
1.00015
0.999309
1.154
6.21921
8.0018
6.66919
5.29298
4.23309
3.47462
2.5786
1.00015
0.998833
1.14422
5.81715
8.08316
6.67031
5.29948
4.25884
3.48329
2.63341
1.00014
0.99802
1.20055
5.71602
8.19164
6.63615
5.26838
4.22058
3.46862
2.57462
1.00012
0.99685
1.27128
5.25546
8.14571
6.59253
5.23088
4.20073
3.46119
2.55898
1.00009
0.99535
1.37833
4.98297
7.97718
6.53532
5.18978
4.1817
3.42937
2.53453
0.99995
0.993197
1.55254
4.62544
7.58478
6.42868
5.14653
4.15606
3.39461
2.50627
0.999579
0.991499
1.82261
4.34201
7.01436
6.30184
5.1171
4.1405
3.36662
2.48755
0.998907
0.998768
2.22833
4.21316
6.31178
6.16232
5.07118
4.12174
3.32587
2.45397
0.99814
1.05225
2.79674
4.1459
5.60274
5.97973
4.97664
4.07379
3.26758
2.41932
0.997187
1.20529
3.29501
4.08262
4.80953
5.68718
4.8819
4.02038
3.21394
2.4014
0.995947
1.46486
3.66152
4.00221
4.04151
5.18884
4.803
3.97622
3.15857
2.37918
0.994237
1.83274
3.90332
3.92573
3.47986
4.44724
4.62505
3.86046
3.09609
2.37098
0.992858
2.2807
4.08707
3.8726
3.18071
3.6587
4.35228
3.68811
3.0103
2.35477
0.993373
2.78082
4.19522
3.84971
2.99462
3.03274
3.9106
3.4803
2.93221
2.35736
1.08372
3.27069
4.24496
3.79204
2.86647
2.63333
3.32964
3.27614
2.82974
2.38327
1.38305
3.71942
4.14734
3.62568
2.75123
2.36483
2.73808
3.04763
2.67042
2.43548
1.91308
4.05641
3.97649
3.36329
2.63924
2.15171
2.30458
2.7819
2.49407
2.55935
2.49752
4.2084
3.81499
3.0686
2.39745
1.94095
1.99372
2.44516
2.30779
2.75729
3.01796
4.25999
3.6685
2.78714
2.17361
1.76303
1.76004
2.09231
2.23005
3.0443
3.68082
4.30228
3.4619
2.50599
1.99054
1.61073
1.54993
1.81558
2.26847
3.34107
3.6826
4.30275
3.46195
2.50602
1.99059
1.61073
1.54984
1.81538
2.26841
3.34117
3.01936
4.26047
3.66861
2.78705
2.1735
1.76296
1.75995
2.09218
2.23015
3.04487
2.49917
4.20917
3.81499
3.06832
2.3973
1.94089
1.99367
2.44506
2.30784
2.75773
1.91456
4.05757
3.97642
3.3628
2.63859
2.1515
2.30447
2.78194
2.494
2.55932
1.38392
3.72067
4.14721
3.62528
2.75104
2.36469
2.73796
3.04759
2.67043
2.43546
1.08422
3.27235
4.24523
3.79216
2.86647
2.63329
3.32947
3.2761
2.82979
2.38331
0.993401
2.78273
4.19598
3.84983
2.99454
3.03258
3.91041
3.48026
2.93223
2.35741
0.992842
2.28234
4.08784
3.87262
3.18054
3.65829
4.35212
3.688
3.01033
2.35482
0.994226
1.83403
3.90412
3.92564
3.47941
4.44666
4.62492
3.86036
3.09609
2.37102
0.995941
1.46579
3.66261
4.00207
4.0408
5.1884
4.80293
3.97614
3.15858
2.37924
0.997183
1.20592
3.29633
4.08264
4.80889
5.68697
4.88185
4.02037
3.21399
2.40145
0.998136
1.05254
2.79835
4.14618
5.60241
5.97979
4.97666
4.07387
3.26767
2.41938
0.998904
0.998817
2.22964
4.21373
6.31183
6.16252
5.07133
4.12193
3.32602
2.45402
0.999577
0.991494
1.82347
4.34269
7.01444
6.30211
5.11739
4.14079
3.36683
2.48762
0.999949
0.99319
1.55314
4.62627
7.58505
6.42918
5.14693
4.1564
3.39485
2.50636
1.00009
0.995345
1.37876
4.98414
7.97777
6.53596
5.19026
4.1821
3.42964
2.53462
1.00012
0.996848
1.27159
5.25701
8.14647
6.59323
5.23142
4.20116
3.46146
2.55906
1.00014
0.998019
1.2008
5.71828
8.19257
6.63675
5.2689
4.22104
3.46893
2.57471
1.00015
0.998833
1.14448
5.81966
8.08414
6.67087
5.29997
4.25927
3.48363
2.63352
1.00015
0.999309
1.15422
6.22208
8.00279
6.66971
5.29342
4.23358
3.47501
2.57873
1.00309
1.00344
1.00392
1.00453
1.00529
1.00622
1.00737
1.00877
1.0103
1.01718
1.0019
1.00211
1.00242
1.00278
1.00327
1.00385
1.00465
1.00555
1.00693
1.00761
1.00116
1.00129
1.00147
1.00169
1.002
1.00235
1.00286
1.00343
1.00443
1.00499
1.00069
1.00077
1.00088
1.00101
1.0012
1.0014
1.00172
1.00205
1.00271
1.00313
1.00041
1.00045
1.00052
1.0006
1.00071
1.00084
1.00102
1.00122
1.0016
1.00187
1.00025
1.00027
1.00031
1.00036
1.00041
1.00049
1.00059
1.00073
1.00092
1.00111
1.00015
1.00017
1.00019
1.00021
1.00024
1.00029
1.00034
1.00043
1.00053
1.00073
1.00009
1.0001
1.00011
1.00013
1.00015
1.00017
1.00021
1.00025
1.00031
1.00046
1.00006
1.00006
1.00007
1.00008
1.00009
1.00011
1.00013
1.00015
1.00018
1.00028
1.00003
1.00004
1.00004
1.00005
1.00006
1.00007
1.00008
1.0001
1.00011
1.00017
1.00002
1.00002
1.00003
1.00003
1.00004
1.00004
1.00005
1.00006
1.00008
1.00011
1.00002
1.00002
1.00002
1.00002
1.00003
1.00003
1.00004
1.00005
1.00005
1.00008
1.00001
1.00001
1.00002
1.00002
1.00002
1.00002
1.00003
1.00004
1.00004
1.00006
1.00001
1.00001
1.00001
1.00001
1.00002
1.00002
1.00002
1.00003
1.00004
1.00005
1.00001
1.00001
1.00001
1.00002
1.00002
1.00002
1.00003
1.00003
1.00004
1.00005
1.00001
1.00001
1.00001
1.00002
1.00002
1.00002
1.00003
1.00003
1.00004
1.00005
1.00001
1.00001
1.00001
1.00002
1.00002
1.00002
1.00003
1.00003
1.00004
1.00005
1.00001
1.00001
1.00002
1.00002
1.00002
1.00002
1.00003
1.00003
1.00004
1.00005
1.00001
1.00002
1.00002
1.00002
1.00002
1.00003
1.00003
1.00004
1.00004
1.00005
1.00001
1.00002
1.00002
1.00002
1.00002
1.00003
1.00003
1.00004
1.00004
1.00005
1
1
1
1
1
1
1
1
0.999998
1.00179
1
1
1
1
1
1
1
1
0.999998
1.00109
1
1
1
1
1
1
1
1
0.999998
1.00066
1
1
1
1
1
1
1
1
0.999998
1.00039
1
1
1
1
1
1
1
1
0.999998
1.00023
1
1
1
1
1
1
1
1
0.999999
1.00014
1
1
1
1
1
1
1
1
0.999999
1.00009
1
1
1
1
1
1
1
1
0.999999
1.00005
1
1
1
1
1
1
1
1
0.999999
1.00003
1
1
1
1
1
1
1
1
0.999999
1.00002
1
1
1
1
1
1
1
1
1
1.00001
1
1
1
1
1
1
1
1
1
1.00001
1
1
1
1
1
1
1
1
1
1.00001
1
1
1
1
1
1
1
1
1
1.00001
1
1
1
1
1
1
1
1
1
1.00001
1
1
1
1
1
1
1
1
1
1.00001
1
1
1
1
1
1
1
1
1
1.00001
1
1
1
1
1
1
1
1
1
1.00001
1
1
1
1
1
1
1
1
1
1.00001
1
1
1
1
1
1
1
1
1
1.00001
1
1
1
1
1
1
1
1
1
1.00001
1
1
1
1
1
1
1
1
1
1.00001
1
1
1
1
1
1
1
1
1
1.00001
1
1
1
1
1
1
1
1
1
1.00001
1
1
1
1
1
1
1
1
1
1.00001
1
1
1
1
1
1
1
1
1
1.00001
1
1
1
1
1
1
1
1
1
1.00001
1
1
1
1
1
1
1
1
1
1.00001
1
1
1
1
1
1
1
1
1
1.00001
1
1
1
1
1
1
1
1
1
1.00001
1
1
1
1
1
1
1
1
0.999999
1.00002
1
1
1
1
1
1
1
1
0.999999
1.00003
1
1
1
1
1
1
1
1
0.999999
1.00005
1
1
1
1
1
1
1
1
0.999999
1.00009
1
1
1
1
1
1
1
1
0.999999
1.00014
1
1
1
1
1
1
1
1
0.999998
1.00023
1
1
1
1
1
1
1
1
0.999998
1.00039
1
1
1
1
1
1
1
1
0.999998
1.00066
1
1
1
1
1
1
1
1
0.999998
1.00109
1
1
1
1
1
1
1
1
0.999998
1.00179
1.00001
1.00002
1.00002
1.00002
1.00002
1.00003
1.00003
1.00004
1.00004
1.00005
1.00001
1.00002
1.00002
1.00002
1.00002
1.00003
1.00003
1.00004
1.00004
1.00005
1.00001
1.00001
1.00002
1.00002
1.00002
1.00002
1.00003
1.00003
1.00004
1.00005
1.00001
1.00001
1.00001
1.00002
1.00002
1.00002
1.00003
1.00003
1.00004
1.00005
1.00001
1.00001
1.00001
1.00002
1.00002
1.00002
1.00003
1.00003
1.00004
1.00005
1.00001
1.00001
1.00001
1.00002
1.00002
1.00002
1.00003
1.00003
1.00004
1.00005
1.00001
1.00001
1.00001
1.00001
1.00002
1.00002
1.00002
1.00003
1.00004
1.00005
1.00001
1.00001
1.00002
1.00002
1.00002
1.00002
1.00003
1.00004
1.00004
1.00006
1.00002
1.00002
1.00002
1.00002
1.00003
1.00003
1.00004
1.00005
1.00005
1.00008
1.00002
1.00002
1.00003
1.00003
1.00004
1.00004
1.00005
1.00006
1.00008
1.00011
1.00003
1.00004
1.00004
1.00005
1.00006
1.00007
1.00008
1.0001
1.00011
1.00017
1.00006
1.00006
1.00007
1.00008
1.00009
1.00011
1.00013
1.00015
1.00018
1.00028
1.00009
1.0001
1.00011
1.00013
1.00015
1.00017
1.00021
1.00025
1.00031
1.00046
1.00015
1.00017
1.00019
1.00021
1.00024
1.00029
1.00034
1.00043
1.00053
1.00073
1.00025
1.00027
1.00031
1.00036
1.00041
1.00049
1.00059
1.00073
1.00092
1.00111
1.00041
1.00045
1.00052
1.0006
1.00071
1.00084
1.00102
1.00123
1.0016
1.00187
1.00069
1.00077
1.00088
1.00101
1.0012
1.0014
1.00173
1.00205
1.00271
1.00313
1.00116
1.00129
1.00147
1.0017
1.002
1.00235
1.00286
1.00344
1.00443
1.00499
1.0019
1.00212
1.00242
1.00278
1.00328
1.00385
1.00465
1.00555
1.00694
1.00762
1.00309
1.00344
1.00392
1.00453
1.00529
1.00622
1.00737
1.00878
1.0103
1.01715
)
;

boundaryField
{
    inlet
    {
        type            fixedValue;
        value           uniform 1;
    }
    outlet
    {
        type            zeroGradient;
    }
    triangle
    {
        type            zeroGradient;
    }
    top
    {
        type            symmetryPlane;
    }
    bottom
    {
        type            symmetryPlane;
    }
    defaultFaces
    {
        type            empty;
    }
}


// ************************************************************************* //
