/*--------------------------------*- C++ -*----------------------------------*\
  =========                 |
  \\      /  F ield         | OpenFOAM: The Open Source CFD Toolbox
   \\    /   O peration     | Website:  https://openfoam.org
    \\  /    A nd           | Version:  8
     \\/     M anipulation  |
\*---------------------------------------------------------------------------*/
FoamFile
{
    version     2.0;
    format      ascii;
    class       volScalarField;
    location    "0.9";
    object      rho;
}
// * * * * * * * * * * * * * * * * * * * * * * * * * * * * * * * * * * * * * //

dimensions      [1 -3 0 0 0 0 0];

internalField   nonuniform List<scalar> 
2600
(
0.839476
0.796548
0.820922
0.939543
1.21867
1.45959
1.74442
2.08479
2.27266
2.63582
0.898719
0.793483
0.81216
0.934088
1.20527
1.42771
1.72135
2.06238
2.21703
2.54408
0.925563
0.803002
0.816382
0.932389
1.18025
1.38998
1.68782
2.03913
2.14931
2.43163
0.979021
0.838342
0.829873
0.932681
1.14788
1.36022
1.65296
1.99154
2.05425
2.30339
1.02093
0.864945
0.8379
0.925139
1.11651
1.34317
1.62885
1.91471
1.95693
2.18742
1.04174
0.876876
0.843244
0.921236
1.10752
1.34276
1.61771
1.84492
1.88289
2.11241
1.04354
0.873469
0.841675
0.922865
1.12124
1.35936
1.61082
1.78645
1.84103
2.08079
1.03938
0.866235
0.841646
0.93773
1.14648
1.37574
1.60123
1.76096
1.8307
2.07246
1.02925
0.854902
0.837851
0.956698
1.19079
1.4017
1.60423
1.74926
1.82182
2.06806
1.02022
0.848105
0.839321
0.971477
1.21248
1.41372
1.59997
1.73717
1.82044
2.06672
1.02013
0.847807
0.838627
0.971116
1.21213
1.42064
1.58203
1.74322
1.82114
2.06536
1.02898
0.85448
0.837184
0.95821
1.19173
1.40995
1.58951
1.73722
1.81961
2.06691
1.03883
0.865834
0.841357
0.938072
1.14792
1.37627
1.60198
1.75339
1.82119
2.06875
1.0428
0.87301
0.841659
0.924251
1.12195
1.3564
1.61092
1.7989
1.84689
2.08262
1.04083
0.876318
0.843527
0.922683
1.10659
1.34001
1.62479
1.85506
1.89032
2.11487
1.0199
0.864257
0.838219
0.926368
1.1149
1.3414
1.63925
1.92416
1.95931
2.18851
0.978001
0.83784
0.829898
0.933133
1.14541
1.36182
1.65544
1.97251
2.04612
2.29996
0.924531
0.802508
0.816174
0.932177
1.18121
1.39664
1.67829
2.0167
2.13625
2.42896
0.897755
0.793131
0.812435
0.935313
1.21072
1.42916
1.70957
2.06827
2.22979
2.54906
0.838427
0.796072
0.821529
0.942101
1.22313
1.45445
1.74414
2.10265
2.28487
2.63613
1.15239
0.812032
0.844737
0.949514
1.22258
1.47711
1.77388
2.10828
2.30934
2.70779
1.52637
0.864182
0.884394
0.959766
1.22684
1.4969
1.79294
2.10649
2.3296
2.77626
1.80521
0.988867
0.911531
0.970197
1.21968
1.50742
1.81077
2.10587
2.34427
2.84093
2.06337
1.17326
0.929706
0.98811
1.20878
1.5112
1.83431
2.10407
2.35264
2.90425
2.33269
1.3453
0.968902
1.02306
1.19246
1.5115
1.86008
2.10265
2.36917
2.96353
2.58965
1.53764
1.04764
1.05925
1.16957
1.5081
1.87868
2.10271
2.40106
3.0205
2.84976
1.7432
1.1581
1.08339
1.1694
1.50333
1.88807
2.11148
2.4463
3.07309
3.05499
1.92712
1.29537
1.12425
1.17784
1.49647
1.8909
2.12732
2.50227
3.12012
3.22886
2.10636
1.44224
1.19452
1.19593
1.47392
1.88159
2.14824
2.57027
3.15796
3.36171
2.27712
1.57777
1.27827
1.21158
1.4394
1.86247
2.16846
2.65025
3.18311
3.46786
2.43433
1.72157
1.38111
1.24267
1.40301
1.83176
2.18972
2.73689
3.19864
3.55461
2.57599
1.86946
1.48218
1.27961
1.37573
1.79006
2.20857
2.81384
3.20923
3.6213
2.69521
2.01606
1.58297
1.32741
1.39205
1.72749
2.21009
2.86556
3.2219
3.69278
2.80285
2.1482
1.68983
1.38961
1.40345
1.65456
2.19534
2.89207
3.22841
3.73488
2.89449
2.27374
1.78833
1.48384
1.40373
1.57958
2.15808
2.89905
3.22904
3.78535
2.97814
2.38713
1.88635
1.58615
1.40794
1.51321
2.07956
2.87873
3.22639
3.76636
3.06222
2.49485
1.98067
1.67318
1.45803
1.49272
1.95288
2.81673
3.2175
3.67456
3.1548
2.60224
2.06841
1.75641
1.52496
1.49787
1.83018
2.71805
3.19618
3.605
3.25836
2.70704
2.14992
1.82836
1.59281
1.51922
1.76876
2.58668
3.16326
3.40164
3.35366
2.7994
2.22365
1.89948
1.65008
1.55945
1.75905
2.4245
3.11463
3.72164
4.2263
4.13163
4.07998
4.02757
3.97664
3.89457
3.76943
3.60223
3.32091
3.44819
4.15074
4.08399
4.08169
4.05657
4.00665
3.9015
3.74731
3.5579
3.2368
2.59481
4.39894
4.59014
4.52014
4.39262
4.25498
4.09493
3.91976
3.704
3.38482
1.83403
3.04468
4.81651
4.78494
4.65706
4.50331
4.32613
4.13327
3.86637
3.57288
1.6134
1.73004
3.57501
4.89049
4.84395
4.76673
4.63012
4.43066
4.10161
3.8425
1.5883
1.5913
1.87751
3.98412
4.93554
4.86573
4.74862
4.60068
4.26029
4.0558
1.55998
1.56893
1.57523
2.19542
4.49552
4.86834
4.78256
4.64491
4.36619
4.19205
1.52666
1.53426
1.5428
1.56057
2.97405
4.61025
4.74489
4.6305
4.40802
4.24747
1.49949
1.50361
1.5084
1.51366
1.6702
3.61
4.67735
4.64137
4.46791
4.3064
1.48043
1.4863
1.49336
1.50186
1.5089
2.08414
4.226
4.64421
4.51517
4.31244
1.46124
1.46499
1.47015
1.47577
1.48066
1.5049
3.03061
4.52783
4.49495
4.31479
1.44975
1.45217
1.45459
1.45799
1.46185
1.46704
1.80815
3.93376
4.47624
4.31657
1.43679
1.43964
1.4428
1.447
1.45116
1.45502
1.47047
2.83393
4.32221
4.28632
1.42642
1.42851
1.4317
1.43497
1.43908
1.44284
1.44809
1.78481
3.83201
4.29477
1.41988
1.42119
1.42303
1.42522
1.42858
1.43225
1.43636
1.45822
2.91968
4.16776
1.41502
1.41607
1.41721
1.41885
1.42083
1.4238
1.42728
1.43445
1.97199
3.90809
1.41158
1.41252
1.41359
1.41493
1.41638
1.41858
1.42102
1.42462
1.49183
3.22788
1.4087
1.40954
1.41057
1.41182
1.41313
1.41481
1.4168
1.41903
1.42879
2.51009
1.40639
1.40704
1.40791
1.40895
1.41013
1.41148
1.41316
1.41493
1.41952
1.88868
1.4046
1.4051
1.40578
1.40663
1.40765
1.4089
1.41031
1.41201
1.41452
1.50881
1.40001
1.40001
1.40001
1.40001
1.40001
1.40001
1.40001
1.40001
1.4
1.53584
1.40001
1.40001
1.40001
1.40001
1.40001
1.40001
1.40001
1.40001
1.4
1.52269
1.40001
1.40001
1.40001
1.40001
1.40001
1.40001
1.40001
1.40001
1.4
1.5585
1.40001
1.40001
1.40001
1.40001
1.40001
1.40001
1.40001
1.40001
1.4
1.55284
1.40001
1.40001
1.40001
1.40001
1.40001
1.40001
1.40001
1.40001
1.4
1.54163
1.40001
1.40001
1.40001
1.40001
1.40001
1.40001
1.40001
1.40001
1.4
1.5272
1.40001
1.40001
1.40001
1.40001
1.40001
1.40001
1.40001
1.40001
1.4
1.50675
1.40001
1.40001
1.40001
1.40001
1.40001
1.40001
1.40001
1.40001
1.4
1.48171
1.40001
1.40001
1.40001
1.40001
1.40001
1.40001
1.40001
1.40001
1.4
1.46779
1.40001
1.40001
1.40001
1.40001
1.40001
1.40001
1.40001
1.40001
1.4
1.45194
1.40001
1.40001
1.40001
1.40001
1.40001
1.40001
1.40001
1.40001
1.4
1.4392
1.40001
1.40001
1.40001
1.40001
1.40001
1.40001
1.40001
1.40001
1.4
1.43314
1.40001
1.40001
1.40001
1.40001
1.40001
1.40001
1.40001
1.40001
1.4
1.4232
1.40001
1.40001
1.40001
1.40001
1.40001
1.40001
1.40001
1.40001
1.4
1.41634
1.40001
1.40001
1.40001
1.40001
1.40001
1.40001
1.40001
1.40001
1.4
1.41274
1.40001
1.40001
1.40001
1.40001
1.40001
1.40001
1.40001
1.40001
1.4
1.40966
1.40001
1.40001
1.40001
1.40001
1.40001
1.40001
1.40001
1.40001
1.4
1.40714
1.40001
1.40001
1.40001
1.40001
1.40001
1.40001
1.40001
1.40001
1.4
1.40522
1.40001
1.40001
1.40001
1.40001
1.40001
1.40001
1.40001
1.40001
1.4
1.40378
1.40001
1.40001
1.40001
1.40001
1.40001
1.40001
1.40001
1.40001
1.4
1.40269
1.40001
1.40001
1.40001
1.40001
1.40001
1.40001
1.40001
1.40001
1.4
1.40269
1.40001
1.40001
1.40001
1.40001
1.40001
1.40001
1.40001
1.40001
1.4
1.40378
1.40001
1.40001
1.40001
1.40001
1.40001
1.40001
1.40001
1.40001
1.4
1.40522
1.40001
1.40001
1.40001
1.40001
1.40001
1.40001
1.40001
1.40001
1.4
1.40715
1.40001
1.40001
1.40001
1.40001
1.40001
1.40001
1.40001
1.40001
1.4
1.40966
1.40001
1.40001
1.40001
1.40001
1.40001
1.40001
1.40001
1.40001
1.4
1.41274
1.40001
1.40001
1.40001
1.40001
1.40001
1.40001
1.40001
1.40001
1.4
1.41634
1.40001
1.40001
1.40001
1.40001
1.40001
1.40001
1.40001
1.40001
1.4
1.4232
1.40001
1.40001
1.40001
1.40001
1.40001
1.40001
1.40001
1.40001
1.4
1.43315
1.40001
1.40001
1.40001
1.40001
1.40001
1.40001
1.40001
1.40001
1.4
1.43921
1.40001
1.40001
1.40001
1.40001
1.40001
1.40001
1.40001
1.40001
1.4
1.45195
1.40001
1.40001
1.40001
1.40001
1.40001
1.40001
1.40001
1.40001
1.4
1.4678
1.40001
1.40001
1.40001
1.40001
1.40001
1.40001
1.40001
1.40001
1.4
1.48171
1.40001
1.40001
1.40001
1.40001
1.40001
1.40001
1.40001
1.40001
1.4
1.50676
1.40001
1.40001
1.40001
1.40001
1.40001
1.40001
1.40001
1.40001
1.4
1.52721
1.40001
1.40001
1.40001
1.40001
1.40001
1.40001
1.40001
1.40001
1.4
1.54163
1.40001
1.40001
1.40001
1.40001
1.40001
1.40001
1.40001
1.40001
1.4
1.55284
1.40001
1.40001
1.40001
1.40001
1.40001
1.40001
1.40001
1.40001
1.4
1.55849
1.40001
1.40001
1.40001
1.40001
1.40001
1.40001
1.40001
1.40001
1.4
1.52267
1.40001
1.40001
1.40001
1.40001
1.40001
1.40001
1.40001
1.40001
1.4
1.53585
1.4046
1.4051
1.40578
1.40663
1.40765
1.4089
1.41032
1.41202
1.41452
1.50835
1.4064
1.40704
1.40791
1.40895
1.41014
1.41149
1.41316
1.41494
1.41952
1.88774
1.4087
1.40955
1.41058
1.41183
1.41314
1.41481
1.4168
1.41904
1.42879
2.50915
1.41159
1.41253
1.41359
1.41493
1.41639
1.41859
1.42103
1.42463
1.49162
3.22669
1.41502
1.41608
1.41722
1.41886
1.42083
1.42381
1.42729
1.43445
1.97106
3.90714
1.41988
1.4212
1.42303
1.42522
1.42859
1.43225
1.43637
1.4582
2.91851
4.16714
1.42642
1.42852
1.4317
1.43498
1.43909
1.44285
1.44809
1.78433
3.83119
4.29454
1.43679
1.43964
1.44281
1.44701
1.45117
1.45503
1.47046
2.833
4.32213
4.28628
1.44976
1.45218
1.4546
1.45799
1.46186
1.46704
1.80784
3.93307
4.47612
4.31656
1.46125
1.465
1.47016
1.47578
1.48067
1.50489
3.02999
4.52762
4.49489
4.31478
1.48044
1.48631
1.49338
1.50188
1.50891
2.08382
4.22555
4.6442
4.51523
4.31247
1.4995
1.50362
1.50842
1.51368
1.67009
3.60958
4.67728
4.64135
4.46794
4.30644
1.52667
1.53427
1.54281
1.56058
2.97365
4.61007
4.74487
4.63048
4.40798
4.24748
1.55999
1.56894
1.57524
2.19535
4.49523
4.86834
4.78259
4.64485
4.36609
4.19202
1.5883
1.5913
1.87756
3.98401
4.93546
4.86572
4.74857
4.6006
4.26023
4.05579
1.61341
1.73011
3.57506
4.89038
4.84386
4.76666
4.63003
4.43056
4.10156
3.84247
1.83414
3.04482
4.81642
4.78476
4.65688
4.50317
4.32598
4.13311
3.86627
3.57284
2.59503
4.39892
4.58993
4.51994
4.39244
4.25481
4.09476
3.91957
3.70387
3.38477
3.44814
4.15057
4.08379
4.0815
4.05637
4.00646
3.90131
3.74713
3.55775
3.23674
3.7216
4.22616
4.13147
4.07981
4.02738
3.97646
3.89439
3.76926
3.60208
3.32083
3.4006
3.35345
2.79949
2.22362
1.89942
1.65019
1.55953
1.75902
2.42461
3.11441
3.6044
3.25831
2.70713
2.14981
1.82825
1.59299
1.51932
1.76884
2.58645
3.16293
3.67419
3.15476
2.60226
2.06823
1.7563
1.52503
1.49799
1.83024
2.71794
3.19615
3.76603
3.06211
2.49482
1.98044
1.67305
1.45816
1.49285
1.95315
2.81706
3.21753
3.78515
2.978
2.38701
1.88607
1.586
1.40805
1.51323
2.07959
2.87895
3.22664
3.73472
2.89425
2.27353
1.78806
1.48352
1.40398
1.57959
2.15815
2.89916
3.22936
3.69268
2.80261
2.14802
1.68951
1.38946
1.40364
1.65486
2.19563
2.8917
3.22823
3.62121
2.69499
2.0159
1.58255
1.32739
1.39208
1.72806
2.21026
2.86465
3.22147
3.5545
2.57577
1.86924
1.48196
1.27958
1.37585
1.7906
2.20844
2.81338
3.20938
3.46779
2.43405
1.72155
1.38067
1.24257
1.40326
1.83193
2.18956
2.73768
3.19934
3.36163
2.27687
1.57778
1.27785
1.21133
1.43957
1.86211
2.16897
2.65217
3.18427
3.22879
2.10617
1.44224
1.19408
1.19547
1.47355
1.88133
2.14912
2.57155
3.15862
3.05494
1.927
1.29568
1.12343
1.17732
1.49555
1.89086
2.12894
2.50232
3.11942
2.84971
1.74323
1.15833
1.08264
1.16925
1.50269
1.88772
2.11306
2.44703
3.07187
2.58955
1.53805
1.0475
1.0585
1.16956
1.50831
1.87764
2.10221
2.40252
3.02045
2.3327
1.34571
0.968657
1.02234
1.19177
1.5124
1.86031
2.09902
2.36929
2.96479
2.06341
1.17381
0.92938
0.987237
1.20757
1.51191
1.83812
2.10228
2.34983
2.90456
1.80531
0.98959
0.911315
0.969444
1.21864
1.50548
1.81412
2.10974
2.34241
2.83909
1.52668
0.8647
0.884253
0.958855
1.22598
1.4943
1.78894
2.11545
2.33728
2.7762
1.15305
0.812522
0.844165
0.947571
1.22384
1.48005
1.76505
2.10725
2.31714
2.71212
1.40016
1.39931
1.55011
4.24687
5.33807
4.73603
4.11071
3.61924
3.22901
2.62393
1.40015
1.39884
1.53772
4.0197
5.34064
4.7175
4.10936
3.63535
3.23606
2.6636
1.40014
1.39802
1.58145
3.9236
5.34564
4.6687
4.08044
3.61007
3.22593
2.62067
1.40013
1.39684
1.62669
3.76019
5.29874
4.62122
4.04104
3.58898
3.21676
2.6073
1.4001
1.39533
1.69267
3.75463
5.20941
4.56884
3.99115
3.55986
3.18751
2.5869
1.39995
1.39319
1.80363
3.64574
5.00127
4.47855
3.92886
3.51745
3.15027
2.56171
1.39958
1.39156
1.984
3.50206
4.68213
4.36369
3.86654
3.47392
3.11136
2.5409
1.3989
1.39921
2.26602
3.41275
4.29529
4.24999
3.79634
3.42179
3.05732
2.50691
1.39814
1.45455
2.6553
3.34188
3.92745
4.14029
3.70104
3.34635
2.98683
2.47029
1.39717
1.60531
2.96549
3.26663
3.54315
3.96362
3.6141
3.27369
2.92123
2.44574
1.39594
1.82365
3.14048
3.19085
3.13898
3.67793
3.54751
3.22129
2.86086
2.41749
1.39427
2.06904
3.21201
3.13861
2.81428
3.28342
3.45787
3.13337
2.79604
2.39871
1.39301
2.32973
3.27123
3.10506
2.64186
2.88531
3.32218
3.01439
2.71882
2.37475
1.39452
2.62512
3.31249
3.08345
2.54393
2.55106
3.07527
2.88209
2.65174
2.36739
1.48836
2.92284
3.33071
3.04868
2.48545
2.32071
2.73298
2.759
2.57344
2.37779
1.7627
3.13739
3.26654
2.96116
2.43763
2.16883
2.38404
2.63354
2.45713
2.4057
2.07044
3.23115
3.175
2.82449
2.3921
2.0522
2.13734
2.48093
2.34609
2.4781
2.30174
3.29103
3.08976
2.66826
2.25434
1.93208
1.95556
2.27771
2.23852
2.59715
2.53656
3.34856
3.02721
2.50814
2.11487
1.82921
1.80964
2.04492
2.19379
2.7861
2.95454
3.40266
2.92206
2.33676
1.99435
1.73333
1.66509
1.85927
2.22254
2.98283
2.95563
3.40279
2.92194
2.33668
1.99432
1.7332
1.6649
1.85908
2.22235
2.98271
2.53736
3.34869
3.02709
2.50791
2.11469
1.82909
1.80952
2.04485
2.1937
2.78586
2.30256
3.29132
3.08958
2.6679
2.25414
1.932
1.95547
2.2777
2.2385
2.59707
2.0712
3.23159
3.17473
2.82403
2.39157
2.05203
2.13727
2.4809
2.34614
2.47825
1.76347
3.13784
3.26622
2.96076
2.43746
2.16873
2.38397
2.63354
2.45713
2.40582
1.48897
2.92393
3.33068
3.04859
2.48539
2.32067
2.73282
2.75899
2.57344
2.37788
1.39456
2.62645
3.31281
3.08337
2.54378
2.55088
3.0751
2.88204
2.65175
2.36748
1.39299
2.33088
3.27157
3.10492
2.64163
2.88494
3.32204
3.0143
2.7188
2.37481
1.39426
2.06999
3.21226
3.13847
2.81385
3.28296
3.45776
3.13326
2.79601
2.39876
1.39593
1.8245
3.14096
3.19067
3.13839
3.67759
3.54744
3.22123
2.86085
2.41752
1.39717
1.60603
2.96634
3.26649
3.54265
3.96344
3.61404
3.27367
2.92126
2.44578
1.39813
1.45491
2.65655
3.34191
3.92714
4.14027
3.70105
3.3464
2.98689
2.47033
1.3989
1.39927
2.26708
3.41302
4.2952
4.25005
3.79643
3.42193
3.05744
2.50696
1.39958
1.39155
1.98467
3.50244
4.68208
4.36379
3.8667
3.47412
3.11154
2.54096
1.39995
1.39318
1.80407
3.64621
5.00134
4.47877
3.92907
3.51769
3.15047
2.56181
1.4001
1.39532
1.69298
3.7553
5.20968
4.56915
3.99143
3.56013
3.18773
2.58699
1.40013
1.39684
1.62694
3.76104
5.29912
4.62157
4.04135
3.58928
3.217
2.6074
1.40014
1.39802
1.58169
3.92489
5.3461
4.66899
4.08073
3.61039
3.22621
2.62077
1.40015
1.39884
1.53799
4.02124
5.34113
4.71776
4.10964
3.63566
3.23636
2.66372
1.40016
1.39931
1.55037
4.24868
5.33855
4.73626
4.11096
3.61957
3.22933
2.62407
1.40309
1.40344
1.40392
1.40453
1.40529
1.40622
1.40736
1.40877
1.41029
1.4169
1.40191
1.40212
1.40243
1.40279
1.40328
1.40385
1.40465
1.40555
1.40693
1.40761
1.40116
1.40129
1.40148
1.4017
1.402
1.40235
1.40286
1.40344
1.40443
1.40499
1.4007
1.40077
1.40089
1.40102
1.40121
1.40141
1.40173
1.40205
1.40271
1.40313
1.40041
1.40046
1.40052
1.40061
1.40071
1.40084
1.40103
1.40123
1.4016
1.40188
1.40025
1.40028
1.40031
1.40036
1.40042
1.4005
1.4006
1.40073
1.40092
1.40111
1.40016
1.40017
1.40019
1.40022
1.40025
1.4003
1.40035
1.40044
1.40053
1.40073
1.4001
1.40011
1.40012
1.40013
1.40015
1.40018
1.40021
1.40026
1.40031
1.40046
1.40006
1.40007
1.40008
1.40009
1.4001
1.40011
1.40013
1.40016
1.40019
1.40028
1.40004
1.40004
1.40005
1.40006
1.40006
1.40007
1.40009
1.4001
1.40012
1.40018
1.40003
1.40003
1.40003
1.40004
1.40004
1.40005
1.40006
1.40007
1.40008
1.40012
1.40002
1.40002
1.40002
1.40003
1.40003
1.40004
1.40004
1.40005
1.40006
1.40008
1.40002
1.40002
1.40002
1.40002
1.40003
1.40003
1.40003
1.40004
1.40005
1.40007
1.40002
1.40002
1.40002
1.40002
1.40002
1.40003
1.40003
1.40004
1.40004
1.40006
1.40002
1.40002
1.40002
1.40002
1.40002
1.40003
1.40003
1.40004
1.40004
1.40006
1.40002
1.40002
1.40002
1.40002
1.40002
1.40003
1.40003
1.40004
1.40005
1.40006
1.40002
1.40002
1.40002
1.40002
1.40002
1.40003
1.40003
1.40004
1.40005
1.40005
1.40002
1.40002
1.40002
1.40002
1.40003
1.40003
1.40003
1.40004
1.40005
1.40006
1.40002
1.40002
1.40002
1.40002
1.40003
1.40003
1.40004
1.40004
1.40005
1.40006
1.40002
1.40002
1.40002
1.40003
1.40003
1.40003
1.40004
1.40004
1.40005
1.40006
1.40001
1.40001
1.40001
1.40001
1.40001
1.40001
1.40001
1.40001
1.4
1.40179
1.40001
1.40001
1.40001
1.40001
1.40001
1.40001
1.40001
1.40001
1.4
1.40109
1.40001
1.40001
1.40001
1.40001
1.40001
1.40001
1.40001
1.40001
1.4
1.40067
1.40001
1.40001
1.40001
1.40001
1.40001
1.40001
1.40001
1.40001
1.4
1.4004
1.40001
1.40001
1.40001
1.40001
1.40001
1.40001
1.40001
1.40001
1.4
1.40024
1.40001
1.40001
1.40001
1.40001
1.40001
1.40001
1.40001
1.40001
1.4
1.40015
1.40001
1.40001
1.40001
1.40001
1.40001
1.40001
1.40001
1.40001
1.4
1.40009
1.40001
1.40001
1.40001
1.40001
1.40001
1.40001
1.40001
1.40001
1.4
1.40006
1.40001
1.40001
1.40001
1.40001
1.40001
1.40001
1.40001
1.40001
1.4
1.40004
1.40001
1.40001
1.40001
1.40001
1.40001
1.40001
1.40001
1.40001
1.4
1.40002
1.40001
1.40001
1.40001
1.40001
1.40001
1.40001
1.40001
1.40001
1.4
1.40002
1.40001
1.40001
1.40001
1.40001
1.40001
1.40001
1.40001
1.40001
1.4
1.40001
1.40001
1.40001
1.40001
1.40001
1.40001
1.40001
1.40001
1.40001
1.4
1.40001
1.40001
1.40001
1.40001
1.40001
1.40001
1.40001
1.40001
1.40001
1.4
1.40001
1.40001
1.40001
1.40001
1.40001
1.40001
1.40001
1.40001
1.40001
1.4
1.40001
1.40001
1.40001
1.40001
1.40001
1.40001
1.40001
1.40001
1.40001
1.4
1.40001
1.40001
1.40001
1.40001
1.40001
1.40001
1.40001
1.40001
1.40001
1.40001
1.40001
1.40001
1.40001
1.40001
1.40001
1.40001
1.40001
1.40001
1.40001
1.40001
1.40001
1.40001
1.40001
1.40001
1.40001
1.40001
1.40001
1.40001
1.40001
1.40001
1.40001
1.40001
1.40001
1.40001
1.40001
1.40001
1.40001
1.40001
1.40001
1.40001
1.40001
1.40001
1.40001
1.40001
1.40001
1.40001
1.40001
1.40001
1.40001
1.40001
1.40001
1.40001
1.40001
1.40001
1.40001
1.40001
1.40001
1.40001
1.40001
1.40001
1.40001
1.40001
1.40001
1.40001
1.40001
1.40001
1.40001
1.40001
1.40001
1.40001
1.40001
1.40001
1.40001
1.40001
1.40001
1.40001
1.40001
1.40001
1.40001
1.40001
1.40001
1.40001
1.40001
1.40001
1.40001
1.40001
1.40001
1.40001
1.40001
1.4
1.40001
1.40001
1.40001
1.40001
1.40001
1.40001
1.40001
1.40001
1.40001
1.4
1.40001
1.40001
1.40001
1.40001
1.40001
1.40001
1.40001
1.40001
1.40001
1.4
1.40001
1.40001
1.40001
1.40001
1.40001
1.40001
1.40001
1.40001
1.40001
1.4
1.40001
1.40001
1.40001
1.40001
1.40001
1.40001
1.40001
1.40001
1.40001
1.4
1.40001
1.40001
1.40001
1.40001
1.40001
1.40001
1.40001
1.40001
1.40001
1.4
1.40002
1.40001
1.40001
1.40001
1.40001
1.40001
1.40001
1.40001
1.40001
1.4
1.40002
1.40001
1.40001
1.40001
1.40001
1.40001
1.40001
1.40001
1.40001
1.4
1.40004
1.40001
1.40001
1.40001
1.40001
1.40001
1.40001
1.40001
1.40001
1.4
1.40006
1.40001
1.40001
1.40001
1.40001
1.40001
1.40001
1.40001
1.40001
1.4
1.40009
1.40001
1.40001
1.40001
1.40001
1.40001
1.40001
1.40001
1.40001
1.4
1.40015
1.40001
1.40001
1.40001
1.40001
1.40001
1.40001
1.40001
1.40001
1.4
1.40024
1.40001
1.40001
1.40001
1.40001
1.40001
1.40001
1.40001
1.40001
1.4
1.4004
1.40001
1.40001
1.40001
1.40001
1.40001
1.40001
1.40001
1.40001
1.4
1.40067
1.40001
1.40001
1.40001
1.40001
1.40001
1.40001
1.40001
1.40001
1.4
1.4011
1.40001
1.40001
1.40001
1.40001
1.40001
1.40001
1.40001
1.40001
1.4
1.4018
1.40002
1.40002
1.40002
1.40003
1.40003
1.40003
1.40004
1.40004
1.40005
1.40006
1.40002
1.40002
1.40002
1.40002
1.40003
1.40003
1.40004
1.40004
1.40005
1.40006
1.40002
1.40002
1.40002
1.40002
1.40003
1.40003
1.40003
1.40004
1.40005
1.40006
1.40002
1.40002
1.40002
1.40002
1.40002
1.40003
1.40003
1.40004
1.40005
1.40005
1.40002
1.40002
1.40002
1.40002
1.40002
1.40003
1.40003
1.40004
1.40005
1.40006
1.40002
1.40002
1.40002
1.40002
1.40002
1.40003
1.40003
1.40004
1.40004
1.40006
1.40002
1.40002
1.40002
1.40002
1.40002
1.40003
1.40003
1.40004
1.40004
1.40006
1.40002
1.40002
1.40002
1.40002
1.40003
1.40003
1.40003
1.40004
1.40005
1.40007
1.40002
1.40002
1.40002
1.40003
1.40003
1.40004
1.40004
1.40005
1.40006
1.40009
1.40003
1.40003
1.40003
1.40004
1.40004
1.40005
1.40006
1.40007
1.40008
1.40012
1.40004
1.40004
1.40005
1.40006
1.40006
1.40007
1.40009
1.4001
1.40012
1.40018
1.40006
1.40007
1.40008
1.40009
1.4001
1.40011
1.40013
1.40016
1.40019
1.40028
1.4001
1.40011
1.40012
1.40013
1.40015
1.40018
1.40021
1.40026
1.40031
1.40046
1.40016
1.40017
1.40019
1.40022
1.40025
1.4003
1.40035
1.40044
1.40053
1.40073
1.40025
1.40028
1.40031
1.40036
1.40042
1.4005
1.4006
1.40073
1.40092
1.40111
1.40041
1.40046
1.40053
1.40061
1.40071
1.40084
1.40103
1.40123
1.4016
1.40188
1.4007
1.40077
1.40089
1.40102
1.40121
1.40141
1.40173
1.40205
1.40271
1.40313
1.40116
1.40129
1.40148
1.4017
1.402
1.40235
1.40287
1.40344
1.40443
1.40499
1.40191
1.40212
1.40243
1.40279
1.40328
1.40385
1.40466
1.40555
1.40693
1.40762
1.40309
1.40344
1.40392
1.40453
1.40529
1.40622
1.40737
1.40877
1.41029
1.41687
)
;

boundaryField
{
    inlet
    {
        type            calculated;
        value           uniform 1.40001;
    }
    outlet
    {
        type            calculated;
        value           nonuniform List<scalar> 
100
(
2.98338
2.78664
2.59771
2.47875
2.40639
2.37842
2.36797
2.37515
2.39895
2.41758
2.44576
2.47025
2.50684
2.54076
2.56154
2.58672
2.60712
2.6205
2.66342
2.62374
2.70867
2.77732
2.84213
2.90542
2.96459
3.02147
3.07399
3.12094
3.1586
3.18351
3.1988
3.20927
3.22191
3.2284
3.22907
3.22649
3.21769
3.19637
3.16365
3.11511
2.63636
2.54458
2.43206
2.30357
2.18759
2.11261
2.08107
2.0729
2.06855
2.06712
2.06567
2.0672
2.06908
2.08298
2.1151
2.18876
2.30025
2.42919
2.54951
2.63685
3.1149
3.16332
3.19633
3.21773
3.22673
3.22938
3.22821
3.22147
3.20942
3.19951
3.1847
3.15928
3.12022
3.07277
3.02144
2.96583
2.90569
2.84028
2.77735
2.713
2.62359
2.66329
2.6204
2.60702
2.58662
2.56144
2.5407
2.50679
2.4702
2.44572
2.41754
2.39889
2.37509
2.36788
2.37833
2.40627
2.4786
2.59779
2.78687
2.98349
)
;
    }
    triangle
    {
        type            calculated;
        value           nonuniform List<scalar> 
40
(
3.72164
4.2263
4.13163
4.07998
4.02757
3.97664
3.89457
3.76943
3.60223
3.32091
0.839476
0.898719
0.925563
0.979021
1.02093
1.04174
1.04354
1.03938
1.02925
1.02022
1.02013
1.02898
1.03883
1.0428
1.04083
1.0199
0.978001
0.924531
0.897755
0.838427
3.7216
4.22616
4.13147
4.07981
4.02738
3.97646
3.89439
3.76926
3.60208
3.32083
)
;
    }
    top
    {
        type            symmetryPlane;
    }
    bottom
    {
        type            symmetryPlane;
    }
    defaultFaces
    {
        type            empty;
    }
}


// ************************************************************************* //
