/*--------------------------------*- C++ -*----------------------------------*\
  =========                 |
  \\      /  F ield         | OpenFOAM: The Open Source CFD Toolbox
   \\    /   O peration     | Website:  https://openfoam.org
    \\  /    A nd           | Version:  7
     \\/     M anipulation  |
\*---------------------------------------------------------------------------*/
FoamFile
{
    version     2.0;
    format      ascii;
    class       volScalarField;
    location    "0.9";
    object      rho;
}
// * * * * * * * * * * * * * * * * * * * * * * * * * * * * * * * * * * * * * //

dimensions      [1 -3 0 0 0 0 0];

internalField   nonuniform List<scalar> 
2600
(
0.839324
0.796401
0.821052
0.9404
1.22261
1.45447
1.74815
2.10274
2.28176
2.63581
0.898594
0.793394
0.812103
0.934522
1.20939
1.42788
1.71193
2.0756
2.23411
2.54987
0.925425
0.802896
0.816173
0.932333
1.18021
1.39569
1.67684
2.02106
2.14015
2.43011
0.978899
0.838202
0.829737
0.932789
1.1439
1.36233
1.65272
1.96892
2.0431
2.29868
1.02079
0.864768
0.837898
0.925307
1.11391
1.34239
1.63771
1.91993
1.95758
2.18735
1.04159
0.876742
0.843381
0.921658
1.10633
1.34092
1.6253
1.85546
1.89031
2.11568
1.04339
0.873346
0.841843
0.923379
1.12164
1.35597
1.61446
1.79737
1.84499
2.08104
1.03923
0.866064
0.841652
0.938033
1.14751
1.37547
1.60175
1.75328
1.82303
2.07003
1.02913
0.854658
0.837497
0.957924
1.19061
1.40891
1.58609
1.74408
1.82374
2.06817
1.02015
0.847947
0.83884
0.971588
1.2122
1.41912
1.58261
1.74622
1.82226
2.06772
1.0201
0.847928
0.838802
0.970842
1.2122
1.41459
1.59922
1.7346
1.81933
2.06452
1.02896
0.85465
0.837549
0.957201
1.19181
1.40302
1.60746
1.74319
1.81787
2.06646
1.03887
0.865943
0.841509
0.937705
1.14686
1.37693
1.60106
1.76038
1.82896
2.07176
1.04289
0.873097
0.841527
0.92375
1.12159
1.36005
1.6077
1.78722
1.84306
2.08263
1.04096
0.876478
0.843409
0.922336
1.1077
1.34207
1.6171
1.84555
1.88336
2.11177
1.02004
0.864444
0.838193
0.926349
1.11703
1.34232
1.63049
1.92036
1.95888
2.18868
0.97813
0.837984
0.83003
0.9332
1.1485
1.35952
1.65569
1.9934
2.05695
2.30378
0.924663
0.802611
0.816374
0.932191
1.18047
1.39077
1.6891
2.03217
2.14466
2.43044
0.897872
0.7932
0.81255
0.934831
1.20641
1.43018
1.71898
2.05727
2.21363
2.54442
0.838571
0.796187
0.821498
0.941346
1.21982
1.45956
1.74162
2.08573
2.27622
2.63675
1.15248
0.812164
0.844623
0.94914
1.22432
1.47869
1.76468
2.10951
2.31844
2.71103
1.52643
0.864254
0.884442
0.959654
1.22689
1.49397
1.79038
2.11424
2.33444
2.77529
1.80526
0.988838
0.911702
0.970043
1.21926
1.50614
1.81443
2.10808
2.34082
2.83938
2.06342
1.17324
0.92987
0.987946
1.20842
1.51267
1.83729
2.10148
2.35016
2.90479
2.33273
1.34534
0.968975
1.02297
1.19268
1.51277
1.85977
2.09938
2.36971
2.96442
2.58967
1.53772
1.04767
1.0592
1.17015
1.50832
1.87773
2.10292
2.40218
3.02007
2.84977
1.74325
1.15819
1.0833
1.16969
1.50263
1.88793
2.113
2.4462
3.0719
3.055
1.92714
1.29554
1.12405
1.17782
1.4956
1.89086
2.12858
2.50202
3.1195
3.22886
2.10636
1.44237
1.19442
1.19593
1.4736
1.88137
2.14876
2.57146
3.15847
3.36173
2.27709
1.57789
1.27825
1.21164
1.43949
1.86212
2.1689
2.65186
3.1841
3.46787
2.43433
1.72161
1.38116
1.24263
1.40304
1.83178
2.18942
2.73716
3.1993
3.55461
2.57597
1.86948
1.48228
1.27953
1.37563
1.79029
2.20814
2.81295
3.20944
3.62129
2.6952
2.01605
1.58302
1.32738
1.39195
1.72772
2.20987
2.8644
3.22149
3.69276
2.80282
2.14819
1.68987
1.38954
1.40357
1.65467
2.19523
2.89154
3.22819
3.73485
2.89445
2.27372
1.78833
1.48365
1.40393
1.57967
2.15792
2.899
3.2294
3.78533
2.97813
2.38711
1.8863
1.58608
1.408
1.51336
2.07958
2.8788
3.22672
3.76634
3.06219
2.49485
1.98061
1.67309
1.45806
1.49278
1.95312
2.81689
3.21757
3.67454
3.15477
2.60222
2.06835
1.75636
1.52493
1.49792
1.83016
2.71788
3.19615
3.60498
3.25833
2.70703
2.14987
1.8283
1.59284
1.51922
1.76871
2.58646
3.16289
3.40162
3.35364
2.79938
2.22362
1.89944
1.65009
1.55943
1.75898
2.4245
3.11436
3.72164
4.22629
4.13164
4.07999
4.02757
3.97665
3.89457
3.76943
3.60223
3.32091
3.44821
4.15074
4.084
4.0817
4.05657
4.00665
3.9015
3.74731
3.5579
3.2368
2.59483
4.39895
4.59014
4.52014
4.39263
4.25499
4.09493
3.91976
3.704
3.38482
1.83404
3.04471
4.81652
4.78494
4.65706
4.50332
4.32613
4.13327
3.86637
3.57287
1.6134
1.73005
3.57504
4.8905
4.84396
4.76674
4.63012
4.43066
4.1016
3.84249
1.5883
1.5913
1.87753
3.98415
4.93555
4.86573
4.74862
4.60068
4.26029
4.0558
1.55999
1.56893
1.57523
2.19545
4.49555
4.86836
4.78256
4.64491
4.36619
4.19205
1.52666
1.53426
1.5428
1.56057
2.97409
4.61027
4.7449
4.63051
4.40803
4.24748
1.49949
1.50361
1.5084
1.51367
1.67021
3.61003
4.67737
4.64138
4.46792
4.30642
1.48043
1.4863
1.49336
1.50186
1.5089
2.08416
4.22603
4.64423
4.51518
4.31245
1.46124
1.46499
1.47015
1.47577
1.48066
1.5049
3.03066
4.52784
4.49496
4.3148
1.44975
1.45217
1.45459
1.45799
1.46185
1.46704
1.80818
3.9338
4.47626
4.31658
1.43679
1.43964
1.4428
1.447
1.45116
1.45502
1.47047
2.83399
4.32224
4.28633
1.42642
1.42851
1.4317
1.43497
1.43908
1.44284
1.44809
1.78485
3.83207
4.29477
1.41988
1.42119
1.42303
1.42522
1.42858
1.43225
1.43636
1.45823
2.91975
4.16777
1.41502
1.41607
1.41721
1.41885
1.42083
1.4238
1.42728
1.43445
1.97204
3.90813
1.41158
1.41252
1.41359
1.41493
1.41638
1.41858
1.42102
1.42462
1.49185
3.22794
1.4087
1.40954
1.41057
1.41182
1.41313
1.41481
1.4168
1.41903
1.42879
2.51014
1.40639
1.40704
1.40791
1.40895
1.41013
1.41148
1.41316
1.41493
1.41952
1.88872
1.4046
1.4051
1.40578
1.40663
1.40765
1.4089
1.41031
1.41201
1.41452
1.50882
1.40001
1.40001
1.40001
1.40001
1.40001
1.40001
1.40001
1.40001
1.4
1.53585
1.40001
1.40001
1.40001
1.40001
1.40001
1.40001
1.40001
1.40001
1.4
1.52269
1.40001
1.40001
1.40001
1.40001
1.40001
1.40001
1.40001
1.40001
1.4
1.5585
1.40001
1.40001
1.40001
1.40001
1.40001
1.40001
1.40001
1.40001
1.4
1.55284
1.40001
1.40001
1.40001
1.40001
1.40001
1.40001
1.40001
1.40001
1.4
1.54163
1.40001
1.40001
1.40001
1.40001
1.40001
1.40001
1.40001
1.40001
1.4
1.5272
1.40001
1.40001
1.40001
1.40001
1.40001
1.40001
1.40001
1.40001
1.4
1.50675
1.40001
1.40001
1.40001
1.40001
1.40001
1.40001
1.40001
1.40001
1.4
1.48171
1.40001
1.40001
1.40001
1.40001
1.40001
1.40001
1.40001
1.40001
1.4
1.46779
1.40001
1.40001
1.40001
1.40001
1.40001
1.40001
1.40001
1.40001
1.4
1.45194
1.40001
1.40001
1.40001
1.40001
1.40001
1.40001
1.40001
1.40001
1.4
1.4392
1.40001
1.40001
1.40001
1.40001
1.40001
1.40001
1.40001
1.40001
1.4
1.43314
1.40001
1.40001
1.40001
1.40001
1.40001
1.40001
1.40001
1.40001
1.4
1.4232
1.40001
1.40001
1.40001
1.40001
1.40001
1.40001
1.40001
1.40001
1.4
1.41634
1.40001
1.40001
1.40001
1.40001
1.40001
1.40001
1.40001
1.40001
1.4
1.41274
1.40001
1.40001
1.40001
1.40001
1.40001
1.40001
1.40001
1.40001
1.4
1.40966
1.40001
1.40001
1.40001
1.40001
1.40001
1.40001
1.40001
1.40001
1.4
1.40715
1.40001
1.40001
1.40001
1.40001
1.40001
1.40001
1.40001
1.40001
1.4
1.40522
1.40001
1.40001
1.40001
1.40001
1.40001
1.40001
1.40001
1.40001
1.4
1.40378
1.40001
1.40001
1.40001
1.40001
1.40001
1.40001
1.40001
1.40001
1.4
1.40269
1.40001
1.40001
1.40001
1.40001
1.40001
1.40001
1.40001
1.40001
1.4
1.40269
1.40001
1.40001
1.40001
1.40001
1.40001
1.40001
1.40001
1.40001
1.4
1.40378
1.40001
1.40001
1.40001
1.40001
1.40001
1.40001
1.40001
1.40001
1.4
1.40522
1.40001
1.40001
1.40001
1.40001
1.40001
1.40001
1.40001
1.40001
1.4
1.40715
1.40001
1.40001
1.40001
1.40001
1.40001
1.40001
1.40001
1.40001
1.4
1.40966
1.40001
1.40001
1.40001
1.40001
1.40001
1.40001
1.40001
1.40001
1.4
1.41274
1.40001
1.40001
1.40001
1.40001
1.40001
1.40001
1.40001
1.40001
1.4
1.41634
1.40001
1.40001
1.40001
1.40001
1.40001
1.40001
1.40001
1.40001
1.4
1.4232
1.40001
1.40001
1.40001
1.40001
1.40001
1.40001
1.40001
1.40001
1.4
1.43315
1.40001
1.40001
1.40001
1.40001
1.40001
1.40001
1.40001
1.40001
1.4
1.43921
1.40001
1.40001
1.40001
1.40001
1.40001
1.40001
1.40001
1.40001
1.4
1.45195
1.40001
1.40001
1.40001
1.40001
1.40001
1.40001
1.40001
1.40001
1.4
1.4678
1.40001
1.40001
1.40001
1.40001
1.40001
1.40001
1.40001
1.40001
1.4
1.48172
1.40001
1.40001
1.40001
1.40001
1.40001
1.40001
1.40001
1.40001
1.4
1.50676
1.40001
1.40001
1.40001
1.40001
1.40001
1.40001
1.40001
1.40001
1.4
1.52721
1.40001
1.40001
1.40001
1.40001
1.40001
1.40001
1.40001
1.40001
1.4
1.54163
1.40001
1.40001
1.40001
1.40001
1.40001
1.40001
1.40001
1.40001
1.4
1.55284
1.40001
1.40001
1.40001
1.40001
1.40001
1.40001
1.40001
1.40001
1.4
1.5585
1.40001
1.40001
1.40001
1.40001
1.40001
1.40001
1.40001
1.40001
1.4
1.52267
1.40001
1.40001
1.40001
1.40001
1.40001
1.40001
1.40001
1.40001
1.4
1.53585
1.4046
1.4051
1.40578
1.40663
1.40765
1.4089
1.41032
1.41202
1.41452
1.50839
1.4064
1.40704
1.40791
1.40895
1.41014
1.41149
1.41316
1.41494
1.41952
1.88784
1.4087
1.40955
1.41058
1.41183
1.41314
1.41481
1.4168
1.41904
1.42879
2.50924
1.41159
1.41253
1.41359
1.41493
1.41639
1.41859
1.42103
1.42463
1.49165
3.22682
1.41502
1.41608
1.41722
1.41886
1.42083
1.42381
1.42729
1.43446
1.97118
3.90723
1.41988
1.4212
1.42303
1.42522
1.42859
1.43225
1.43637
1.45821
2.91866
4.16721
1.42642
1.42852
1.4317
1.43498
1.43909
1.44285
1.44809
1.78441
3.8313
4.29455
1.43679
1.43964
1.44281
1.44701
1.45117
1.45503
1.47047
2.83314
4.32213
4.28627
1.44976
1.45218
1.4546
1.45799
1.46186
1.46704
1.80792
3.93318
4.47612
4.31655
1.46125
1.465
1.47016
1.47579
1.48067
1.5049
3.03013
4.52766
4.49489
4.31476
1.48045
1.48631
1.49338
1.50188
1.50891
2.08389
4.22565
4.64421
4.51522
4.31246
1.4995
1.50362
1.50842
1.51368
1.67013
3.60968
4.67729
4.64136
4.46795
4.30645
1.52668
1.53427
1.54282
1.56059
2.97378
4.6101
4.74488
4.63049
4.40798
4.24748
1.55999
1.56894
1.57524
2.19542
4.49532
4.86834
4.78258
4.64485
4.36608
4.19202
1.58831
1.59131
1.87759
3.98409
4.93548
4.86573
4.74856
4.60059
4.26022
4.05578
1.61341
1.73013
3.57513
4.89042
4.84386
4.76666
4.63003
4.43055
4.10156
3.84246
1.83417
3.04489
4.81643
4.78475
4.65688
4.50317
4.32598
4.1331
3.86627
3.57284
2.59509
4.39894
4.58992
4.51993
4.39243
4.2548
4.09476
3.91957
3.70386
3.38478
3.44815
4.15056
4.08377
4.08149
4.05637
4.00646
3.9013
3.74712
3.55775
3.23674
3.72159
4.22615
4.13145
4.0798
4.02737
3.97645
3.89439
3.76926
3.60208
3.32084
3.40069
3.35347
2.7995
2.22363
1.89944
1.65015
1.55954
1.75908
2.42462
3.11465
3.60446
3.25831
2.70713
2.14985
1.82828
1.59293
1.51934
1.76898
2.58677
3.16326
3.67422
3.15476
2.60226
2.06827
1.75632
1.525
1.49799
1.83056
2.71827
3.1961
3.76606
3.06211
2.49482
1.98047
1.67309
1.45808
1.49282
1.95314
2.81698
3.2174
3.78516
2.978
2.38702
1.88609
1.58603
1.40796
1.51317
2.0796
2.87881
3.22625
3.73473
2.89428
2.27354
1.78805
1.48364
1.40381
1.57954
2.15816
2.89901
3.22895
3.69268
2.80262
2.14802
1.68947
1.3895
1.40352
1.65474
2.19557
2.892
3.22839
3.62121
2.69501
2.0159
1.58252
1.32738
1.39209
1.72784
2.21036
2.86556
3.2218
3.5545
2.5758
1.86922
1.48187
1.27961
1.37583
1.79048
2.20884
2.81408
3.20909
3.46779
2.43407
1.72151
1.38065
1.24252
1.40314
1.83215
2.18996
2.73731
3.19862
3.36162
2.27692
1.57767
1.27789
1.21119
1.43945
1.86279
2.16857
2.6504
3.18326
3.22878
2.1062
1.44216
1.19412
1.19542
1.47387
1.88164
2.1485
2.57013
3.15802
3.05493
1.92702
1.29554
1.12357
1.17727
1.49644
1.89083
2.12743
2.50231
3.11985
2.84972
1.74317
1.1583
1.08265
1.1689
1.50348
1.8876
2.11114
2.44684
3.07291
2.58955
1.53793
1.04761
1.05847
1.16895
1.50822
1.87836
2.1018
2.4011
3.02079
2.33266
1.34566
0.968647
1.02242
1.19153
1.51132
1.86079
2.10264
2.36851
2.9638
2.06336
1.17383
0.929196
0.987424
1.20787
1.51059
1.83503
2.10558
2.35242
2.904
1.80525
0.989612
0.911139
0.969617
1.21906
1.50665
1.80989
2.1076
2.34625
2.84078
1.52661
0.864614
0.884242
0.958983
1.22627
1.49707
1.79102
2.10555
2.33178
2.77718
1.15295
0.812367
0.844367
0.948021
1.22384
1.47827
1.77414
2.10506
2.30684
2.7086
1.40016
1.39931
1.55014
4.24704
5.33808
4.73603
4.11071
3.61925
3.22904
2.62396
1.40015
1.39884
1.53773
4.01983
5.34066
4.7175
4.10937
3.63537
3.2361
2.66362
1.40014
1.39802
1.58147
3.92372
5.34566
4.6687
4.08044
3.61009
3.22596
2.62069
1.40013
1.39684
1.62671
3.76027
5.29876
4.62123
4.04105
3.589
3.21679
2.60733
1.4001
1.39532
1.69269
3.75471
5.20943
4.56885
3.99117
3.55988
3.18754
2.58692
1.39995
1.39319
1.80366
3.6458
5.00129
4.47856
3.92887
3.51748
3.1503
2.56173
1.39958
1.39156
1.98406
3.50212
4.68215
4.36371
3.86656
3.47395
3.11139
2.54091
1.3989
1.39921
2.26611
3.41279
4.2953
4.25001
3.79636
3.42182
3.05734
2.50692
1.39813
1.45458
2.65542
3.34189
3.92745
4.14032
3.70106
3.34637
2.98684
2.47029
1.39717
1.60538
2.96557
3.26662
3.54312
3.96363
3.61411
3.27369
2.92124
2.44574
1.39594
1.82372
3.14053
3.19084
3.13892
3.67792
3.54751
3.22128
2.86086
2.41748
1.39427
2.06913
3.21203
3.13859
2.81423
3.28337
3.45785
3.13335
2.79603
2.39872
1.39301
2.32983
3.27126
3.10504
2.64182
2.88525
3.32216
3.01438
2.7188
2.37476
1.39452
2.62524
3.3125
3.08342
2.5439
2.55103
3.07524
2.88207
2.65174
2.36742
1.48841
2.92293
3.3307
3.04865
2.48544
2.3207
2.73295
2.75901
2.57343
2.37782
1.76277
3.13743
3.2665
2.96113
2.43761
2.16883
2.38404
2.63355
2.45713
2.40577
2.0705
3.23119
3.17499
2.82445
2.39207
2.05219
2.13734
2.4809
2.34614
2.47819
2.3018
3.29106
3.08975
2.66822
2.25433
1.93208
1.95554
2.27774
2.23849
2.59696
2.53662
3.34857
3.0272
2.50813
2.11486
1.82922
1.80963
2.04493
2.19371
2.78579
2.95463
3.40267
2.92206
2.33676
1.99436
1.73333
1.66506
1.85925
2.22246
2.98275
2.95561
3.40277
2.92192
2.33667
1.99429
1.7332
1.66494
1.85911
2.22242
2.98282
2.53733
3.34868
3.0271
2.50793
2.11469
1.82909
1.80953
2.04485
2.19378
2.78617
2.30252
3.29131
3.0896
2.66793
2.25415
1.932
1.95548
2.27768
2.23853
2.59724
2.07117
3.23157
3.17476
2.82408
2.39161
2.05204
2.13727
2.48093
2.34608
2.47816
1.76343
3.13782
3.26626
2.9608
2.43748
2.16874
2.38396
2.63353
2.45713
2.40575
1.48893
2.92385
3.3307
3.04862
2.48541
2.32068
2.73284
2.75898
2.57346
2.37785
1.39456
2.62635
3.31281
3.08339
2.54381
2.55091
3.07512
2.88204
2.65175
2.36745
1.39299
2.33079
3.27155
3.10494
2.64167
2.88498
3.32205
3.0143
2.71881
2.3748
1.39426
2.06991
3.21224
3.13848
2.81389
3.28299
3.45776
3.13327
2.79601
2.39874
1.39593
1.82442
3.14092
3.19067
3.13843
3.6776
3.54743
3.22122
2.86085
2.41752
1.39717
1.60597
2.96627
3.2665
3.54268
3.96343
3.61403
3.27367
2.92126
2.44577
1.39813
1.45488
2.65644
3.3419
3.92716
4.14026
3.70103
3.34639
2.98688
2.47033
1.3989
1.39926
2.26699
3.41299
4.29519
4.25003
3.79641
3.42191
3.05743
2.50695
1.39958
1.39155
1.98461
3.5024
4.68207
4.36377
3.86668
3.4741
3.11152
2.54095
1.39995
1.39318
1.80403
3.64616
5.00132
4.47874
3.92905
3.51767
3.15045
2.5618
1.4001
1.39532
1.69296
3.75524
5.20965
4.56913
3.9914
3.56011
3.18771
2.58698
1.40013
1.39684
1.62693
3.76098
5.29909
4.62155
4.04133
3.58926
3.21697
2.60738
1.40014
1.39802
1.58167
3.92479
5.34608
4.66898
4.08072
3.61037
3.22618
2.62076
1.40015
1.39884
1.53797
4.02113
5.34111
4.71776
4.10963
3.63564
3.23633
2.6637
1.40016
1.39931
1.55035
4.24854
5.33854
4.73626
4.11095
3.61955
3.2293
2.62405
1.40309
1.40344
1.40392
1.40453
1.40529
1.40622
1.40737
1.40877
1.41029
1.4169
1.40191
1.40212
1.40243
1.40279
1.40328
1.40385
1.40465
1.40555
1.40693
1.40761
1.40116
1.40129
1.40148
1.4017
1.402
1.40235
1.40286
1.40344
1.40443
1.40499
1.4007
1.40077
1.40089
1.40102
1.40121
1.40141
1.40173
1.40205
1.40271
1.40313
1.40041
1.40046
1.40052
1.40061
1.40071
1.40084
1.40103
1.40123
1.4016
1.40188
1.40025
1.40028
1.40031
1.40036
1.40042
1.4005
1.4006
1.40073
1.40092
1.40111
1.40016
1.40017
1.40019
1.40022
1.40025
1.4003
1.40035
1.40044
1.40053
1.40073
1.4001
1.40011
1.40012
1.40013
1.40015
1.40018
1.40021
1.40026
1.40031
1.40046
1.40006
1.40007
1.40008
1.40009
1.4001
1.40011
1.40013
1.40016
1.40019
1.40028
1.40004
1.40004
1.40005
1.40006
1.40006
1.40007
1.40009
1.4001
1.40012
1.40018
1.40003
1.40003
1.40003
1.40004
1.40004
1.40005
1.40006
1.40007
1.40008
1.40012
1.40002
1.40002
1.40002
1.40003
1.40003
1.40004
1.40004
1.40005
1.40006
1.40008
1.40002
1.40002
1.40002
1.40002
1.40003
1.40003
1.40003
1.40004
1.40005
1.40007
1.40002
1.40002
1.40002
1.40002
1.40002
1.40003
1.40003
1.40004
1.40004
1.40006
1.40002
1.40002
1.40002
1.40002
1.40002
1.40003
1.40003
1.40004
1.40004
1.40006
1.40002
1.40002
1.40002
1.40002
1.40002
1.40003
1.40003
1.40004
1.40005
1.40006
1.40002
1.40002
1.40002
1.40002
1.40002
1.40003
1.40003
1.40004
1.40005
1.40005
1.40002
1.40002
1.40002
1.40002
1.40003
1.40003
1.40003
1.40004
1.40005
1.40006
1.40002
1.40002
1.40002
1.40002
1.40003
1.40003
1.40004
1.40004
1.40005
1.40006
1.40002
1.40002
1.40002
1.40003
1.40003
1.40003
1.40004
1.40004
1.40005
1.40006
1.40001
1.40001
1.40001
1.40001
1.40001
1.40001
1.40001
1.40001
1.4
1.40179
1.40001
1.40001
1.40001
1.40001
1.40001
1.40001
1.40001
1.40001
1.4
1.40109
1.40001
1.40001
1.40001
1.40001
1.40001
1.40001
1.40001
1.40001
1.4
1.40067
1.40001
1.40001
1.40001
1.40001
1.40001
1.40001
1.40001
1.40001
1.4
1.4004
1.40001
1.40001
1.40001
1.40001
1.40001
1.40001
1.40001
1.40001
1.4
1.40024
1.40001
1.40001
1.40001
1.40001
1.40001
1.40001
1.40001
1.40001
1.4
1.40015
1.40001
1.40001
1.40001
1.40001
1.40001
1.40001
1.40001
1.40001
1.4
1.40009
1.40001
1.40001
1.40001
1.40001
1.40001
1.40001
1.40001
1.40001
1.4
1.40006
1.40001
1.40001
1.40001
1.40001
1.40001
1.40001
1.40001
1.40001
1.4
1.40004
1.40001
1.40001
1.40001
1.40001
1.40001
1.40001
1.40001
1.40001
1.4
1.40002
1.40001
1.40001
1.40001
1.40001
1.40001
1.40001
1.40001
1.40001
1.4
1.40002
1.40001
1.40001
1.40001
1.40001
1.40001
1.40001
1.40001
1.40001
1.4
1.40001
1.40001
1.40001
1.40001
1.40001
1.40001
1.40001
1.40001
1.40001
1.4
1.40001
1.40001
1.40001
1.40001
1.40001
1.40001
1.40001
1.40001
1.40001
1.4
1.40001
1.40001
1.40001
1.40001
1.40001
1.40001
1.40001
1.40001
1.40001
1.4
1.40001
1.40001
1.40001
1.40001
1.40001
1.40001
1.40001
1.40001
1.40001
1.4
1.40001
1.40001
1.40001
1.40001
1.40001
1.40001
1.40001
1.40001
1.40001
1.40001
1.40001
1.40001
1.40001
1.40001
1.40001
1.40001
1.40001
1.40001
1.40001
1.40001
1.40001
1.40001
1.40001
1.40001
1.40001
1.40001
1.40001
1.40001
1.40001
1.40001
1.40001
1.40001
1.40001
1.40001
1.40001
1.40001
1.40001
1.40001
1.40001
1.40001
1.40001
1.40001
1.40001
1.40001
1.40001
1.40001
1.40001
1.40001
1.40001
1.40001
1.40001
1.40001
1.40001
1.40001
1.40001
1.40001
1.40001
1.40001
1.40001
1.40001
1.40001
1.40001
1.40001
1.40001
1.40001
1.40001
1.40001
1.40001
1.40001
1.40001
1.40001
1.40001
1.40001
1.40001
1.40001
1.40001
1.40001
1.40001
1.40001
1.40001
1.40001
1.40001
1.40001
1.40001
1.40001
1.40001
1.40001
1.40001
1.40001
1.4
1.40001
1.40001
1.40001
1.40001
1.40001
1.40001
1.40001
1.40001
1.40001
1.4
1.40001
1.40001
1.40001
1.40001
1.40001
1.40001
1.40001
1.40001
1.40001
1.4
1.40001
1.40001
1.40001
1.40001
1.40001
1.40001
1.40001
1.40001
1.40001
1.4
1.40001
1.40001
1.40001
1.40001
1.40001
1.40001
1.40001
1.40001
1.40001
1.4
1.40001
1.40001
1.40001
1.40001
1.40001
1.40001
1.40001
1.40001
1.40001
1.4
1.40002
1.40001
1.40001
1.40001
1.40001
1.40001
1.40001
1.40001
1.40001
1.4
1.40002
1.40001
1.40001
1.40001
1.40001
1.40001
1.40001
1.40001
1.40001
1.4
1.40004
1.40001
1.40001
1.40001
1.40001
1.40001
1.40001
1.40001
1.40001
1.4
1.40006
1.40001
1.40001
1.40001
1.40001
1.40001
1.40001
1.40001
1.40001
1.4
1.40009
1.40001
1.40001
1.40001
1.40001
1.40001
1.40001
1.40001
1.40001
1.4
1.40015
1.40001
1.40001
1.40001
1.40001
1.40001
1.40001
1.40001
1.40001
1.4
1.40024
1.40001
1.40001
1.40001
1.40001
1.40001
1.40001
1.40001
1.40001
1.4
1.4004
1.40001
1.40001
1.40001
1.40001
1.40001
1.40001
1.40001
1.40001
1.4
1.40067
1.40001
1.40001
1.40001
1.40001
1.40001
1.40001
1.40001
1.40001
1.4
1.4011
1.40001
1.40001
1.40001
1.40001
1.40001
1.40001
1.40001
1.40001
1.4
1.4018
1.40002
1.40002
1.40002
1.40003
1.40003
1.40003
1.40004
1.40004
1.40005
1.40006
1.40002
1.40002
1.40002
1.40002
1.40003
1.40003
1.40004
1.40004
1.40005
1.40006
1.40002
1.40002
1.40002
1.40002
1.40003
1.40003
1.40003
1.40004
1.40005
1.40006
1.40002
1.40002
1.40002
1.40002
1.40002
1.40003
1.40003
1.40004
1.40005
1.40005
1.40002
1.40002
1.40002
1.40002
1.40002
1.40003
1.40003
1.40004
1.40005
1.40006
1.40002
1.40002
1.40002
1.40002
1.40002
1.40003
1.40003
1.40004
1.40004
1.40006
1.40002
1.40002
1.40002
1.40002
1.40002
1.40003
1.40003
1.40004
1.40004
1.40006
1.40002
1.40002
1.40002
1.40002
1.40003
1.40003
1.40003
1.40004
1.40005
1.40007
1.40002
1.40002
1.40002
1.40003
1.40003
1.40004
1.40004
1.40005
1.40006
1.40009
1.40003
1.40003
1.40003
1.40004
1.40004
1.40005
1.40006
1.40007
1.40008
1.40012
1.40004
1.40004
1.40005
1.40006
1.40006
1.40007
1.40009
1.4001
1.40012
1.40018
1.40006
1.40007
1.40008
1.40009
1.4001
1.40011
1.40013
1.40016
1.40019
1.40028
1.4001
1.40011
1.40012
1.40013
1.40015
1.40018
1.40021
1.40026
1.40031
1.40046
1.40016
1.40017
1.40019
1.40022
1.40025
1.4003
1.40035
1.40044
1.40053
1.40073
1.40025
1.40028
1.40031
1.40036
1.40042
1.4005
1.4006
1.40073
1.40092
1.40111
1.40041
1.40046
1.40053
1.40061
1.40071
1.40084
1.40103
1.40123
1.4016
1.40188
1.4007
1.40077
1.40089
1.40102
1.40121
1.40141
1.40173
1.40205
1.40271
1.40313
1.40116
1.40129
1.40148
1.4017
1.402
1.40235
1.40287
1.40344
1.40443
1.40499
1.40191
1.40212
1.40243
1.40279
1.40328
1.40385
1.40466
1.40555
1.40693
1.40762
1.40309
1.40344
1.40392
1.40453
1.40529
1.40622
1.40737
1.40877
1.41029
1.41687
)
;

boundaryField
{
    inlet
    {
        type            calculated;
        value           uniform 1.40001;
    }
    outlet
    {
        type            calculated;
        value           nonuniform List<scalar> 
100
(
2.98348
2.78694
2.59789
2.47867
2.40632
2.37839
2.36794
2.37514
2.39893
2.41758
2.44575
2.47024
2.50683
2.54076
2.56153
2.5867
2.6071
2.62049
2.6634
2.62372
2.71194
2.77642
2.84055
2.90593
2.96547
3.02105
3.07279
3.1203
3.15913
3.18454
3.19947
3.20947
3.22148
3.22817
3.22943
3.22681
3.21777
3.19634
3.16328
3.11485
2.63653
2.55037
2.43031
2.29892
2.1876
2.11595
2.08141
2.07034
2.06848
2.06809
2.06489
2.06692
2.07221
2.08288
2.11196
2.18886
2.30402
2.43086
2.54487
2.63732
3.11513
3.16364
3.19629
3.21758
3.22635
3.22898
3.22838
3.22181
3.20913
3.19879
3.18366
3.15866
3.12067
3.07382
3.02176
2.96485
2.90517
2.842
2.77826
2.70945
2.62362
2.66332
2.62042
2.60704
2.58664
2.56146
2.54071
2.5068
2.47021
2.44572
2.41753
2.3989
2.3751
2.36791
2.37836
2.40634
2.47869
2.59759
2.78657
2.98342
)
;
    }
    triangle
    {
        type            calculated;
        value           nonuniform List<scalar> 
40
(
3.72164
4.22629
4.13164
4.07999
4.02757
3.97665
3.89457
3.76943
3.60223
3.32091
0.839324
0.898594
0.925425
0.978899
1.02079
1.04159
1.04339
1.03923
1.02913
1.02015
1.0201
1.02896
1.03887
1.04289
1.04096
1.02004
0.97813
0.924663
0.897872
0.838571
3.72159
4.22615
4.13145
4.0798
4.02737
3.97645
3.89439
3.76926
3.60208
3.32084
)
;
    }
    top
    {
        type            symmetryPlane;
    }
    bottom
    {
        type            symmetryPlane;
    }
    defaultFaces
    {
        type            empty;
    }
}


// ************************************************************************* //
