/*--------------------------------*- C++ -*----------------------------------*\
  =========                 |
  \\      /  F ield         | OpenFOAM: The Open Source CFD Toolbox
   \\    /   O peration     | Website:  https://openfoam.org
    \\  /    A nd           | Version:  8
     \\/     M anipulation  |
\*---------------------------------------------------------------------------*/
FoamFile
{
    version     2.0;
    format      ascii;
    class       volScalarField;
    location    "0.9";
    object      T;
}
// * * * * * * * * * * * * * * * * * * * * * * * * * * * * * * * * * * * * * //

dimensions      [0 0 0 1 0 0 0];

internalField   nonuniform List<scalar> 
2600
(
1.81289
1.78068
1.65022
1.60433
1.71634
1.84269
1.81479
1.6754
1.5417
1.54666
1.87805
1.79606
1.68748
1.66522
1.77419
1.88567
1.85613
1.70129
1.58286
1.58644
1.81836
1.76348
1.70121
1.71692
1.84289
1.93934
1.89821
1.73905
1.64816
1.65232
1.72069
1.68925
1.69266
1.7637
1.92538
1.99628
1.93361
1.78378
1.72745
1.73503
1.65363
1.61115
1.67046
1.81306
2.0008
2.03356
1.95869
1.83567
1.81119
1.81364
1.63081
1.57416
1.66376
1.86069
2.04492
2.04616
1.97678
1.90059
1.88493
1.86665
1.62379
1.56088
1.66469
1.88032
2.05096
2.04579
1.99133
1.95804
1.93447
1.88943
1.62272
1.55549
1.66188
1.86552
2.01246
2.02046
2.00039
1.99799
1.96095
1.89441
1.62066
1.54924
1.64882
1.82498
1.96056
1.99191
2.00745
2.01448
1.96677
1.89256
1.61696
1.54522
1.64263
1.80364
1.93359
1.97707
2.00625
2.01566
1.96807
1.89065
1.6169
1.54506
1.64219
1.80291
1.93288
1.98102
1.99721
2.01891
1.96785
1.88992
1.62053
1.5491
1.64834
1.82507
1.95963
1.99602
1.99872
2.00879
1.96509
1.89149
1.62255
1.55546
1.66179
1.86507
2.01166
2.01902
1.99938
1.99425
1.95673
1.89277
1.62361
1.56097
1.66517
1.88137
2.05058
2.04371
1.99141
1.96336
1.93692
1.89073
1.63057
1.57426
1.6644
1.86216
2.04384
2.04528
1.98061
1.90379
1.88759
1.86812
1.65332
1.61114
1.67097
1.81448
1.99974
2.03307
1.96384
1.83786
1.81174
1.81399
1.72036
1.6892
1.69294
1.76429
1.92439
1.99758
1.93485
1.77579
1.72447
1.73369
1.81795
1.76299
1.70111
1.71694
1.84371
1.94292
1.89406
1.73103
1.64425
1.65158
1.87758
1.79543
1.68763
1.66619
1.77683
1.88587
1.85097
1.70383
1.58708
1.58782
1.81232
1.77997
1.65045
1.60608
1.71829
1.83946
1.81448
1.68268
1.54545
1.54681
1.89322
1.73785
1.58045
1.53729
1.65567
1.80089
1.78193
1.6589
1.51541
1.52563
1.90753
1.67886
1.50786
1.47286
1.59493
1.76518
1.75046
1.63779
1.49784
1.5186
1.88094
1.63753
1.44115
1.42291
1.53415
1.73092
1.72436
1.62319
1.48963
1.51879
1.84571
1.60754
1.3917
1.38447
1.47746
1.69678
1.70218
1.61073
1.48646
1.52271
1.80545
1.56924
1.36083
1.35435
1.42528
1.65958
1.68107
1.59727
1.48736
1.52923
1.76425
1.54621
1.34597
1.32326
1.37447
1.61396
1.65717
1.58168
1.49156
1.53647
1.73641
1.53138
1.33721
1.29654
1.33857
1.55728
1.63079
1.56512
1.49834
1.54337
1.71983
1.52173
1.33884
1.27842
1.30891
1.49634
1.60132
1.54626
1.50532
1.55002
1.72368
1.52406
1.34705
1.26757
1.28702
1.43713
1.56719
1.52533
1.51084
1.55675
1.73479
1.53235
1.35844
1.26038
1.27477
1.38347
1.52831
1.50376
1.51353
1.56398
1.75215
1.54599
1.37631
1.26505
1.26941
1.33774
1.48035
1.48529
1.51597
1.57141
1.77367
1.56417
1.39846
1.27765
1.26423
1.30081
1.4232
1.47032
1.52384
1.57799
1.79537
1.58382
1.42329
1.29644
1.26282
1.28176
1.3671
1.45346
1.53307
1.58368
1.81802
1.60656
1.44808
1.31956
1.26488
1.26146
1.32019
1.43647
1.54103
1.58673
1.835
1.62941
1.47476
1.34171
1.27552
1.24222
1.28001
1.41943
1.54655
1.58779
1.84718
1.65518
1.50284
1.36545
1.2922
1.23146
1.2456
1.39626
1.54935
1.58855
1.84999
1.68412
1.53345
1.39033
1.30949
1.23347
1.23106
1.36494
1.54883
1.58966
1.83583
1.71156
1.56602
1.41568
1.32908
1.24039
1.2302
1.3357
1.53899
1.59024
1.81627
1.73682
1.59729
1.44088
1.34725
1.25331
1.24071
1.32161
1.51437
1.5904
1.78729
1.76067
1.62337
1.46448
1.36706
1.26879
1.25964
1.32707
1.47741
1.58862
2.51322
2.65595
2.62006
2.59209
2.57641
2.5713
2.55936
2.53935
2.507
2.43127
2.18761
2.43489
2.46452
2.48914
2.50225
2.5109
2.50548
2.48775
2.45354
2.33903
1.6039
2.10281
2.28822
2.35133
2.37041
2.38276
2.39158
2.39273
2.37071
2.23865
1.1852
1.59468
2.0504
2.17264
2.18756
2.19805
2.21347
2.23604
2.22328
2.11524
1.08185
1.12804
1.74451
2.0775
2.07843
2.07726
2.08259
2.09944
2.08827
2.01153
1.06593
1.06529
1.18912
1.86595
2.04355
2.02515
2.01271
2.01273
1.99308
1.93783
1.05156
1.05352
1.05479
1.31248
1.94357
2.01221
1.99899
1.98383
1.95366
1.91022
1.03937
1.04126
1.04319
1.04888
1.58598
1.99342
2.00141
1.98347
1.94443
1.90195
1.0302
1.03123
1.03239
1.03377
1.10073
1.82941
2.01728
1.99741
1.95173
1.91026
1.02387
1.02545
1.02734
1.02951
1.03162
1.28501
1.95259
1.9968
1.96657
1.92202
1.01801
1.01903
1.02043
1.02196
1.02324
1.03228
1.67026
2.00351
1.98293
1.93713
1.01446
1.01513
1.01579
1.01672
1.01775
1.0194
1.16519
1.91759
1.98483
1.95173
1.01062
1.01142
1.01231
1.01347
1.01464
1.01567
1.02134
1.60554
1.97289
1.95998
1.00761
1.0082
1.0091
1.01002
1.01118
1.0122
1.01388
1.15065
1.88687
1.96284
1.00571
1.00608
1.0066
1.00722
1.00817
1.00921
1.01034
1.01822
1.64797
1.94597
1.00431
1.00461
1.00493
1.0054
1.00595
1.0068
1.00777
1.00984
1.22238
1.88053
1.00332
1.00358
1.00389
1.00427
1.00468
1.0053
1.00599
1.00703
1.03063
1.79014
1.00249
1.00273
1.00302
1.00338
1.00375
1.00423
1.00479
1.00542
1.00827
1.56972
1.00183
1.00201
1.00226
1.00256
1.00289
1.00328
1.00375
1.00426
1.00557
1.2144
1.00131
1.00146
1.00165
1.00189
1.00218
1.00254
1.00294
1.00342
1.00417
1.03559
1
1
1
1
1
1
1
1
0.999999
1.32761
1
1
1
1
1
1
1
1
0.999999
1.23237
1
1
1
1
1
1
1
1
0.999999
1.145
1
1
1
1
1
1
1
1
0.999999
1.08846
1
1
1
1
1
1
1
1
0.999999
1.06193
1
1
1
1
1
1
1
1
0.999999
1.04698
1
1
1
1
1
1
1
1
0.999999
1.03583
1
1
1
1
1
1
1
1
0.999999
1.02617
1
1
1
1
1
1
1
1
0.999999
1.02091
1
1
1
1
1
1
1
1
0.999999
1.01563
1
1
1
1
1
1
1
1
0.999999
1.01164
1
1
1
1
1
1
1
1
0.999999
1.00968
1
1
1
1
1
1
1
1
0.999999
1.00673
1
1
1
1
1
1
1
1
0.999999
1.00472
1
1
1
1
1
1
1
1
0.999999
1.00367
1
1
1
1
1
1
1
1
0.999999
1.00277
1
1
1
1
1
1
1
1
0.999999
1.00205
1
1
1
1
1
1
1
1
0.999999
1.00149
1
1
1
1
1
1
1
1
0.999999
1.00108
1
1
1
1
1
1
1
1
0.999999
1.00077
1
1
1
1
1
1
1
1
0.999999
1.00077
1
1
1
1
1
1
1
1
0.999999
1.00108
1
1
1
1
1
1
1
1
0.999999
1.00149
1
1
1
1
1
1
1
1
0.999999
1.00205
1
1
1
1
1
1
1
1
0.999999
1.00277
1
1
1
1
1
1
1
1
0.999999
1.00367
1
1
1
1
1
1
1
1
0.999999
1.00472
1
1
1
1
1
1
1
1
0.999999
1.00673
1
1
1
1
1
1
1
1
0.999999
1.00968
1
1
1
1
1
1
1
1
0.999999
1.01164
1
1
1
1
1
1
1
1
0.999999
1.01563
1
1
1
1
1
1
1
1
0.999999
1.02091
1
1
1
1
1
1
1
1
0.999999
1.02617
1
1
1
1
1
1
1
1
0.999999
1.03584
1
1
1
1
1
1
1
1
0.999999
1.04698
1
1
1
1
1
1
1
1
0.999999
1.06194
1
1
1
1
1
1
1
1
0.999999
1.08847
1
1
1
1
1
1
1
1
0.999999
1.14502
1
1
1
1
1
1
1
1
0.999999
1.2324
1
1
1
1
1
1
1
1
0.999999
1.32764
1.00131
1.00146
1.00165
1.00189
1.00218
1.00254
1.00294
1.00342
1.00417
1.03543
1.00183
1.00201
1.00226
1.00256
1.00289
1.00328
1.00376
1.00426
1.00557
1.21385
1.00249
1.00273
1.00302
1.00338
1.00375
1.00423
1.00479
1.00543
1.00827
1.56921
1.00332
1.00358
1.00389
1.00427
1.00468
1.00531
1.006
1.00703
1.03055
1.78989
1.00431
1.00461
1.00493
1.0054
1.00596
1.0068
1.00778
1.00984
1.22198
1.8803
1.00571
1.00609
1.0066
1.00722
1.00817
1.00921
1.01035
1.01821
1.64748
1.94577
1.00761
1.0082
1.0091
1.01002
1.01118
1.0122
1.01388
1.15043
1.88671
1.96273
1.01063
1.01143
1.01231
1.01348
1.01464
1.01568
1.02134
1.60512
1.97281
1.9599
1.01446
1.01513
1.01579
1.01673
1.01775
1.0194
1.16504
1.91744
1.98475
1.95167
1.01801
1.01904
1.02044
1.02197
1.02324
1.03228
1.67
2.00343
1.98287
1.93708
1.02388
1.02545
1.02734
1.02951
1.03163
1.28488
1.95252
1.99676
1.96654
1.92198
1.03021
1.03124
1.03239
1.03378
1.10067
1.82927
2.01724
1.99737
1.9517
1.91023
1.03938
1.04126
1.0432
1.04888
1.5858
1.99333
2.00137
1.98343
1.94438
1.90191
1.05156
1.05353
1.05479
1.31244
1.94349
2.01218
1.99897
1.98379
1.95361
1.91017
1.06594
1.06529
1.18913
1.86589
2.04351
2.02513
2.01268
2.0127
1.99305
1.9378
1.08186
1.12808
1.74451
2.07746
2.0784
2.07724
2.08259
2.09944
2.08827
2.01152
1.18526
1.59473
2.05043
2.17261
2.18755
2.19805
2.2135
2.23607
2.2233
2.11525
1.60403
2.10287
2.28825
2.35135
2.37043
2.38279
2.39163
2.39277
2.37075
2.23867
2.18769
2.43494
2.46455
2.48917
2.50229
2.51095
2.50553
2.4878
2.45358
2.33907
2.5133
2.65601
2.6201
2.59213
2.57645
2.57135
2.55942
2.53941
2.50704
2.43131
1.787
1.76052
1.62327
1.4644
1.36695
1.26861
1.25961
1.32704
1.47744
1.58856
1.81604
1.73668
1.59723
1.44082
1.34714
1.25314
1.24067
1.32159
1.51431
1.59034
1.83565
1.71144
1.56597
1.41565
1.32898
1.24018
1.23014
1.33565
1.53898
1.59027
1.84981
1.68398
1.53341
1.39032
1.30942
1.23328
1.23097
1.36495
1.54893
1.58967
1.84704
1.65504
1.50281
1.36546
1.29214
1.23123
1.24542
1.39617
1.54937
1.58857
1.83487
1.62927
1.47474
1.34177
1.27544
1.24203
1.27979
1.41932
1.54653
1.58781
1.81791
1.60644
1.44809
1.31964
1.26488
1.26134
1.32002
1.43638
1.54093
1.58666
1.79528
1.58373
1.42331
1.29653
1.26284
1.28162
1.36699
1.4533
1.53285
1.5836
1.77358
1.56408
1.39847
1.27784
1.26423
1.30075
1.42307
1.47007
1.52367
1.57806
1.75207
1.5459
1.37638
1.26518
1.26945
1.33778
1.48008
1.48502
1.51604
1.5716
1.73472
1.53227
1.35852
1.26058
1.27485
1.38355
1.52788
1.50365
1.51384
1.56427
1.72363
1.524
1.34716
1.26779
1.28714
1.43711
1.56687
1.52531
1.51107
1.55691
1.71978
1.52169
1.33905
1.27844
1.30901
1.4961
1.60121
1.54649
1.50524
1.54988
1.73638
1.53137
1.33739
1.29649
1.33881
1.55703
1.63065
1.56538
1.49835
1.54308
1.76424
1.5463
1.3461
1.32309
1.37484
1.61409
1.65673
1.58135
1.4917
1.53637
1.80551
1.56925
1.36097
1.35421
1.42524
1.66043
1.68113
1.59585
1.48694
1.52932
1.8458
1.6075
1.3919
1.38428
1.47735
1.69764
1.70358
1.60959
1.48535
1.52257
1.88106
1.63769
1.44154
1.4227
1.53441
1.73039
1.72533
1.62365
1.48872
1.51837
1.90763
1.67923
1.5083
1.47241
1.59523
1.7644
1.74856
1.64007
1.49933
1.51853
1.89334
1.73846
1.58049
1.53605
1.65682
1.80288
1.77833
1.65743
1.5172
1.52638
1.00004
0.999803
1.04222
2.05009
2.09861
1.97146
1.80266
1.63745
1.50648
1.3758
1.00004
0.999667
1.04173
2.02594
2.11892
1.97954
1.80546
1.6401
1.50694
1.38412
1.00004
0.999436
1.06278
2.03948
2.14535
1.98998
1.80759
1.63675
1.50531
1.37539
1.00004
0.999107
1.09409
1.95666
2.1522
1.99721
1.81222
1.63863
1.50637
1.37404
1.00003
0.99869
1.13998
1.85795
2.14381
2.00257
1.82044
1.64454
1.50622
1.37165
0.999986
0.998058
1.20506
1.77617
2.12319
2.00961
1.83389
1.65416
1.50857
1.36969
0.999881
0.997518
1.28605
1.73574
2.09734
2.0218
1.85279
1.66862
1.51484
1.3706
0.999696
0.999332
1.37663
1.72832
2.05723
2.02993
1.87012
1.68636
1.52296
1.37043
0.999475
1.01276
1.47448
1.73681
1.99718
2.02197
1.88251
1.70433
1.53159
1.37112
0.999209
1.05108
1.5555
1.74972
1.9004
2.00877
1.8911
1.71932
1.54028
1.37462
0.99885
1.12448
1.63223
1.756
1.80258
1.97514
1.89547
1.72811
1.5457
1.37782
0.998326
1.24002
1.70129
1.75111
1.73114
1.89627
1.87258
1.72489
1.55025
1.38381
0.997844
1.37044
1.74913
1.74608
1.68559
1.77532
1.83412
1.71292
1.55011
1.38821
0.997277
1.48294
1.77306
1.74792
1.64805
1.66437
1.78031
1.6906
1.54808
1.39405
1.01934
1.56654
1.78429
1.74137
1.61463
1.5886
1.70567
1.66242
1.53945
1.4032
1.0984
1.65967
1.77752
1.7142
1.58012
1.52652
1.60791
1.62013
1.52153
1.41727
1.2935
1.75752
1.75341
1.66709
1.54466
1.46789
1.50954
1.56987
1.48827
1.44583
1.519
1.79023
1.72862
1.61008
1.48888
1.40642
1.42734
1.5029
1.44335
1.48649
1.66565
1.78105
1.69658
1.55574
1.43889
1.34934
1.36164
1.43244
1.42321
1.52999
1.74408
1.77013
1.65864
1.50139
1.39732
1.30097
1.30321
1.36712
1.42901
1.56821
1.74437
1.7703
1.65876
1.50148
1.39742
1.30109
1.30321
1.36707
1.42896
1.56817
1.66598
1.78122
1.69671
1.55583
1.43895
1.3494
1.36165
1.43241
1.42319
1.52993
1.5196
1.79045
1.72872
1.61012
1.48893
1.40646
1.42735
1.50289
1.44334
1.48647
1.29418
1.75788
1.75353
1.66708
1.54459
1.46787
1.50954
1.56986
1.48828
1.44588
1.09872
1.66009
1.77761
1.71421
1.58012
1.52651
1.6079
1.62013
1.52154
1.41731
1.01947
1.5669
1.78443
1.74147
1.61466
1.5886
1.70565
1.66241
1.53945
1.40323
0.997282
1.4834
1.77325
1.74801
1.64807
1.66435
1.78029
1.6906
1.54809
1.39407
0.997839
1.37095
1.74934
1.74615
1.68559
1.77527
1.83411
1.71291
1.55011
1.38823
0.998322
1.2405
1.70157
1.75114
1.73112
1.89624
1.87257
1.72488
1.55026
1.38383
0.998848
1.12483
1.63257
1.75603
1.80254
1.97515
1.8955
1.72811
1.54571
1.37784
0.999207
1.05128
1.55581
1.74981
1.90039
2.00882
1.89114
1.71934
1.5403
1.37464
0.999474
1.01284
1.47483
1.73695
1.99723
2.02205
1.88255
1.70436
1.53162
1.37113
0.999695
0.999348
1.37697
1.72848
2.05734
2.03001
1.87016
1.68641
1.523
1.37045
0.99988
0.997516
1.28636
1.73591
2.09743
2.02188
1.85286
1.66867
1.51488
1.37062
0.999986
0.998055
1.20532
1.77635
2.12327
2.0097
1.83397
1.65422
1.50862
1.36971
1.00003
0.998688
1.14019
1.85818
2.1439
2.00266
1.82052
1.6446
1.50626
1.37167
1.00004
0.999106
1.09424
1.95692
2.15228
1.99729
1.81228
1.63868
1.50641
1.37406
1.00004
0.999436
1.06289
2.03978
2.14544
1.99005
1.80764
1.63681
1.50535
1.37541
1.00004
0.999667
1.04182
2.0262
2.11901
1.9796
1.80551
1.64015
1.50699
1.38415
1.00004
0.999803
1.0423
2.05036
2.09869
1.97152
1.8027
1.6375
1.50653
1.37583
1.00088
1.00098
1.00112
1.00129
1.00151
1.00177
1.0021
1.0025
1.00293
1.00505
1.00054
1.0006
1.00069
1.00079
1.00093
1.0011
1.00133
1.00158
1.00198
1.00217
1.00033
1.00037
1.00042
1.00048
1.00057
1.00067
1.00082
1.00098
1.00126
1.00142
1.0002
1.00022
1.00025
1.00029
1.00034
1.0004
1.00049
1.00058
1.00077
1.00089
1.00012
1.00013
1.00015
1.00017
1.0002
1.00024
1.00029
1.00035
1.00046
1.00053
1.00007
1.00008
1.00009
1.0001
1.00012
1.00014
1.00017
1.00021
1.00026
1.00032
1.00004
1.00005
1.00005
1.00006
1.00007
1.00008
1.0001
1.00012
1.00015
1.00021
1.00003
1.00003
1.00003
1.00004
1.00004
1.00005
1.00006
1.00007
1.00009
1.00013
1.00002
1.00002
1.00002
1.00002
1.00003
1.00003
1.00004
1.00004
1.00005
1.00008
1.00001
1.00001
1.00001
1.00001
1.00002
1.00002
1.00002
1.00003
1.00003
1.00005
1.00001
1.00001
1.00001
1.00001
1.00001
1.00001
1.00002
1.00002
1.00002
1.00003
1
1
1.00001
1.00001
1.00001
1.00001
1.00001
1.00001
1.00002
1.00002
1
1
1
1.00001
1.00001
1.00001
1.00001
1.00001
1.00001
1.00002
1
1
1
1
1
1.00001
1.00001
1.00001
1.00001
1.00002
1
1
1
1
1.00001
1.00001
1.00001
1.00001
1.00001
1.00002
1
1
1
1
1.00001
1.00001
1.00001
1.00001
1.00001
1.00001
1
1
1
1
1.00001
1.00001
1.00001
1.00001
1.00001
1.00001
1
1
1
1.00001
1.00001
1.00001
1.00001
1.00001
1.00001
1.00001
1
1
1
1.00001
1.00001
1.00001
1.00001
1.00001
1.00001
1.00001
1
1
1.00001
1.00001
1.00001
1.00001
1.00001
1.00001
1.00001
1.00002
1
1
1
1
1
1
1
1
0.999999
1.00051
1
1
1
1
1
1
1
1
0.999999
1.00031
1
1
1
1
1
1
1
1
0.999999
1.00019
1
1
1
1
1
1
1
1
1
1.00011
1
1
1
1
1
1
1
1
1
1.00007
1
1
1
1
1
1
1
1
1
1.00004
1
1
1
1
1
1
1
1
1
1.00003
1
1
1
1
1
1
1
1
1
1.00002
1
1
1
1
1
1
1
1
1
1.00001
1
1
1
1
1
1
1
1
1
1.00001
1
1
1
1
1
1
1
1
1
1
1
1
1
1
1
1
1
1
1
1
1
1
1
1
1
1
1
1
1
1
1
1
1
1
1
1
1
1
1
1
1
1
1
1
1
1
1
1
1
1
1
1
1
1
1
1
1
1
1
1
1
1
1
1
1
1
1
1
1
1
1
1
1
1
1
1
1
1
1
1
1
1
1
1
1
1
1
1
1
1
1
1
1
1
1
1
1
1
1
1
1
1
1
1
1
1
1
1
1
1
1
1
1
1
1
1
1
1
1
1
1
1
1
1
1
1
1
1
1
1
1
1
1
1
1
1
1
1
1
1
1
1
1
1
1
1
1
1
1
1
1
1
1
1
1
1
1
1
1
1
1
1
1
1
1
1
1
1
1
1
1
1
1
1
1
1
1
1
1
1
1
1
1
1
1
1
1
1
1
1
1
1
1
1
1
1
1
1
1
1
1
1
1
1
1
1
1
1
1
1.00001
1
1
1
1
1
1
1
1
1
1.00001
1
1
1
1
1
1
1
1
1
1.00002
1
1
1
1
1
1
1
1
1
1.00003
1
1
1
1
1
1
1
1
1
1.00004
1
1
1
1
1
1
1
1
1
1.00007
1
1
1
1
1
1
1
1
1
1.00011
1
1
1
1
1
1
1
1
0.999999
1.00019
1
1
1
1
1
1
1
1
0.999999
1.00031
1
1
1
1
1
1
1
1
0.999999
1.00051
1
1
1.00001
1.00001
1.00001
1.00001
1.00001
1.00001
1.00001
1.00002
1
1
1
1.00001
1.00001
1.00001
1.00001
1.00001
1.00001
1.00001
1
1
1
1.00001
1.00001
1.00001
1.00001
1.00001
1.00001
1.00001
1
1
1
1
1.00001
1.00001
1.00001
1.00001
1.00001
1.00001
1
1
1
1
1.00001
1.00001
1.00001
1.00001
1.00001
1.00001
1
1
1
1
1.00001
1.00001
1.00001
1.00001
1.00001
1.00002
1
1
1
1
1
1.00001
1.00001
1.00001
1.00001
1.00002
1
1
1
1.00001
1.00001
1.00001
1.00001
1.00001
1.00001
1.00002
1
1
1.00001
1.00001
1.00001
1.00001
1.00001
1.00001
1.00002
1.00002
1.00001
1.00001
1.00001
1.00001
1.00001
1.00001
1.00002
1.00002
1.00002
1.00003
1.00001
1.00001
1.00001
1.00001
1.00002
1.00002
1.00002
1.00003
1.00003
1.00005
1.00002
1.00002
1.00002
1.00002
1.00003
1.00003
1.00004
1.00004
1.00005
1.00008
1.00003
1.00003
1.00003
1.00004
1.00004
1.00005
1.00006
1.00007
1.00009
1.00013
1.00004
1.00005
1.00005
1.00006
1.00007
1.00008
1.0001
1.00012
1.00015
1.00021
1.00007
1.00008
1.00009
1.0001
1.00012
1.00014
1.00017
1.00021
1.00026
1.00032
1.00012
1.00013
1.00015
1.00017
1.0002
1.00024
1.00029
1.00035
1.00046
1.00054
1.0002
1.00022
1.00025
1.00029
1.00034
1.0004
1.00049
1.00058
1.00077
1.00089
1.00033
1.00037
1.00042
1.00048
1.00057
1.00067
1.00082
1.00098
1.00126
1.00142
1.00054
1.0006
1.00069
1.00079
1.00094
1.0011
1.00133
1.00158
1.00198
1.00217
1.00088
1.00098
1.00112
1.00129
1.00151
1.00178
1.0021
1.0025
1.00293
1.00504
)
;

boundaryField
{
    inlet
    {
        type            fixedValue;
        value           uniform 1;
    }
    outlet
    {
        type            inletOutlet;
        inletValue      uniform 1;
        value           nonuniform List<scalar> 
100
(
1.56782
1.52951
1.48611
1.44558
1.41697
1.40291
1.39378
1.38803
1.38372
1.37781
1.37465
1.37118
1.37051
1.37073
1.36985
1.37182
1.37421
1.37555
1.3843
1.37601
1.52513
1.51802
1.51815
1.52209
1.52869
1.53598
1.54291
1.54962
1.55643
1.56379
1.57133
1.57797
1.58367
1.58673
1.58777
1.5885
1.58956
1.59015
1.5902
1.58837
1.54634
1.58613
1.65203
1.73489
1.8135
1.86647
1.88918
1.894
1.89212
1.89028
1.88964
1.89122
1.89248
1.8904
1.86791
1.81378
1.73347
1.65142
1.58754
1.54639
1.58832
1.59015
1.59017
1.58957
1.58852
1.5878
1.58666
1.5836
1.57805
1.57152
1.56406
1.55658
1.54948
1.54263
1.53587
1.52878
1.52198
1.51774
1.5179
1.52589
1.37598
1.38427
1.37553
1.37419
1.3718
1.36983
1.37071
1.3705
1.37117
1.37464
1.37779
1.3837
1.38801
1.39376
1.40289
1.41694
1.44554
1.48612
1.52957
1.56786
)
;
    }
    triangle
    {
        type            zeroGradient;
    }
    top
    {
        type            symmetryPlane;
    }
    bottom
    {
        type            symmetryPlane;
    }
    defaultFaces
    {
        type            empty;
    }
}


// ************************************************************************* //
