/*--------------------------------*- C++ -*----------------------------------*\
  =========                 |
  \\      /  F ield         | OpenFOAM: The Open Source CFD Toolbox
   \\    /   O peration     | Website:  https://openfoam.org
    \\  /    A nd           | Version:  7
     \\/     M anipulation  |
\*---------------------------------------------------------------------------*/
FoamFile
{
    version     2.0;
    format      ascii;
    class       volScalarField;
    location    "0.9";
    object      T;
}
// * * * * * * * * * * * * * * * * * * * * * * * * * * * * * * * * * * * * * //

dimensions      [0 0 0 1 0 0 0];

internalField   nonuniform List<scalar> 
2600
(
1.81282
1.78053
1.65019
1.60505
1.7187
1.83974
1.81593
1.6822
1.54419
1.5466
1.87802
1.79594
1.6873
1.66569
1.77691
1.88538
1.8515
1.70587
1.588
1.58795
1.81834
1.76337
1.70099
1.71709
1.84358
1.94228
1.8928
1.73213
1.64537
1.652
1.72069
1.68918
1.6926
1.76395
1.92324
1.9976
1.93286
1.77425
1.72353
1.73345
1.65365
1.61113
1.67055
1.81309
1.9987
2.03344
1.96242
1.8361
1.81134
1.81354
1.63086
1.57425
1.66401
1.86083
2.04386
2.04571
1.98049
1.90395
1.88774
1.86801
1.62386
1.56101
1.66499
1.88061
2.05125
2.04374
1.99271
1.96313
1.93596
1.88995
1.62279
1.55559
1.6619
1.86555
2.01275
2.0193
1.99935
1.99462
1.95757
1.89355
1.62072
1.54929
1.6486
1.82572
1.96009
1.99584
1.99738
2.01129
1.96666
1.89259
1.61699
1.54526
1.64276
1.80366
1.93335
1.98061
1.99758
2.01985
1.9679
1.89115
1.61693
1.54523
1.6428
1.80294
1.93315
1.97795
2.0062
2.01463
1.96759
1.88963
1.62056
1.54923
1.64858
1.82473
1.96028
1.99221
2.00917
2.01148
1.96491
1.89151
1.62256
1.55545
1.66161
1.86503
2.01157
2.0204
1.99979
1.99747
1.95991
1.89352
1.6236
1.56087
1.66474
1.88095
2.05034
2.04572
1.98933
1.9579
1.93494
1.88975
1.63056
1.57419
1.66408
1.86191
2.0447
2.04556
1.97647
1.90013
1.88464
1.86654
1.65331
1.61115
1.67082
1.81452
2.00134
2.03302
1.95969
1.83733
1.81135
1.81414
1.72034
1.68923
1.69297
1.76415
1.92597
1.99615
1.93535
1.78434
1.72795
1.73503
1.81794
1.76304
1.70126
1.71664
1.84285
1.93999
1.8994
1.73701
1.64663
1.6519
1.87758
1.79548
1.68782
1.66555
1.77437
1.88688
1.85562
1.70028
1.58218
1.58659
1.81237
1.78005
1.65053
1.60533
1.71647
1.84235
1.81391
1.67654
1.5432
1.54699
1.89325
1.73794
1.58051
1.53681
1.65666
1.80185
1.7783
1.65907
1.51802
1.52628
1.90757
1.67889
1.50807
1.47258
1.59537
1.76397
1.74921
1.64044
1.499
1.51846
1.88099
1.63751
1.44135
1.42269
1.53443
1.73051
1.72558
1.62353
1.48864
1.51853
1.84575
1.60753
1.39178
1.38432
1.47748
1.69782
1.70336
1.60962
1.48564
1.52271
1.80548
1.56927
1.36081
1.35429
1.4254
1.66037
1.68102
1.5962
1.48715
1.52933
1.76427
1.54626
1.34592
1.32324
1.37483
1.61389
1.65692
1.58179
1.49172
1.53635
1.73641
1.53141
1.33717
1.29651
1.33876
1.55688
1.63094
1.56558
1.49826
1.54311
1.71983
1.52174
1.33885
1.27836
1.30896
1.49607
1.60148
1.54664
1.50527
1.54991
1.72369
1.52406
1.34706
1.26756
1.2871
1.43714
1.5672
1.52548
1.51116
1.55688
1.73479
1.53234
1.35845
1.26038
1.27484
1.3836
1.52823
1.50388
1.51392
1.56422
1.75215
1.54599
1.3763
1.26506
1.26944
1.33781
1.4804
1.48522
1.51604
1.57158
1.77367
1.56416
1.39845
1.27769
1.26424
1.30083
1.42332
1.47021
1.52364
1.57806
1.79537
1.58382
1.42327
1.29646
1.26285
1.28177
1.3672
1.45339
1.53282
1.58358
1.81802
1.60655
1.44807
1.31957
1.26489
1.26156
1.32023
1.43642
1.54092
1.58663
1.835
1.6294
1.47475
1.34172
1.2755
1.24228
1.28003
1.41936
1.54653
1.58781
1.84718
1.65517
1.50283
1.36544
1.2922
1.23149
1.24565
1.39625
1.54936
1.58858
1.84999
1.68411
1.53344
1.39032
1.30949
1.23351
1.23107
1.36501
1.54889
1.58967
1.83583
1.71156
1.56602
1.41567
1.32908
1.24038
1.23021
1.33569
1.53896
1.59027
1.81627
1.73681
1.59729
1.44087
1.34724
1.25331
1.2407
1.32159
1.51431
1.59033
1.78728
1.76066
1.62336
1.46447
1.36706
1.26878
1.25963
1.32705
1.47741
1.58855
2.51322
2.65595
2.62006
2.59209
2.57641
2.5713
2.55936
2.53936
2.507
2.43127
2.18761
2.43489
2.46452
2.48914
2.50225
2.5109
2.50548
2.48776
2.45354
2.33904
1.6039
2.10282
2.28822
2.35133
2.37041
2.38276
2.39158
2.39273
2.37072
2.23865
1.1852
1.59469
2.05041
2.17264
2.18756
2.19805
2.21348
2.23605
2.22328
2.11525
1.08185
1.12805
1.74452
2.0775
2.07843
2.07726
2.08259
2.09944
2.08827
2.01153
1.06593
1.06529
1.18912
1.86596
2.04356
2.02515
2.01271
2.01274
1.99308
1.93783
1.05156
1.05353
1.05479
1.31249
1.94358
2.01221
1.99899
1.98383
1.95366
1.91022
1.03937
1.04126
1.04319
1.04888
1.58599
1.99342
2.00141
1.98347
1.94443
1.90195
1.0302
1.03123
1.03239
1.03377
1.10074
1.82942
2.01728
1.99741
1.95174
1.91027
1.02387
1.02545
1.02734
1.02951
1.03162
1.28502
1.9526
1.9968
1.96657
1.92202
1.01801
1.01903
1.02043
1.02196
1.02324
1.03228
1.67029
2.00351
1.98293
1.93714
1.01446
1.01513
1.01579
1.01672
1.01775
1.0194
1.16521
1.9176
1.98484
1.95173
1.01062
1.01142
1.01231
1.01347
1.01464
1.01567
1.02134
1.60558
1.9729
1.95998
1.00761
1.0082
1.0091
1.01002
1.01118
1.0122
1.01388
1.15067
1.88689
1.96284
1.00571
1.00608
1.0066
1.00722
1.00817
1.00921
1.01035
1.01822
1.648
1.94598
1.00431
1.00461
1.00493
1.0054
1.00595
1.0068
1.00777
1.00984
1.2224
1.88054
1.00332
1.00358
1.00389
1.00427
1.00468
1.0053
1.00599
1.00703
1.03063
1.79015
1.00249
1.00273
1.00302
1.00338
1.00375
1.00423
1.00479
1.00542
1.00827
1.56974
1.00183
1.00201
1.00226
1.00256
1.00289
1.00328
1.00375
1.00426
1.00557
1.21442
1.00131
1.00146
1.00165
1.00189
1.00218
1.00254
1.00294
1.00342
1.00417
1.0356
1
1
1
1
1
1
1
1
0.999999
1.32762
1
1
1
1
1
1
1
1
0.999999
1.23237
1
1
1
1
1
1
1
1
0.999999
1.145
1
1
1
1
1
1
1
1
0.999999
1.08846
1
1
1
1
1
1
1
1
0.999999
1.06193
1
1
1
1
1
1
1
1
0.999999
1.04698
1
1
1
1
1
1
1
1
0.999999
1.03583
1
1
1
1
1
1
1
1
0.999999
1.02617
1
1
1
1
1
1
1
1
0.999999
1.02091
1
1
1
1
1
1
1
1
0.999999
1.01563
1
1
1
1
1
1
1
1
0.999999
1.01164
1
1
1
1
1
1
1
1
0.999999
1.00968
1
1
1
1
1
1
1
1
0.999999
1.00673
1
1
1
1
1
1
1
1
0.999999
1.00472
1
1
1
1
1
1
1
1
0.999999
1.00367
1
1
1
1
1
1
1
1
0.999999
1.00277
1
1
1
1
1
1
1
1
0.999999
1.00205
1
1
1
1
1
1
1
1
0.999999
1.00149
1
1
1
1
1
1
1
1
0.999999
1.00108
1
1
1
1
1
1
1
1
0.999999
1.00077
1
1
1
1
1
1
1
1
0.999999
1.00077
1
1
1
1
1
1
1
1
0.999999
1.00108
1
1
1
1
1
1
1
1
0.999999
1.00149
1
1
1
1
1
1
1
1
0.999999
1.00205
1
1
1
1
1
1
1
1
0.999999
1.00277
1
1
1
1
1
1
1
1
0.999999
1.00367
1
1
1
1
1
1
1
1
0.999999
1.00472
1
1
1
1
1
1
1
1
0.999999
1.00673
1
1
1
1
1
1
1
1
0.999999
1.00968
1
1
1
1
1
1
1
1
0.999999
1.01164
1
1
1
1
1
1
1
1
0.999999
1.01563
1
1
1
1
1
1
1
1
0.999999
1.02092
1
1
1
1
1
1
1
1
0.999999
1.02617
1
1
1
1
1
1
1
1
0.999999
1.03584
1
1
1
1
1
1
1
1
0.999999
1.04698
1
1
1
1
1
1
1
1
0.999999
1.06194
1
1
1
1
1
1
1
1
0.999999
1.08847
1
1
1
1
1
1
1
1
0.999999
1.14503
1
1
1
1
1
1
1
1
0.999999
1.23241
1
1
1
1
1
1
1
1
0.999999
1.32765
1.00131
1.00146
1.00165
1.00189
1.00218
1.00254
1.00294
1.00342
1.00417
1.03544
1.00183
1.00201
1.00226
1.00256
1.00289
1.00328
1.00376
1.00426
1.00557
1.2139
1.00249
1.00273
1.00302
1.00338
1.00375
1.00423
1.00479
1.00543
1.00827
1.56926
1.00332
1.00358
1.00389
1.00427
1.00468
1.00531
1.006
1.00703
1.03056
1.78991
1.00431
1.00461
1.00493
1.0054
1.00596
1.0068
1.00778
1.00984
1.22203
1.88032
1.00571
1.00609
1.0066
1.00722
1.00817
1.00921
1.01035
1.01821
1.64754
1.94578
1.00761
1.0082
1.0091
1.01002
1.01118
1.0122
1.01388
1.15047
1.88673
1.96273
1.01063
1.01143
1.01231
1.01348
1.01464
1.01568
1.02134
1.60519
1.97281
1.95991
1.01446
1.01513
1.01579
1.01673
1.01775
1.0194
1.16508
1.91746
1.98475
1.95167
1.01801
1.01904
1.02044
1.02197
1.02324
1.03228
1.67006
2.00343
1.98287
1.93708
1.02388
1.02545
1.02734
1.02951
1.03163
1.28491
1.95253
1.99676
1.96654
1.92198
1.03021
1.03124
1.03239
1.03378
1.10069
1.82929
2.01724
1.99737
1.9517
1.91023
1.03938
1.04126
1.0432
1.04888
1.58585
1.99334
2.00138
1.98343
1.94438
1.90191
1.05156
1.05353
1.05479
1.31247
1.9435
2.01218
1.99897
1.98379
1.95361
1.91018
1.06594
1.06529
1.18915
1.86591
2.04351
2.02512
2.01268
2.01271
1.99305
1.9378
1.08186
1.12809
1.74453
2.07747
2.0784
2.07724
2.08259
2.09945
2.08827
2.01152
1.18527
1.59475
2.05044
2.17261
2.18755
2.19805
2.21351
2.23607
2.2233
2.11525
1.60406
2.10288
2.28826
2.35135
2.37044
2.3828
2.39163
2.39277
2.37075
2.23867
2.18771
2.43495
2.46456
2.48918
2.5023
2.51095
2.50554
2.4878
2.45358
2.33907
2.51331
2.65602
2.62011
2.59214
2.57646
2.57136
2.55942
2.53941
2.50704
2.43131
1.78702
1.76052
1.62327
1.4644
1.36696
1.26862
1.25962
1.32706
1.47744
1.58863
1.81605
1.73669
1.59723
1.44083
1.34714
1.25313
1.24068
1.32164
1.51439
1.5904
1.83566
1.71145
1.56598
1.41566
1.32899
1.24017
1.23015
1.33574
1.53904
1.59022
1.84982
1.68399
1.53341
1.39033
1.30943
1.23324
1.23098
1.36494
1.54887
1.58964
1.84705
1.65504
1.50282
1.36547
1.29214
1.23121
1.24542
1.39619
1.54934
1.58853
1.83488
1.62928
1.47475
1.34177
1.27548
1.24199
1.2798
1.41935
1.54652
1.58778
1.81791
1.60645
1.44809
1.31963
1.2649
1.26127
1.32
1.43638
1.54098
1.58674
1.79528
1.58373
1.42331
1.29652
1.26283
1.28161
1.36692
1.45334
1.53303
1.58367
1.77358
1.56409
1.39847
1.27781
1.26423
1.30073
1.42303
1.47018
1.52383
1.57798
1.75207
1.54591
1.37637
1.26518
1.26943
1.33771
1.48017
1.48514
1.51596
1.57143
1.73472
1.53228
1.35849
1.26059
1.2748
1.38345
1.52812
1.50356
1.51343
1.56403
1.72363
1.524
1.34712
1.26778
1.28708
1.43717
1.56697
1.52518
1.51072
1.55678
1.71977
1.52168
1.33899
1.27849
1.30897
1.49649
1.6011
1.54611
1.50526
1.54998
1.73638
1.53134
1.33738
1.2965
1.33863
1.55763
1.63047
1.56487
1.4984
1.54333
1.76423
1.54623
1.34614
1.32305
1.37451
1.61443
1.65699
1.58125
1.49151
1.5365
1.80548
1.5692
1.36094
1.35425
1.42517
1.65985
1.68139
1.59711
1.48718
1.52924
1.84576
1.60749
1.3917
1.3844
1.47735
1.69677
1.70252
1.61107
1.48631
1.52261
1.881
1.63769
1.44121
1.42288
1.53403
1.73087
1.72409
1.62361
1.48993
1.5187
1.90759
1.67919
1.50801
1.47263
1.59468
1.76556
1.74975
1.63715
1.49819
1.51871
1.89331
1.73834
1.58041
1.53653
1.65659
1.80171
1.78204
1.65716
1.5144
1.5257
1.00004
0.999803
1.04223
2.05012
2.09861
1.97146
1.80265
1.63745
1.50648
1.37581
1.00004
0.999667
1.04174
2.02596
2.11893
1.97954
1.80546
1.64011
1.50695
1.38412
1.00004
0.999436
1.06279
2.03951
2.14536
1.98998
1.80759
1.63676
1.50531
1.37539
1.00004
0.999107
1.0941
1.95669
2.15221
1.99721
1.81222
1.63863
1.50637
1.37405
1.00003
0.998689
1.14
1.85798
2.14382
2.00258
1.82045
1.64455
1.50622
1.37165
0.999986
0.998057
1.20508
1.77619
2.1232
2.00962
1.8339
1.65417
1.50858
1.36969
0.999881
0.997518
1.28608
1.73576
2.09736
2.02181
1.8528
1.66863
1.51485
1.37061
0.999696
0.999333
1.37666
1.72834
2.05725
2.02994
1.87013
1.68637
1.52297
1.37044
0.999475
1.01276
1.47451
1.73682
1.99719
2.02199
1.88252
1.70433
1.5316
1.37112
0.999209
1.0511
1.55553
1.74973
1.9004
2.00878
1.89111
1.71933
1.54028
1.37463
0.99885
1.12452
1.63226
1.756
1.80257
1.97514
1.89548
1.72811
1.5457
1.37782
0.998326
1.24006
1.70131
1.75111
1.73114
1.89627
1.87257
1.72489
1.55025
1.38381
0.997844
1.37048
1.74915
1.74608
1.68558
1.77531
1.83412
1.71292
1.55011
1.38822
0.997277
1.48298
1.77308
1.74793
1.64805
1.66437
1.7803
1.6906
1.54808
1.39406
1.01935
1.56657
1.7843
1.74138
1.61463
1.5886
1.70567
1.66242
1.53945
1.40321
1.09843
1.65971
1.77753
1.7142
1.58012
1.52653
1.60791
1.62013
1.52153
1.41729
1.29356
1.75755
1.75343
1.66709
1.54466
1.46789
1.50955
1.56987
1.48828
1.44586
1.51904
1.79024
1.72862
1.61008
1.48888
1.40643
1.42734
1.50291
1.44335
1.48644
1.66567
1.78106
1.69659
1.55575
1.43889
1.34935
1.36164
1.43244
1.42319
1.52992
1.7441
1.77014
1.65865
1.50139
1.39732
1.30098
1.30321
1.36712
1.42899
1.56819
1.74437
1.77029
1.65875
1.50147
1.39741
1.30108
1.30322
1.36708
1.42898
1.5682
1.66597
1.7812
1.6967
1.55582
1.43894
1.34939
1.36165
1.43241
1.42321
1.53
1.51958
1.79043
1.72871
1.61011
1.48891
1.40645
1.42734
1.50289
1.44335
1.48651
1.29415
1.75785
1.75352
1.66707
1.54458
1.46786
1.50953
1.56987
1.48827
1.44585
1.09871
1.66006
1.7776
1.7142
1.5801
1.5265
1.60789
1.62012
1.52154
1.41729
1.01946
1.56687
1.78441
1.74146
1.61465
1.5886
1.70565
1.66241
1.53946
1.40322
0.997282
1.48336
1.77324
1.748
1.64807
1.66436
1.78029
1.6906
1.54809
1.39407
0.997839
1.37091
1.74932
1.74615
1.68559
1.77527
1.83411
1.71291
1.55012
1.38823
0.998322
1.24046
1.70155
1.75114
1.73112
1.89624
1.87257
1.72488
1.55026
1.38382
0.998848
1.1248
1.63254
1.75603
1.80254
1.97514
1.89549
1.72811
1.54571
1.37784
0.999207
1.05126
1.55579
1.7498
1.90039
2.00881
1.89113
1.71934
1.5403
1.37464
0.999474
1.01284
1.4748
1.73694
1.99722
2.02203
1.88254
1.70436
1.53162
1.37113
0.999695
0.999347
1.37694
1.72847
2.05732
2.03
1.87016
1.6864
1.523
1.37045
0.999881
0.997516
1.28633
1.73589
2.09742
2.02187
1.85285
1.66867
1.51488
1.37062
0.999986
0.998055
1.2053
1.77634
2.12326
2.00969
1.83396
1.65422
1.50861
1.36971
1.00003
0.998688
1.14017
1.85816
2.14389
2.00265
1.82051
1.6446
1.50626
1.37167
1.00004
0.999107
1.09423
1.9569
2.15228
1.99729
1.81228
1.63868
1.50641
1.37406
1.00004
0.999436
1.06288
2.03976
2.14543
1.99004
1.80764
1.63681
1.50535
1.37541
1.00004
0.999667
1.04181
2.02619
2.11901
1.9796
1.80551
1.64015
1.50699
1.38414
1.00004
0.999803
1.04229
2.05034
2.09869
1.97152
1.8027
1.6375
1.50653
1.37583
1.00088
1.00098
1.00112
1.00129
1.00151
1.00177
1.0021
1.0025
1.00293
1.00506
1.00054
1.0006
1.00069
1.00079
1.00093
1.0011
1.00133
1.00158
1.00198
1.00217
1.00033
1.00037
1.00042
1.00048
1.00057
1.00067
1.00082
1.00098
1.00126
1.00142
1.0002
1.00022
1.00025
1.00029
1.00034
1.0004
1.00049
1.00058
1.00077
1.00089
1.00012
1.00013
1.00015
1.00017
1.0002
1.00024
1.00029
1.00035
1.00046
1.00053
1.00007
1.00008
1.00009
1.0001
1.00012
1.00014
1.00017
1.00021
1.00026
1.00032
1.00004
1.00005
1.00005
1.00006
1.00007
1.00008
1.0001
1.00012
1.00015
1.00021
1.00003
1.00003
1.00003
1.00004
1.00004
1.00005
1.00006
1.00007
1.00009
1.00013
1.00002
1.00002
1.00002
1.00002
1.00003
1.00003
1.00004
1.00004
1.00005
1.00008
1.00001
1.00001
1.00001
1.00001
1.00002
1.00002
1.00002
1.00003
1.00003
1.00005
1.00001
1.00001
1.00001
1.00001
1.00001
1.00001
1.00002
1.00002
1.00002
1.00003
1
1
1.00001
1.00001
1.00001
1.00001
1.00001
1.00001
1.00002
1.00002
1
1
1
1.00001
1.00001
1.00001
1.00001
1.00001
1.00001
1.00002
1
1
1
1
1
1.00001
1.00001
1.00001
1.00001
1.00002
1
1
1
1
1.00001
1.00001
1.00001
1.00001
1.00001
1.00002
1
1
1
1
1.00001
1.00001
1.00001
1.00001
1.00001
1.00001
1
1
1
1
1.00001
1.00001
1.00001
1.00001
1.00001
1.00001
1
1
1
1.00001
1.00001
1.00001
1.00001
1.00001
1.00001
1.00001
1
1
1
1.00001
1.00001
1.00001
1.00001
1.00001
1.00001
1.00001
1
1
1.00001
1.00001
1.00001
1.00001
1.00001
1.00001
1.00001
1.00002
1
1
1
1
1
1
1
1
0.999999
1.00051
1
1
1
1
1
1
1
1
0.999999
1.00031
1
1
1
1
1
1
1
1
0.999999
1.00019
1
1
1
1
1
1
1
1
1
1.00011
1
1
1
1
1
1
1
1
1
1.00007
1
1
1
1
1
1
1
1
1
1.00004
1
1
1
1
1
1
1
1
1
1.00003
1
1
1
1
1
1
1
1
1
1.00002
1
1
1
1
1
1
1
1
1
1.00001
1
1
1
1
1
1
1
1
1
1.00001
1
1
1
1
1
1
1
1
1
1
1
1
1
1
1
1
1
1
1
1
1
1
1
1
1
1
1
1
1
1
1
1
1
1
1
1
1
1
1
1
1
1
1
1
1
1
1
1
1
1
1
1
1
1
1
1
1
1
1
1
1
1
1
1
1
1
1
1
1
1
1
1
1
1
1
1
1
1
1
1
1
1
1
1
1
1
1
1
1
1
1
1
1
1
1
1
1
1
1
1
1
1
1
1
1
1
1
1
1
1
1
1
1
1
1
1
1
1
1
1
1
1
1
1
1
1
1
1
1
1
1
1
1
1
1
1
1
1
1
1
1
1
1
1
1
1
1
1
1
1
1
1
1
1
1
1
1
1
1
1
1
1
1
1
1
1
1
1
1
1
1
1
1
1
1
1
1
1
1
1
1
1
1
1
1
1
1
1
1
1
1
1
1
1
1
1
1
1
1
1
1
1
1
1
1
1
1
1
1
1.00001
1
1
1
1
1
1
1
1
1
1.00001
1
1
1
1
1
1
1
1
1
1.00002
1
1
1
1
1
1
1
1
1
1.00003
1
1
1
1
1
1
1
1
1
1.00004
1
1
1
1
1
1
1
1
1
1.00007
1
1
1
1
1
1
1
1
1
1.00011
1
1
1
1
1
1
1
1
0.999999
1.00019
1
1
1
1
1
1
1
1
0.999999
1.00031
1
1
1
1
1
1
1
1
0.999999
1.00051
1
1
1.00001
1.00001
1.00001
1.00001
1.00001
1.00001
1.00001
1.00002
1
1
1
1.00001
1.00001
1.00001
1.00001
1.00001
1.00001
1.00001
1
1
1
1.00001
1.00001
1.00001
1.00001
1.00001
1.00001
1.00001
1
1
1
1
1.00001
1.00001
1.00001
1.00001
1.00001
1.00001
1
1
1
1
1.00001
1.00001
1.00001
1.00001
1.00001
1.00001
1
1
1
1
1.00001
1.00001
1.00001
1.00001
1.00001
1.00002
1
1
1
1
1
1.00001
1.00001
1.00001
1.00001
1.00002
1
1
1
1.00001
1.00001
1.00001
1.00001
1.00001
1.00001
1.00002
1
1
1.00001
1.00001
1.00001
1.00001
1.00001
1.00001
1.00002
1.00002
1.00001
1.00001
1.00001
1.00001
1.00001
1.00001
1.00002
1.00002
1.00002
1.00003
1.00001
1.00001
1.00001
1.00001
1.00002
1.00002
1.00002
1.00003
1.00003
1.00005
1.00002
1.00002
1.00002
1.00002
1.00003
1.00003
1.00004
1.00004
1.00005
1.00008
1.00003
1.00003
1.00003
1.00004
1.00004
1.00005
1.00006
1.00007
1.00009
1.00013
1.00004
1.00005
1.00005
1.00006
1.00007
1.00008
1.0001
1.00012
1.00015
1.00021
1.00007
1.00008
1.00009
1.0001
1.00012
1.00014
1.00017
1.00021
1.00026
1.00032
1.00012
1.00013
1.00015
1.00017
1.0002
1.00024
1.00029
1.00035
1.00046
1.00054
1.0002
1.00022
1.00025
1.00029
1.00034
1.0004
1.00049
1.00058
1.00077
1.00089
1.00033
1.00037
1.00042
1.00048
1.00057
1.00067
1.00082
1.00098
1.00126
1.00142
1.00054
1.0006
1.00069
1.00079
1.00094
1.0011
1.00133
1.00158
1.00198
1.00217
1.00088
1.00098
1.00112
1.00129
1.00151
1.00178
1.0021
1.0025
1.00293
1.00505
)
;

boundaryField
{
    inlet
    {
        type            fixedValue;
        value           uniform 1;
    }
    outlet
    {
        type            inletOutlet;
        inletValue      uniform 1;
        value           nonuniform List<scalar> 
100
(
1.56785
1.52958
1.48614
1.44556
1.41695
1.4029
1.39378
1.38803
1.38372
1.37781
1.37465
1.37118
1.37051
1.37072
1.36985
1.37182
1.37421
1.37555
1.3843
1.376
1.52576
1.51784
1.5179
1.52212
1.52878
1.53585
1.54266
1.54951
1.55655
1.564
1.5715
1.57805
1.58359
1.58664
1.5878
1.58853
1.58957
1.59017
1.59013
1.5883
1.54618
1.58764
1.65187
1.73327
1.81333
1.86777
1.88961
1.89327
1.89231
1.89081
1.88929
1.89109
1.89311
1.88953
1.86638
1.81399
1.73486
1.65161
1.58631
1.54665
1.58838
1.59021
1.59013
1.58955
1.58848
1.58777
1.58674
1.58366
1.57795
1.57134
1.56383
1.55646
1.54957
1.54287
1.53601
1.5287
1.522
1.51805
1.51811
1.52523
1.37598
1.38428
1.37554
1.37419
1.3718
1.36984
1.37071
1.3705
1.37117
1.37464
1.37779
1.38371
1.38802
1.39377
1.40289
1.41696
1.44556
1.48608
1.52949
1.56784
)
;
    }
    triangle
    {
        type            zeroGradient;
    }
    top
    {
        type            symmetryPlane;
    }
    bottom
    {
        type            symmetryPlane;
    }
    defaultFaces
    {
        type            empty;
    }
}


// ************************************************************************* //
