/*--------------------------------*- C++ -*----------------------------------*\
  =========                 |
  \\      /  F ield         | OpenFOAM: The Open Source CFD Toolbox
   \\    /   O peration     | Website:  https://openfoam.org
    \\  /    A nd           | Version:  7
     \\/     M anipulation  |
\*---------------------------------------------------------------------------*/
FoamFile
{
    version     2.0;
    format      ascii;
    class       volScalarField;
    location    "0.5";
    object      p;
}
// * * * * * * * * * * * * * * * * * * * * * * * * * * * * * * * * * * * * * //

dimensions      [1 -1 -2 0 0 0 0];

internalField   nonuniform List<scalar> 
325
(
1.42362
1.94778
2.41517
3.08703
3.0776
2.60551
1.45607
1.59551
2.04432
2.41977
3.10888
3.09261
2.60826
1.44864
1.70221
2.11764
2.45745
3.0986
3.08353
2.60146
1.44236
1.79294
2.15346
2.50433
3.09216
3.10162
2.5993
1.4384
1.85804
2.16537
2.54329
3.08837
3.15281
2.60373
1.43242
1.93021
2.16715
2.57489
3.06729
3.21384
2.60113
1.43096
1.95677
2.13856
2.58083
3.11705
2.30891
2.04289
2.13551
2.40227
2.463
1.64002
2.99279
2.19059
1.96579
2.07851
2.37019
2.4393
1.63078
2.86086
2.0775
1.89038
2.02082
2.33713
2.41377
1.62076
2.72826
1.96708
1.81677
1.9706
2.31002
2.38866
1.6103
2.58696
1.86311
1.73921
1.91503
2.27646
2.3604
1.60016
2.44929
1.75342
1.66492
1.86367
2.24834
2.33398
1.59014
2.31356
1.65773
1.58923
1.81368
2.23143
2.31131
1.58019
2.16767
1.55912
1.51041
1.76854
2.228
2.29975
1.57136
2.03039
1.46821
1.43171
1.74409
2.24096
2.30402
1.56292
1.88122
1.37039
1.36132
1.75619
2.32671
2.33253
1.55373
1.72751
1.28816
1.30307
1.96061
2.53378
2.41478
1.54463
1.57218
1.20838
1.26676
2.27881
2.72263
2.48688
1.53643
1.40645
1.13417
1.2962
2.49778
2.8218
2.52394
1.52851
1.24969
1.09529
1.46506
2.65611
2.87787
2.54937
1.52115
1.09707
1.03718
1.61515
2.76292
2.90612
2.56405
1.51382
0.984572
0.960477
1.76171
2.8418
2.92683
2.5647
1.50447
0.906879
0.932128
1.95656
2.91095
2.94943
2.56433
1.49377
0.820245
0.931147
2.15451
2.96832
2.98043
2.56803
1.48309
0.811108
1.22811
2.35475
3.01063
3.01181
2.57837
1.47359
1.07891
1.73159
2.41905
3.04742
3.04594
2.59458
1.46471
3.62029
4.00693
3.98791
3.81171
3.46554
2.90327
1.74474
3.63733
3.96486
3.9632
3.78411
3.44196
2.90062
1.74306
3.65337
3.91361
3.92731
3.73573
3.40935
2.88739
1.72913
3.67289
3.86219
3.86727
3.66549
3.37158
2.87942
1.71333
3.71435
3.80336
3.80728
3.59615
3.31619
2.8362
1.68429
3.8388
3.92345
3.81308
3.53332
3.25517
2.7782
1.64323
4.10853
4.17059
3.94025
3.57547
3.21761
2.71703
1.59747
4.45699
4.40883
4.03376
3.61845
3.19256
2.66021
1.556
4.74472
4.51602
4.03164
3.61681
3.23958
2.62626
1.52653
4.9053
4.51856
3.98395
3.581
3.28119
2.71211
1.52446
4.98517
4.46868
3.85192
3.51646
3.28922
2.82564
1.56751
5.00245
4.30271
3.62297
3.3612
3.26563
2.89582
1.62199
4.89502
4.09743
3.40632
3.18667
3.17441
2.91073
1.66473
4.67049
3.86057
3.21406
3.02706
3.04304
2.86423
1.68705
4.43758
3.62914
3.03119
2.8863
2.91973
2.77466
1.69005
4.20092
3.40657
2.85554
2.74747
2.80673
2.69163
1.67278
3.9842
3.18375
2.67229
2.61753
2.71889
2.6454
1.66884
3.76119
2.96272
2.49603
2.48799
2.63001
2.5934
1.66213
3.5363
2.72881
2.32333
2.36071
2.54023
2.54242
1.65745
3.29693
2.49332
2.15633
2.22943
2.45857
2.50014
1.65042
)
;

boundaryField
{
    inlet
    {
        type            fixedValue;
        value           nonuniform 0();
    }
    outlet
    {
        type            zeroGradient;
    }
    triangle
    {
        type            zeroGradient;
    }
    top
    {
        type            symmetryPlane;
    }
    bottom
    {
        type            symmetryPlane;
    }
    defaultFaces
    {
        type            empty;
    }
    procBoundary3to2
    {
        type            processor;
        value           nonuniform List<scalar> 
47
(
1.07961
1.21039
1.30083
1.3736
1.44982
1.5014
1.51651
3.93869
3.8115
3.67911
3.53932
3.39337
3.24
3.084
2.91584
2.74502
2.56528
2.38119
2.20033
2.00525
1.83089
1.62693
1.43664
1.25117
1.0405
0.951384
0.895219
3.29973
3.31571
3.34309
3.38495
3.44215
3.52055
3.65994
3.96528
4.46038
4.96404
5.25157
5.36498
5.42185
5.43833
5.31306
5.0963
4.86983
4.61483
4.36586
4.13094
)
;
    }
    procBoundary3to7
    {
        type            processor;
        value           nonuniform List<scalar> 8(3.0498 3.28188 2.60063 1.42921 1.98279 2.12229 3.0498 2.58088);
    }
}


// ************************************************************************* //
