/*--------------------------------*- C++ -*----------------------------------*\
  =========                 |
  \\      /  F ield         | OpenFOAM: The Open Source CFD Toolbox
   \\    /   O peration     | Website:  https://openfoam.org
    \\  /    A nd           | Version:  8
     \\/     M anipulation  |
\*---------------------------------------------------------------------------*/
FoamFile
{
    version     2.0;
    format      ascii;
    class       volVectorField;
    location    "0.5";
    object      U;
}
// * * * * * * * * * * * * * * * * * * * * * * * * * * * * * * * * * * * * * //

dimensions      [0 1 -1 0 0 0 0];

internalField   nonuniform List<vector> 
325
(
(2.35474 0.369098 0)
(2.31685 0.165313 0)
(2.19524 0.0704611 0)
(1.94379 0.0439202 0)
(1.86758 0.0937219 0)
(1.71231 0.148598 0)
(1.3192 0.0816692 0)
(2.34725 0.333313 0)
(2.34748 0.139425 0)
(2.20419 0.0713672 0)
(1.93752 0.0358174 0)
(1.8534 0.0920661 0)
(1.69331 0.145417 0)
(1.30808 0.0754697 0)
(2.34892 0.282677 0)
(2.36507 0.0892148 0)
(2.22182 0.0724605 0)
(1.93657 0.0446586 0)
(1.84498 0.103704 0)
(1.67862 0.14426 0)
(1.29803 0.0674373 0)
(2.32327 0.235581 0)
(2.36308 0.0663406 0)
(2.2338 0.0726383 0)
(1.93839 0.0548832 0)
(1.8375 0.107805 0)
(1.67219 0.142482 0)
(1.29212 0.0577509 0)
(2.23146 0.210408 0)
(2.29562 0.0573654 0)
(2.18506 0.0857093 0)
(1.91142 0.0593003 0)
(1.81039 0.0890187 0)
(1.67437 0.132361 0)
(1.29143 0.048879 0)
(2.02664 0.142133 0)
(2.04928 0.00977876 0)
(1.96723 0.0731129 0)
(1.79663 0.0761664 0)
(1.75144 0.0847418 0)
(1.662 0.125561 0)
(1.29837 0.0423562 0)
(1.59032 0.0896495 0)
(1.54259 0.030848 0)
(1.54467 0.08136 0)
(2.12753 -0.0679796 0)
(2.32478 0.0921824 0)
(2.31897 0.301034 0)
(2.2599 0.310337 0)
(2.07999 0.234811 0)
(1.90365 0.148731 0)
(1.47183 0.0678932 0)
(2.13682 -0.0468171 0)
(2.35595 0.133316 0)
(2.32269 0.328501 0)
(2.25899 0.329461 0)
(2.06621 0.247251 0)
(1.8884 0.158293 0)
(1.46382 0.0715104 0)
(2.15278 -0.0177317 0)
(2.37646 0.159865 0)
(2.32847 0.361971 0)
(2.26115 0.355306 0)
(2.05492 0.262258 0)
(1.8737 0.16906 0)
(1.45531 0.0749225 0)
(2.17112 0.00994301 0)
(2.3942 0.204141 0)
(2.33448 0.393684 0)
(2.26457 0.379055 0)
(2.04496 0.27622 0)
(1.86064 0.178623 0)
(1.44688 0.0771958 0)
(2.19376 0.0405998 0)
(2.39264 0.236842 0)
(2.3485 0.424679 0)
(2.27198 0.400971 0)
(2.03766 0.287403 0)
(1.85074 0.188499 0)
(1.43999 0.0802817 0)
(2.22006 0.0768324 0)
(2.38495 0.278215 0)
(2.36962 0.456856 0)
(2.2865 0.426683 0)
(2.0363 0.302071 0)
(1.84585 0.199529 0)
(1.43476 0.0832229 0)
(2.24421 0.116425 0)
(2.38204 0.322547 0)
(2.38487 0.488169 0)
(2.30144 0.452382 0)
(2.03443 0.312462 0)
(1.84497 0.209915 0)
(1.43157 0.0868562 0)
(2.26403 0.152183 0)
(2.38587 0.36519 0)
(2.39297 0.517061 0)
(2.31151 0.476565 0)
(2.02886 0.317231 0)
(1.84497 0.217541 0)
(1.42941 0.0908261 0)
(2.28914 0.206375 0)
(2.3987 0.418106 0)
(2.40064 0.549063 0)
(2.31117 0.487103 0)
(2.02024 0.316257 0)
(1.84197 0.220273 0)
(1.42652 0.0949868 0)
(2.30579 0.244631 0)
(2.40715 0.462364 0)
(2.40872 0.58344 0)
(2.30656 0.487636 0)
(2.0086 0.288359 0)
(1.83753 0.212757 0)
(1.42169 0.0988005 0)
(2.33021 0.308004 0)
(2.42491 0.530741 0)
(2.41789 0.609675 0)
(2.29664 0.40755 0)
(1.98986 0.218351 0)
(1.8309 0.188695 0)
(1.41598 0.1015 0)
(2.34771 0.358701 0)
(2.43478 0.574477 0)
(2.42567 0.621187 0)
(2.27321 0.28391 0)
(1.98126 0.170372 0)
(1.82374 0.16984 0)
(1.40705 0.101512 0)
(2.36697 0.43443 0)
(2.44629 0.622615 0)
(2.42437 0.604493 0)
(2.21834 0.193213 0)
(1.98556 0.144911 0)
(1.8164 0.159314 0)
(1.39574 0.0987362 0)
(2.38552 0.502095 0)
(2.45886 0.679376 0)
(2.41294 0.518999 0)
(2.17237 0.146566 0)
(1.9903 0.141167 0)
(1.81031 0.160055 0)
(1.38545 0.0958825 0)
(2.41556 0.582763 0)
(2.45733 0.700815 0)
(2.39739 0.444004 0)
(2.12253 0.115924 0)
(1.98326 0.131874 0)
(1.8037 0.163292 0)
(1.37791 0.0935308 0)
(2.44732 0.653024 0)
(2.45742 0.732487 0)
(2.37845 0.370066 0)
(2.07914 0.098938 0)
(1.9706 0.125995 0)
(1.79785 0.165049 0)
(1.3714 0.0927422 0)
(2.46225 0.759755 0)
(2.45928 0.768142 0)
(2.32617 0.276611 0)
(2.03865 0.0900143 0)
(1.95348 0.124406 0)
(1.78746 0.16726 0)
(1.36368 0.0929978 0)
(2.45941 0.796872 0)
(2.44328 0.762736 0)
(2.2435 0.171187 0)
(2.00399 0.0786263 0)
(1.93397 0.118515 0)
(1.77298 0.166845 0)
(1.35381 0.0923971 0)
(2.47035 0.837884 0)
(2.41653 0.552748 0)
(2.21342 0.124889 0)
(1.97411 0.0695214 0)
(1.91077 0.111356 0)
(1.75508 0.162917 0)
(1.34277 0.090593 0)
(2.42834 0.642736 0)
(2.37615 0.324071 0)
(2.19725 0.0830639 0)
(1.95168 0.0573227 0)
(1.88624 0.101212 0)
(1.73403 0.154924 0)
(1.33104 0.0866709 0)
(1.98671 -0.0109126 0)
(1.96209 -0.0164804 0)
(1.98989 0.00230822 0)
(2.01264 0.00687985 0)
(2.03886 0.0106401 0)
(1.96479 0.0135828 0)
(1.54411 0.0082052 0)
(1.99092 -0.0355096 0)
(1.96122 -0.0285557 0)
(1.99165 0.00873843 0)
(2.01447 0.0255178 0)
(2.03845 0.0375623 0)
(1.96778 0.0426297 0)
(1.54604 0.0288109 0)
(1.98641 -0.0557717 0)
(1.96499 -0.0437963 0)
(1.99991 0.00474721 0)
(2.02356 0.0393218 0)
(2.03906 0.0616738 0)
(1.95895 0.0689958 0)
(1.53789 0.0443757 0)
(1.98208 -0.0716319 0)
(1.97317 -0.0619384 0)
(2.01051 -0.00174785 0)
(2.03439 0.0532923 0)
(2.0451 0.0863688 0)
(1.96255 0.0943335 0)
(1.53355 0.0593862 0)
(1.97258 -0.0909341 0)
(1.9777 -0.0823687 0)
(2.0188 -0.0197883 0)
(2.04757 0.0547887 0)
(2.05012 0.0994093 0)
(1.95962 0.111344 0)
(1.52441 0.0687185 0)
(1.96124 -0.125209 0)
(1.98454 -0.120802 0)
(2.02252 -0.059881 0)
(2.06443 0.0390868 0)
(2.06229 0.104913 0)
(1.95968 0.125183 0)
(1.51223 0.0769397 0)
(1.9443 -0.187139 0)
(1.98725 -0.188759 0)
(2.03559 -0.129934 0)
(2.08526 0.00121418 0)
(2.08161 0.0915054 0)
(1.96034 0.120053 0)
(1.49822 0.0765954 0)
(1.92857 -0.261072 0)
(1.9841 -0.247398 0)
(2.05776 -0.183816 0)
(2.11314 -0.0513601 0)
(2.09787 0.0566083 0)
(1.95906 0.107307 0)
(1.48456 0.0751519 0)
(1.92682 -0.30888 0)
(1.98456 -0.282648 0)
(2.0764 -0.207718 0)
(2.13904 -0.0854013 0)
(2.11991 0.0147804 0)
(1.96668 0.0776389 0)
(1.47275 0.0659072 0)
(1.91945 -0.33883 0)
(1.99194 -0.297875 0)
(2.09226 -0.212263 0)
(2.15774 -0.0962847 0)
(2.13941 -0.0225545 0)
(1.97557 0.0411855 0)
(1.47124 0.0565467 0)
(1.90466 -0.3528 0)
(2.0043 -0.29721 0)
(2.11253 -0.193627 0)
(2.17439 -0.0878579 0)
(2.15222 -0.0375287 0)
(1.98667 0.00210873 0)
(1.47904 0.0362002 0)
(1.90785 -0.358773 0)
(2.02204 -0.275167 0)
(2.13243 -0.150285 0)
(2.1876 -0.0546331 0)
(2.15859 -0.0362451 0)
(1.99646 -0.0186466 0)
(1.49328 0.0144963 0)
(1.92158 -0.34705 0)
(2.04584 -0.244764 0)
(2.15624 -0.106609 0)
(2.19603 -0.0105501 0)
(2.16075 -0.0155257 0)
(2.00205 -0.0187603 0)
(1.50956 0.00293955 0)
(1.94445 -0.320314 0)
(2.07406 -0.208057 0)
(2.18553 -0.0650413 0)
(2.20047 0.0279961 0)
(2.16018 0.0185923 0)
(2.00267 -0.00149795 0)
(1.52285 0.00490619 0)
(1.96838 -0.28772 0)
(2.09984 -0.174976 0)
(2.21645 -0.0242719 0)
(2.20857 0.067829 0)
(2.15859 0.0566069 0)
(1.99852 0.0301144 0)
(1.52603 0.0167567 0)
(1.99135 -0.253993 0)
(2.1277 -0.134919 0)
(2.25125 0.0274424 0)
(2.21439 0.10191 0)
(2.15085 0.0812194 0)
(1.98656 0.0500486 0)
(1.52134 0.0283444 0)
(2.02259 -0.216984 0)
(2.15387 -0.102166 0)
(2.27456 0.0767308 0)
(2.22683 0.14642 0)
(2.14725 0.121174 0)
(1.97946 0.079736 0)
(1.51545 0.0418575 0)
(2.05233 -0.184004 0)
(2.19472 -0.0518145 0)
(2.29269 0.137572 0)
(2.23552 0.182406 0)
(2.13176 0.142608 0)
(1.96064 0.0881807 0)
(1.50343 0.0459433 0)
(2.084 -0.143567 0)
(2.23126 -0.0142599 0)
(2.29952 0.191934 0)
(2.25046 0.233943 0)
(2.12028 0.181577 0)
(1.9469 0.112976 0)
(1.49547 0.0547476 0)
(2.10765 -0.107882 0)
(2.29044 0.0581762 0)
(2.30925 0.25397 0)
(2.25381 0.268455 0)
(2.09551 0.204804 0)
(1.92295 0.129415 0)
(1.48297 0.0613543 0)
)
;

boundaryField
{
    inlet
    {
        type            fixedValue;
        value           nonuniform List<vector> 0();
    }
    outlet
    {
        type            inletOutlet;
        inletValue      uniform (3 0 0);
        value           nonuniform List<vector> 
46
(
(1.3192 0.0816692 0)
(1.30808 0.0754697 0)
(1.29803 0.0674373 0)
(1.29212 0.0577509 0)
(1.29143 0.048879 0)
(1.29837 0.0423562 0)
(1.47183 0.0678932 0)
(1.46382 0.0715104 0)
(1.45531 0.0749225 0)
(1.44688 0.0771958 0)
(1.43999 0.0802817 0)
(1.43476 0.0832229 0)
(1.43157 0.0868562 0)
(1.42941 0.0908261 0)
(1.42652 0.0949868 0)
(1.42169 0.0988005 0)
(1.41598 0.1015 0)
(1.40705 0.101512 0)
(1.39574 0.0987362 0)
(1.38545 0.0958825 0)
(1.37791 0.0935308 0)
(1.3714 0.0927422 0)
(1.36368 0.0929978 0)
(1.35381 0.0923971 0)
(1.34277 0.090593 0)
(1.33104 0.0866709 0)
(1.54411 0.0082052 0)
(1.54604 0.0288109 0)
(1.53789 0.0443757 0)
(1.53355 0.0593862 0)
(1.52441 0.0687185 0)
(1.51223 0.0769397 0)
(1.49822 0.0765954 0)
(1.48456 0.0751519 0)
(1.47275 0.0659072 0)
(1.47124 0.0565467 0)
(1.47904 0.0362002 0)
(1.49328 0.0144963 0)
(1.50956 0.00293955 0)
(1.52285 0.00490619 0)
(1.52603 0.0167567 0)
(1.52134 0.0283444 0)
(1.51545 0.0418575 0)
(1.50343 0.0459433 0)
(1.49547 0.0547476 0)
(1.48297 0.0613543 0)
)
;
    }
    triangle
    {
        type            slip;
    }
    top
    {
        type            symmetryPlane;
    }
    bottom
    {
        type            symmetryPlane;
    }
    defaultFaces
    {
        type            empty;
    }
    procBoundary3to2
    {
        type            processor;
        value           nonuniform List<vector> 
47
(
(2.39263 0.714446 0)
(2.4404 0.609547 0)
(2.40839 0.533445 0)
(2.2985 0.477102 0)
(2.03564 0.420087 0)
(1.61506 0.316704 0)
(1.06828 0.245554 0)
(1.97113 -0.243332 0)
(1.99137 -0.218932 0)
(2.0116 -0.194437 0)
(2.03422 -0.166183 0)
(2.05651 -0.136402 0)
(2.08057 -0.103418 0)
(2.1074 -0.0652613 0)
(2.13222 -0.0289354 0)
(2.16358 0.0190522 0)
(2.18776 0.0609867 0)
(2.21883 0.120863 0)
(2.24237 0.178407 0)
(2.26389 0.244003 0)
(2.28704 0.336755 0)
(2.29722 0.403344 0)
(2.32061 0.529421 0)
(2.33684 0.629199 0)
(2.35149 0.735896 0)
(2.34466 0.854773 0)
(2.36031 0.843523 0)
(2.02362 -0.00130912 0)
(2.02238 -0.00651996 0)
(2.01793 -0.0124482 0)
(2.01096 -0.0196329 0)
(2.00123 -0.0270401 0)
(1.98602 -0.0389739 0)
(1.96396 -0.0658744 0)
(1.92825 -0.127481 0)
(1.87114 -0.226284 0)
(1.83101 -0.312141 0)
(1.82898 -0.370049 0)
(1.83291 -0.389969 0)
(1.81846 -0.408555 0)
(1.80698 -0.41743 0)
(1.80719 -0.401356 0)
(1.81938 -0.380789 0)
(1.8493 -0.362017 0)
(1.88284 -0.337238 0)
(1.91635 -0.307781 0)
(1.94833 -0.272551 0)
)
;
    }
    procBoundary3to7
    {
        type            processor;
        value           nonuniform List<vector> 8((1.56736 0.073516 0) (1.65529 0.0628969 0) (1.6279 0.108985 0) (1.30272 0.0350045 0) (0.963532 0.0830094 0) (0.95835 0.0091602 0) (1.56736 0.073516 0) (1.07205 0.0523045 0));
    }
}


// ************************************************************************* //
