/*--------------------------------*- C++ -*----------------------------------*\
  =========                 |
  \\      /  F ield         | OpenFOAM: The Open Source CFD Toolbox
   \\    /   O peration     | Website:  https://openfoam.org
    \\  /    A nd           | Version:  7
     \\/     M anipulation  |
\*---------------------------------------------------------------------------*/
FoamFile
{
    version     2.0;
    format      ascii;
    class       volScalarField;
    location    "0.2";
    object      T;
}
// * * * * * * * * * * * * * * * * * * * * * * * * * * * * * * * * * * * * * //

dimensions      [0 0 0 1 0 0 0];

internalField   nonuniform List<scalar> 
3225
(
0.648209
0.528381
0.421173
0.42117
0.425456
0.718995
0.720782
0.724584
0.72897
0.732109
0.732494
0.72998
0.72624
0.722857
0.717806
0.711365
0.685132
0.612776
0.523285
0.421389
0.421284
0.425524
0.74035
0.742287
0.746086
0.748892
0.748756
0.743793
0.735252
0.727376
0.721212
0.715307
0.701595
0.655591
0.599352
0.524714
0.421489
0.421351
0.425562
0.759746
0.763999
0.773109
0.781465
0.783872
0.777093
0.760295
0.739083
0.721846
0.709276
0.682033
0.6277
0.596004
0.526285
0.421255
0.421023
0.425603
0.764777
0.771479
0.784821
0.797868
0.804248
0.802887
0.790551
0.767063
0.73438
0.700411
0.654458
0.614105
0.596691
0.527071
0.421258
0.420781
0.425689
0.767659
0.77595
0.792617
0.809141
0.817908
0.818483
0.808873
0.787937
0.7511
0.692391
0.633659
0.61075
0.597663
0.527227
0.421252
0.420658
0.42586
0.767659
0.77595
0.792617
0.809141
0.817908
0.818483
0.808873
0.787937
0.7511
0.692391
0.633659
0.61075
0.597663
0.527227
0.421252
0.420658
0.42586
0.764777
0.771479
0.784821
0.797868
0.804248
0.802887
0.790551
0.767063
0.73438
0.700411
0.654458
0.614105
0.596691
0.527071
0.421258
0.420781
0.425689
0.759746
0.763999
0.773109
0.781465
0.783872
0.777093
0.760295
0.739083
0.721846
0.709276
0.682033
0.6277
0.596004
0.526285
0.421255
0.421023
0.425603
0.74035
0.742287
0.746086
0.748892
0.748756
0.743793
0.735252
0.727376
0.721212
0.715307
0.701595
0.655591
0.599352
0.524714
0.421489
0.421351
0.425562
0.718995
0.720782
0.724584
0.72897
0.732109
0.732494
0.72998
0.72624
0.722857
0.717806
0.711365
0.685132
0.612776
0.523285
0.421389
0.421284
0.425524
0.71436
0.716709
0.721808
0.727325
0.730845
0.731639
0.73004
0.726529
0.723136
0.718657
0.715423
0.706497
0.648209
0.528381
0.421173
0.42117
0.425456
0.715853
0.718185
0.723064
0.728175
0.731431
0.732165
0.730489
0.726944
0.72264
0.71869
0.717635
0.719079
0.698715
0.566588
0.421641
0.420897
0.425276
0.718903
0.72086
0.724924
0.729148
0.732011
0.732637
0.731075
0.727283
0.722446
0.718875
0.719735
0.726227
0.734515
0.660442
0.435107
0.421076
0.425233
0.721211
0.722546
0.725745
0.729261
0.731688
0.732495
0.731501
0.728269
0.723388
0.720095
0.721367
0.732255
0.7468
0.730321
0.533904
0.419476
0.42483
0.722293
0.72309
0.725655
0.728719
0.731062
0.732013
0.73156
0.729469
0.725265
0.722412
0.72358
0.734318
0.75112
0.761016
0.660427
0.420284
0.424054
0.722685
0.722762
0.724803
0.727352
0.729456
0.730837
0.731441
0.730358
0.727769
0.725841
0.726376
0.733341
0.750546
0.769067
0.737293
0.446348
0.423027
0.72271
0.722673
0.724402
0.72654
0.728102
0.729183
0.73022
0.730788
0.730047
0.729386
0.729346
0.73134
0.745132
0.766752
0.77263
0.557813
0.42187
0.723385
0.723202
0.724722
0.726541
0.727657
0.728212
0.729048
0.730512
0.731721
0.732127
0.731336
0.729807
0.740666
0.767614
0.789811
0.67205
0.422486
0.724532
0.724248
0.72557
0.727229
0.728079
0.728155
0.72863
0.730264
0.732194
0.7334
0.731635
0.729686
0.738983
0.766783
0.792111
0.748856
0.447387
0.725778
0.725416
0.72665
0.728311
0.729058
0.728881
0.729187
0.730344
0.731956
0.733162
0.73159
0.730003
0.738549
0.763898
0.788833
0.791228
0.538161
0.726857
0.726433
0.727696
0.729646
0.730716
0.730578
0.730428
0.731006
0.731849
0.732503
0.731064
0.730279
0.739052
0.761966
0.791545
0.813822
0.645926
0.727593
0.727098
0.728391
0.730625
0.732165
0.732598
0.732429
0.732213
0.73207
0.731641
0.73019
0.730524
0.740123
0.761882
0.7942
0.819986
0.728553
0.727794
0.727163
0.728315
0.730847
0.733204
0.734249
0.734344
0.733874
0.732823
0.731238
0.729459
0.730857
0.740869
0.762089
0.792811
0.815848
0.78415
0.727661
0.72698
0.728021
0.730284
0.733
0.734963
0.735807
0.735613
0.734013
0.731396
0.729331
0.730973
0.740418
0.761071
0.790938
0.813358
0.819285
0.72756
0.726873
0.727889
0.729888
0.732391
0.734483
0.735906
0.736572
0.735302
0.732236
0.729914
0.7307
0.739012
0.758684
0.787968
0.814114
0.833472
0.727816
0.727194
0.728248
0.730061
0.731993
0.733816
0.735325
0.73633
0.736098
0.733655
0.73101
0.730588
0.73802
0.756371
0.785097
0.812899
0.834591
0.728603
0.728115
0.729283
0.731017
0.732414
0.733465
0.734581
0.735567
0.736105
0.734946
0.73239
0.731277
0.738119
0.755096
0.782528
0.809559
0.829194
0.729778
0.72946
0.730844
0.732742
0.733859
0.734076
0.734244
0.734789
0.735408
0.735397
0.733934
0.732882
0.739345
0.755097
0.780893
0.806605
0.827824
0.730979
0.730838
0.732526
0.734848
0.735967
0.735701
0.734901
0.734402
0.734477
0.735062
0.735003
0.735378
0.741858
0.756346
0.780231
0.804898
0.827987
0.731748
0.731774
0.733762
0.736775
0.738291
0.737994
0.736483
0.734798
0.733882
0.734238
0.735198
0.737825
0.745143
0.758605
0.780431
0.804481
0.827118
0.731919
0.732035
0.734135
0.737643
0.740148
0.7404
0.738738
0.73606
0.733916
0.733452
0.734978
0.739034
0.747297
0.760903
0.781333
0.804633
0.826667
0.731724
0.731897
0.733996
0.737529
0.740577
0.741909
0.741049
0.738114
0.734796
0.733255
0.734322
0.73877
0.747979
0.762145
0.78213
0.804619
0.826573
0.731325
0.731607
0.733753
0.737048
0.740168
0.741906
0.742235
0.740352
0.73647
0.733884
0.733897
0.737875
0.747179
0.761876
0.781985
0.804177
0.82639
0.7311
0.73156
0.73381
0.736708
0.739399
0.741218
0.742013
0.741501
0.738553
0.735174
0.734023
0.737406
0.746031
0.760762
0.780548
0.80265
0.825216
0.731434
0.732154
0.73461
0.737247
0.739039
0.740255
0.741051
0.741259
0.739889
0.736951
0.735065
0.737617
0.74563
0.759897
0.778825
0.800278
0.822838
0.732318
0.733303
0.736034
0.738703
0.739896
0.739886
0.73999
0.740255
0.739843
0.738443
0.736931
0.738848
0.746137
0.759919
0.777788
0.798011
0.819812
0.733435
0.734566
0.737546
0.740525
0.741618
0.740935
0.739725
0.739093
0.73905
0.73889
0.738818
0.741009
0.747895
0.760966
0.777768
0.796728
0.817103
0.734257
0.73532
0.738404
0.742004
0.743617
0.742813
0.740789
0.738821
0.738213
0.73848
0.739811
0.743178
0.750792
0.763242
0.77875
0.796581
0.815567
0.734464
0.73541
0.73843
0.742457
0.74495
0.744853
0.742653
0.739894
0.738145
0.738084
0.739693
0.744428
0.753039
0.766012
0.780743
0.797318
0.815178
0.734292
0.735069
0.737788
0.741892
0.744999
0.745933
0.744711
0.741685
0.739142
0.738271
0.739613
0.744362
0.753813
0.767736
0.782932
0.798642
0.81558
0.734044
0.734586
0.736915
0.740548
0.744055
0.745663
0.745735
0.743711
0.740812
0.739303
0.740109
0.744249
0.753143
0.767394
0.784003
0.800108
0.816463
0.734044
0.734493
0.736722
0.739542
0.742443
0.744503
0.745313
0.744775
0.742666
0.740981
0.741297
0.744626
0.752514
0.766164
0.783207
0.800568
0.817294
0.734574
0.735176
0.73764
0.740008
0.74161
0.743072
0.74401
0.744228
0.743651
0.742701
0.74303
0.745741
0.752774
0.765416
0.782285
0.800153
0.817492
0.73547
0.736288
0.739105
0.74158
0.74258
0.742622
0.742749
0.742837
0.743104
0.743489
0.744545
0.747485
0.754219
0.766127
0.782221
0.799964
0.817502
0.736248
0.737172
0.740391
0.743415
0.744349
0.743896
0.742721
0.741675
0.741778
0.742785
0.744913
0.749108
0.75652
0.768124
0.783619
0.800685
0.817747
0.736522
0.737363
0.740749
0.744644
0.74641
0.745935
0.744067
0.741894
0.740751
0.741441
0.744044
0.749643
0.758487
0.770898
0.786233
0.802614
0.818989
0.73624
0.736775
0.73996
0.744566
0.747547
0.747955
0.7463
0.743105
0.741075
0.740722
0.742733
0.748709
0.758963
0.772938
0.789269
0.805729
0.82147
0.735658
0.735719
0.73803
0.742914
0.74713
0.748864
0.747937
0.745343
0.742264
0.741301
0.742333
0.747432
0.757802
0.772992
0.791148
0.809213
0.824914
0.735404
0.735209
0.736384
0.740121
0.745058
0.747989
0.748311
0.746801
0.744408
0.742547
0.743289
0.747141
0.756323
0.771352
0.790948
0.81123
0.828874
0.735764
0.735435
0.735969
0.738083
0.741985
0.7455
0.747001
0.747049
0.745634
0.744606
0.744947
0.747998
0.755881
0.769362
0.788996
0.811196
0.83184
0.73661
0.736411
0.736964
0.737536
0.739771
0.742515
0.744428
0.745704
0.745848
0.745675
0.746645
0.749739
0.756555
0.768569
0.786759
0.809673
0.832627
0.737481
0.737788
0.738695
0.738634
0.738944
0.740543
0.742051
0.74353
0.744927
0.745809
0.747357
0.750934
0.757872
0.768846
0.785461
0.807564
0.831836
0.737746
0.738766
0.7405
0.740467
0.73941
0.739797
0.740855
0.742257
0.743826
0.745255
0.747262
0.751201
0.758342
0.769355
0.784991
0.805754
0.830408
0.736903
0.738961
0.741687
0.742485
0.740867
0.740008
0.74061
0.742004
0.743572
0.745033
0.74705
0.75074
0.757757
0.768937
0.784577
0.804469
0.828777
0.73495
0.737911
0.741877
0.74395
0.742889
0.740922
0.740975
0.742334
0.744106
0.745743
0.747523
0.750767
0.757027
0.767556
0.782916
0.80288
0.82664
0.733367
0.735351
0.740482
0.744276
0.744834
0.742815
0.74208
0.743012
0.745075
0.747407
0.749338
0.751813
0.757265
0.766683
0.780801
0.799998
0.823356
0.732903
0.732731
0.736593
0.742805
0.746684
0.746109
0.74499
0.74548
0.747316
0.750064
0.752814
0.755554
0.759356
0.767401
0.780065
0.797452
0.819555
0.73355
0.731848
0.733263
0.739405
0.747238
0.751073
0.751786
0.752124
0.753641
0.756028
0.758855
0.761728
0.765587
0.771574
0.781803
0.797357
0.817055
0.735098
0.732894
0.733384
0.738615
0.74737
0.756767
0.762592
0.765769
0.768005
0.769668
0.771547
0.773998
0.777523
0.782562
0.789923
0.801782
0.818007
0.73722
0.736355
0.738672
0.745919
0.755816
0.765984
0.775921
0.784662
0.790891
0.794682
0.796091
0.79671
0.798332
0.802129
0.807775
0.814556
0.825508
0.738786
0.742633
0.753315
0.765199
0.776351
0.786799
0.796395
0.805879
0.815574
0.824177
0.829485
0.831026
0.830737
0.830854
0.83323
0.83741
0.842308
0.739945
0.759063
0.781971
0.800528
0.813401
0.823115
0.83013
0.836046
0.842239
0.849758
0.857668
0.863129
0.865003
0.864659
0.863928
0.864764
0.866886
0.752079
0.803028
0.824905
0.842091
0.851523
0.858579
0.864386
0.868294
0.870794
0.873339
0.876936
0.881616
0.885193
0.886818
0.887201
0.887127
0.887872
0.798923
0.877912
0.880287
0.881292
0.879714
0.879789
0.881838
0.884367
0.885743
0.886122
0.886583
0.888817
0.892287
0.894685
0.895857
0.897391
0.899217
0.883873
0.924946
0.910443
0.898374
0.890449
0.887216
0.886628
0.887436
0.888195
0.888145
0.887767
0.888186
0.890161
0.892998
0.895402
0.898015
0.900762
0.953426
0.867682
0.869585
0.874083
0.872053
0.870164
0.868623
0.86826
0.869062
0.870115
0.870496
0.870522
0.871487
0.873971
0.877353
0.881637
0.885385
0.961286
0.836087
0.820033
0.8263
0.834321
0.833566
0.8302
0.828714
0.830158
0.834389
0.837677
0.838371
0.838585
0.839654
0.843241
0.849258
0.855086
0.981822
0.862406
0.812919
0.795703
0.793761
0.797207
0.79684
0.796283
0.797772
0.800795
0.802696
0.803253
0.803796
0.805873
0.810194
0.816054
0.82195
1.00061
0.900135
0.832439
0.792964
0.777022
0.779982
0.780565
0.780114
0.780752
0.780349
0.780648
0.782171
0.78497
0.788241
0.79193
0.796262
0.800611
1.01485
0.931633
0.864512
0.813203
0.780504
0.776069
0.77337
0.77312
0.774966
0.775055
0.775179
0.776832
0.77833
0.779269
0.781499
0.785394
0.789969
1.02498
0.953971
0.892951
0.842419
0.795324
0.779062
0.771597
0.772055
0.774539
0.775998
0.776836
0.777251
0.776797
0.776466
0.778015
0.781009
0.785053
1.03147
0.970883
0.915603
0.866176
0.819153
0.793684
0.778764
0.773918
0.774958
0.776957
0.77788
0.777575
0.776521
0.776112
0.777417
0.779714
0.783275
1.03557
0.983589
0.934156
0.886394
0.842042
0.811388
0.790646
0.779512
0.775663
0.777116
0.778523
0.778529
0.777738
0.77756
0.778288
0.779855
0.783163
1.03908
0.99306
0.949029
0.904326
0.862608
0.829635
0.804334
0.790105
0.779973
0.777642
0.778724
0.780428
0.78026
0.780528
0.78092
0.781639
0.784256
1.04265
1.0008
0.961451
0.919443
0.880012
0.848843
0.817957
0.800097
0.786119
0.778706
0.779408
0.781757
0.782663
0.783362
0.783456
0.783868
0.786368
1.04628
1.00772
0.971908
0.932905
0.894336
0.865945
0.833761
0.81029
0.796325
0.783175
0.782195
0.783361
0.783902
0.784408
0.784736
0.785607
0.788296
1.04977
1.01396
0.981111
0.944819
0.907591
0.880777
0.849511
0.82251
0.807328
0.790999
0.787021
0.784941
0.784808
0.785152
0.785741
0.787158
0.789999
1.05308
1.01993
0.989229
0.955376
0.920465
0.893691
0.863931
0.837419
0.818674
0.800463
0.794161
0.789037
0.786487
0.786553
0.787359
0.788667
0.791141
1.0559
1.02532
0.996746
0.964701
0.932455
0.906214
0.876521
0.851741
0.832429
0.81097
0.800919
0.793553
0.789102
0.78907
0.789985
0.790607
0.79234
1.05813
1.03009
1.0034
0.973234
0.942967
0.918148
0.888881
0.863982
0.845667
0.823134
0.808731
0.799262
0.792974
0.792907
0.7933
0.793175
0.794208
1.05972
1.03402
1.00917
0.980872
0.952265
0.928839
0.900529
0.875968
0.857183
0.83476
0.818871
0.806658
0.797412
0.796733
0.796256
0.796017
0.796623
1.06109
1.03715
1.01413
0.987535
0.960483
0.938188
0.911052
0.887628
0.86822
0.845263
0.829314
0.816229
0.80381
0.801369
0.7989
0.798575
0.799078
1.06249
1.03982
1.01837
0.993484
0.967829
0.946557
0.920428
0.898028
0.879455
0.855975
0.839471
0.826422
0.812603
0.807117
0.801919
0.800451
0.801321
1.06394
1.04241
1.02225
0.998945
0.974468
0.954203
0.92934
0.907599
0.889622
0.866958
0.850646
0.836489
0.821209
0.813917
0.807095
0.803547
0.804093
1.06547
1.04505
1.02591
1.00415
0.980866
0.96135
0.93756
0.916894
0.899502
0.877067
0.861416
0.846986
0.830435
0.820731
0.812741
0.807626
0.807515
1.06693
1.04767
1.02947
1.00904
0.986943
0.968232
0.945522
0.925469
0.908703
0.887039
0.871403
0.8568
0.839732
0.828883
0.819702
0.812621
0.811265
1.06829
1.05011
1.0328
1.01357
0.992698
0.974794
0.952932
0.933729
0.917341
0.896164
0.880805
0.866269
0.848673
0.83793
0.827339
0.819313
0.815805
1.06968
1.0524
1.03596
1.01773
0.997894
0.980906
0.960062
0.941291
0.925394
0.90488
0.889671
0.875266
0.857606
0.847422
0.835808
0.826302
0.820428
1.07115
1.05464
1.03897
1.02167
1.00274
0.986542
0.966636
0.948575
0.933035
0.912974
0.898155
0.884121
0.866639
0.856283
0.844701
0.834076
0.825751
1.07275
1.05693
1.04197
1.02554
1.00732
0.991861
0.972929
0.955336
0.940332
0.920875
0.906314
0.892564
0.875642
0.864997
0.852822
0.840986
0.833095
1.07438
1.05927
1.0449
1.02935
1.01183
0.996909
0.978827
0.961858
0.947302
0.928415
0.914183
0.90076
0.884015
0.873324
0.860827
0.847398
0.839966
1.0759
1.06158
1.04776
1.03298
1.01614
1.00175
0.984456
0.967945
0.95391
0.935673
0.921672
0.908489
0.891737
0.881019
0.868431
0.854578
0.846666
1.07732
1.06374
1.05047
1.03634
1.02017
1.00631
0.989731
0.973696
0.960124
0.942449
0.92864
0.915695
0.899115
0.888106
0.875585
0.86201
0.854168
1.07882
1.06571
1.05298
1.03947
1.02391
1.01056
0.994699
0.979028
0.965907
0.948833
0.935187
0.922298
0.90601
0.89506
0.8827
0.869019
0.861626
1.0805
1.06762
1.05534
1.04245
1.02744
1.01455
0.999372
0.984065
0.971312
0.954785
0.941321
0.928691
0.912539
0.901735
0.889854
0.876132
0.868605
1.08216
1.06961
1.0576
1.04527
1.03081
1.01834
1.00381
0.988834
0.976414
0.960427
0.947142
0.934806
0.918972
0.908317
0.896739
0.883064
0.875185
1.08352
1.07159
1.05981
1.04797
1.03402
1.02192
1.008
0.993375
0.981276
0.965777
0.952693
0.940713
0.92527
0.914725
0.903337
0.889692
0.881492
1.08451
1.07336
1.06197
1.05051
1.03702
1.02524
1.01192
0.997662
0.985869
0.970883
0.958003
0.946359
0.931304
0.920894
0.909675
0.89584
0.887591
1.08529
1.07476
1.06393
1.05286
1.03977
1.02829
1.01551
1.00167
0.990211
0.975699
0.963023
0.951784
0.937056
0.926652
0.915685
0.90189
0.893439
1.0863
1.07595
1.0656
1.05503
1.04235
1.03114
1.01886
1.00541
0.994296
0.980293
0.967786
0.956886
0.942543
0.932149
0.921354
0.907687
0.899278
1.08773
1.07719
1.06708
1.05704
1.04483
1.03388
1.02205
1.00896
0.998166
0.984667
0.972354
0.961762
0.947728
0.937343
0.926898
0.91332
0.904873
1.08907
1.07868
1.06859
1.05894
1.04722
1.03655
1.02516
1.01239
1.00189
0.988871
0.97671
0.966426
0.952713
0.942313
0.932189
0.918848
0.910323
1.09014
1.08019
1.07018
1.06078
1.0495
1.03913
1.02816
1.01572
1.00546
0.992901
0.980874
0.97086
0.9575
0.947097
0.937299
0.924156
0.915542
1.09087
1.08159
1.0718
1.06255
1.05165
1.04156
1.03102
1.01891
1.00889
0.996736
0.984824
0.975082
0.962095
0.951686
0.942207
0.929277
0.920562
1.09139
1.08275
1.07336
1.06428
1.05367
1.04383
1.03368
1.02192
1.01213
1.00039
0.988577
0.97909
0.96652
0.956081
0.946907
0.934232
0.925441
1.09196
1.08366
1.07478
1.06598
1.05561
1.04596
1.03617
1.02475
1.01519
1.00387
0.99219
0.982931
0.970774
0.9603
0.951436
0.93905
0.93021
1.09278
1.08449
1.07601
1.06762
1.05752
1.04802
1.03853
1.02742
1.01809
1.00722
0.995709
0.986642
0.974901
0.964359
0.9558
0.943787
0.934874
1.09376
1.0854
1.0771
1.06914
1.0594
1.05006
1.04082
1.02998
1.02085
1.01044
0.999155
0.990252
0.978918
0.968317
0.960024
0.948408
0.939402
1.09473
1.08645
1.07818
1.0705
1.06121
1.05208
1.04308
1.03248
1.0235
1.01353
1.00251
0.993761
0.982861
0.972194
0.964107
0.952923
0.943717
1.09556
1.08762
1.07934
1.07179
1.0629
1.05406
1.04532
1.03495
1.02606
1.01645
1.00576
0.997145
0.986718
0.976029
0.968044
0.957283
0.947827
1.09619
1.08874
1.08059
1.07304
1.06447
1.05594
1.04751
1.03741
1.02858
1.01924
1.00886
1.00037
0.990456
0.979799
0.971827
0.961524
0.951707
1.09674
1.0897
1.08187
1.07438
1.06596
1.05769
1.04962
1.03982
1.03109
1.02191
1.01183
1.00338
0.993995
0.983484
0.975423
0.965651
0.955473
1.09735
1.09051
1.08305
1.07575
1.06741
1.05932
1.05157
1.04212
1.03356
1.02448
1.01466
1.00618
0.997261
0.98704
0.978805
0.969674
0.959216
1.0981
1.09127
1.08408
1.07708
1.06888
1.06086
1.05332
1.04422
1.03591
1.02694
1.01739
1.00881
1.00023
0.990459
0.981956
0.973538
0.963046
1.09887
1.0921
1.08502
1.07827
1.07031
1.06233
1.05492
1.04613
1.03813
1.02929
1.02006
1.01141
1.00294
0.993756
0.984945
0.977165
0.966973
1.09955
1.09297
1.08595
1.07936
1.07166
1.06381
1.05647
1.04792
1.04024
1.03157
1.02268
1.01405
1.00554
0.996958
0.987894
0.980526
0.970924
1.10015
1.09382
1.0869
1.08041
1.07297
1.0653
1.05805
1.04967
1.04228
1.03381
1.02528
1.01676
1.00814
1.00008
0.990891
0.983674
0.974782
1.10075
1.09459
1.08787
1.08151
1.07428
1.06683
1.05968
1.05144
1.04426
1.03601
1.02783
1.01952
1.0108
1.00313
0.993939
0.986692
0.978459
1.10143
1.09533
1.08881
1.08262
1.07558
1.06836
1.06136
1.05323
1.04618
1.03812
1.03027
1.02224
1.01348
1.0061
0.996986
0.989619
0.981921
1.10217
1.09608
1.08969
1.08367
1.07683
1.06983
1.06301
1.055
1.04803
1.04011
1.03251
1.0248
1.01611
1.00894
0.999973
0.992462
0.985166
1.10287
1.09689
1.09053
1.08463
1.07799
1.07119
1.06454
1.05667
1.04979
1.04197
1.03454
1.02714
1.0186
1.01162
1.00285
0.995226
0.988222
1.10344
1.0977
1.09139
1.08553
1.07905
1.07243
1.06595
1.05825
1.05148
1.04377
1.03645
1.0293
1.02095
1.01416
1.00563
0.997924
0.99113
1.10389
1.09846
1.09227
1.08643
1.08004
1.07358
1.06728
1.05979
1.05315
1.04558
1.03833
1.03137
1.02319
1.01658
1.00832
1.00058
0.993942
1.10436
1.09913
1.09315
1.08737
1.08103
1.07468
1.06857
1.06131
1.05482
1.04742
1.04023
1.03343
1.0254
1.01892
1.01097
1.00322
0.996696
1.10493
1.09976
1.094
1.08837
1.08209
1.07582
1.06985
1.06282
1.05648
1.04928
1.04215
1.0355
1.02762
1.02121
1.01358
1.00585
0.999414
1.10559
1.1004
1.09481
1.08937
1.08321
1.07699
1.07114
1.0643
1.05811
1.05112
1.04407
1.03757
1.02982
1.02344
1.01613
1.00845
1.00209
1.10625
1.10109
1.09558
1.09032
1.08434
1.07819
1.07242
1.06574
1.05967
1.05289
1.04592
1.03957
1.03197
1.02559
1.01858
1.01099
1.00471
1.10683
1.1018
1.09633
1.09119
1.08542
1.07936
1.07367
1.06712
1.06116
1.05457
1.04769
1.04148
1.03403
1.02764
1.0209
1.01344
1.00726
1.1073
1.10247
1.09708
1.092
1.0864
1.08047
1.07486
1.06844
1.06258
1.05615
1.04936
1.04329
1.03599
1.0296
1.02307
1.01579
1.00974
1.10772
1.10306
1.09782
1.0928
1.08732
1.0815
1.076
1.06971
1.06396
1.05769
1.05098
1.04502
1.03789
1.03153
1.02513
1.01802
1.01213
1.10818
1.1036
1.09854
1.0936
1.08821
1.08248
1.07706
1.07093
1.0653
1.05922
1.05258
1.04671
1.03977
1.03345
1.02714
1.02014
1.0144
1.1087
1.10415
1.09923
1.09441
1.08909
1.08343
1.07811
1.07212
1.06663
1.06076
1.05421
1.04837
1.04162
1.0354
1.02917
1.0222
1.01654
1.10923
1.10473
1.09991
1.09522
1.09002
1.08443
1.07916
1.07328
1.06791
1.06227
1.05583
1.05002
1.04345
1.03731
1.03118
1.02426
1.01859
1.10974
1.10532
1.1006
1.09604
1.09098
1.08547
1.08023
1.07443
1.06914
1.06371
1.05741
1.05163
1.0452
1.03917
1.03318
1.02631
1.02059
1.11024
1.10591
1.1013
1.09683
1.09194
1.08654
1.08133
1.07558
1.07027
1.06503
1.05891
1.05319
1.0469
1.04094
1.03513
1.02838
1.02258
1.11076
1.10648
1.10196
1.0976
1.09288
1.08761
1.08243
1.07669
1.07135
1.06626
1.06033
1.0547
1.04852
1.04265
1.03702
1.03041
1.02459
1.11132
1.10705
1.1026
1.09831
1.09375
1.08864
1.08352
1.07779
1.07243
1.06745
1.06172
1.05618
1.05009
1.04429
1.03884
1.03243
1.0266
1.11185
1.10762
1.10321
1.09898
1.09454
1.08958
1.08456
1.0789
1.07354
1.06863
1.0631
1.05765
1.05165
1.04587
1.04057
1.03439
1.02865
1.11233
1.10816
1.10382
1.09962
1.09527
1.09046
1.08556
1.08
1.07466
1.06981
1.06446
1.05915
1.05323
1.04742
1.04222
1.03626
1.03064
1.11278
1.10867
1.10442
1.10026
1.09599
1.09134
1.08655
1.08109
1.07578
1.071
1.06582
1.06063
1.05482
1.04903
1.04378
1.03802
1.03256
1.11323
1.10915
1.10499
1.10091
1.09676
1.09224
1.08755
1.08217
1.0769
1.07216
1.06712
1.06207
1.05641
1.05062
1.04535
1.03967
1.03432
1.11374
1.10967
1.10557
1.10158
1.09755
1.09317
1.08853
1.08323
1.07797
1.07328
1.06837
1.06342
1.05792
1.05221
1.04693
1.0413
1.03602
1.11432
1.11024
1.10617
1.10224
1.09832
1.09408
1.0895
1.08425
1.07901
1.07433
1.06951
1.0647
1.05935
1.05372
1.04849
1.04297
1.03768
1.11492
1.1109
1.10683
1.10289
1.09902
1.09492
1.09044
1.08525
1.08001
1.07535
1.07063
1.06588
1.06067
1.05518
1.05003
1.0446
1.03939
1.11551
1.11155
1.10749
1.10351
1.09966
1.09568
1.09131
1.0862
1.081
1.07637
1.07171
1.06704
1.06197
1.05656
1.05152
1.04625
1.04108
1.11605
1.11215
1.10813
1.10412
1.10027
1.09638
1.0921
1.08709
1.08197
1.0774
1.07279
1.06821
1.06324
1.05794
1.05298
1.04784
1.04275
1.11656
1.11269
1.10871
1.1047
1.10086
1.09703
1.09283
1.08794
1.08295
1.07844
1.0739
1.06938
1.06454
1.05933
1.05445
1.04943
1.04435
1.11703
1.1132
1.10927
1.1053
1.10148
1.09767
1.09355
1.08879
1.08392
1.0795
1.07504
1.07058
1.06583
1.06074
1.0559
1.05096
1.04595
1.11749
1.11373
1.10987
1.10593
1.10212
1.09835
1.09428
1.08962
1.08491
1.08059
1.07621
1.0718
1.06715
1.06211
1.0573
1.05246
1.04745
1.11795
1.11429
1.11049
1.10656
1.10277
1.09906
1.09505
1.09048
1.0859
1.08169
1.0774
1.07305
1.06846
1.06348
1.05862
1.05385
1.04891
1.11841
1.11484
1.11111
1.10719
1.10343
1.0998
1.09585
1.09138
1.08693
1.08281
1.07861
1.07429
1.06972
1.06478
1.05991
1.05516
1.05031
1.11885
1.11536
1.11169
1.10782
1.10412
1.10057
1.09669
1.09233
1.08799
1.08393
1.07973
1.07542
1.07089
1.06597
1.06111
1.05644
1.05172
1.11926
1.11584
1.11226
1.10848
1.10486
1.10135
1.09753
1.09329
1.08903
1.08494
1.08073
1.07641
1.07187
1.06705
1.0623
1.05775
1.05313
1.11966
1.11633
1.11285
1.10916
1.10562
1.10213
1.09831
1.09414
1.08996
1.08585
1.0816
1.07726
1.07281
1.06811
1.06349
1.05908
1.0546
1.12009
1.11684
1.11344
1.10983
1.10635
1.10287
1.09899
1.09485
1.09078
1.08669
1.08243
1.07813
1.07376
1.0692
1.06472
1.06045
1.05605
1.12055
1.11734
1.11399
1.11044
1.10702
1.10353
1.09959
1.09545
1.09148
1.08748
1.0833
1.07909
1.0748
1.07038
1.066
1.06182
1.05749
1.12102
1.11783
1.11452
1.11103
1.10766
1.10413
1.10013
1.09605
1.09219
1.08829
1.08423
1.08015
1.07597
1.07164
1.06735
1.06321
1.0589
1.12152
1.11835
1.11508
1.11163
1.10828
1.1047
1.10068
1.0967
1.09297
1.08917
1.08524
1.0813
1.07724
1.073
1.06875
1.06464
1.06034
1.12204
1.11891
1.11564
1.19613
1.19209
1.18648
1.17806
1.16336
1.13826
1.19345
1.18889
1.18241
1.17259
1.15553
1.11755
1.19056
1.18565
1.17869
1.16814
1.1498
1.10877
1.18695
1.18147
1.1737
1.16217
1.14278
1.10132
1.18264
1.1768
1.16853
1.15627
1.13615
1.09592
1.1783
1.17215
1.16344
1.15061
1.12981
1.09086
1.1742
1.1678
1.15867
1.14521
1.12375
1.08639
1.17017
1.16352
1.15405
1.14004
1.11835
1.08318
1.16636
1.15933
1.14951
1.13533
1.11421
1.08169
1.16309
1.15559
1.14539
1.13147
1.11122
1.08145
1.16047
1.15252
1.14209
1.12841
1.10878
1.0816
1.15837
1.15018
1.13974
1.12598
1.10675
1.0816
1.15658
1.14836
1.13798
1.12402
1.10523
1.08147
1.15498
1.14674
1.13627
1.12247
1.10421
1.08133
1.15361
1.14508
1.13437
1.12115
1.10357
1.08131
1.15254
1.14341
1.13248
1.11971
1.10292
1.08153
1.15167
1.14196
1.13081
1.11799
1.10184
1.08189
1.15069
1.14079
1.12947
1.11619
1.10035
1.08203
1.14929
1.13969
1.12828
1.11461
1.0989
1.08196
1.14741
1.1383
1.12703
1.11358
1.09811
1.08198
1.14529
1.13643
1.12556
1.11288
1.09803
1.08228
1.14324
1.1343
1.12389
1.11208
1.09809
1.08291
1.1415
1.13231
1.12216
1.11098
1.09796
1.08375
1.14002
1.13081
1.12071
1.10982
1.09756
1.08451
1.13849
1.12964
1.11976
1.109
1.09723
1.08517
1.13682
1.12849
1.11911
1.10878
1.09732
1.08586
1.13515
1.1272
1.11854
1.10899
1.09796
1.08671
1.13375
1.12596
1.11794
1.10922
1.09897
1.08795
1.13288
1.12511
1.11738
1.10921
1.09976
1.08947
1.13253
1.1249
1.11711
1.10909
1.10018
1.09069
1.13239
1.12517
1.11728
1.10909
1.10043
1.09151
1.13217
1.12553
1.11786
1.10946
1.10078
1.09207
1.1318
1.12562
1.11848
1.11041
1.10153
1.09263
1.13138
1.12541
1.1187
1.11132
1.10287
1.0937
1.13113
1.12511
1.11862
1.11172
1.10388
1.09528
1.13125
1.12502
1.1185
1.11177
1.10434
1.0964
1.13154
1.12534
1.11858
1.11176
1.10452
1.09703
1.13163
1.12575
1.11905
1.11197
1.10469
1.09739
1.13149
1.12585
1.11954
1.11262
1.10513
1.0977
1.13131
1.12572
1.1197
1.11325
1.10599
1.09827
1.13131
1.12562
1.11968
1.11356
1.10677
1.09923
1.13141
1.12571
1.11969
1.11367
1.10725
1.10017
1.13139
1.12587
1.11984
1.11378
1.10754
1.10088
1.13117
1.12593
1.12009
1.11403
1.10781
1.10137
1.13088
1.12581
1.1203
1.11442
1.10817
1.10176
1.13079
1.12569
1.1204
1.1148
1.10868
1.10219
1.13092
1.1257
1.12048
1.11509
1.10925
1.10279
1.13115
1.12593
1.12062
1.11528
1.10973
1.10352
1.13127
1.12629
1.12091
1.11548
1.11008
1.10416
1.13117
1.12653
1.12129
1.11583
1.1104
1.10466
1.13091
1.12653
1.12159
1.11632
1.11084
1.10511
1.13069
1.12636
1.1217
1.11676
1.1114
1.10565
1.1307
1.12621
1.12169
1.11703
1.11197
1.10632
1.13103
1.12627
1.12169
1.11717
1.11239
1.10701
1.13142
1.12665
1.12186
1.11726
1.11267
1.10757
1.1316
1.12712
1.1223
1.11748
1.11287
1.10794
1.13151
1.12738
1.12279
1.11795
1.11314
1.10822
1.1313
1.1274
1.12309
1.11849
1.11364
1.10858
1.13116
1.1273
1.12319
1.11886
1.11422
1.10917
1.13125
1.12725
1.1232
1.11907
1.11469
1.10983
1.12742
1.12326
1.11922
1.11506
1.11043
1.12784
1.12356
1.11942
1.11534
1.1109
1.12823
1.12408
1.11983
1.11564
1.11126
1.12847
1.12454
1.12035
1.11606
1.11161
1.1286
1.12482
1.12079
1.11657
1.11205
1.12871
1.12498
1.12107
1.117
1.11254
1.12891
1.12511
1.12125
1.11733
1.11301
1.12917
1.12531
1.12146
1.11762
1.11344
1.12945
1.12564
1.12178
1.11795
1.11385
1.12967
1.126
1.1222
1.11837
1.1143
1.12988
1.12633
1.12262
1.11885
1.11482
1.13015
1.12663
1.12299
1.11933
1.11536
1.1305
1.12697
1.12335
1.11975
1.11584
1.13085
1.12734
1.12373
1.12016
1.11627
1.13109
1.12768
1.12415
1.12059
1.11669
1.13123
1.12794
1.12454
1.12104
1.11715
1.13132
1.12817
1.12488
1.12145
1.11766
1.13146
1.1284
1.12516
1.12182
1.11816
1.13172
1.12866
1.12542
1.12217
1.11866
1.13197
1.12893
1.12573
1.12257
1.11915
1.13222
1.12921
1.12611
1.12303
1.11965
1.13247
1.12951
1.12651
1.12349
1.12014
1.13277
1.12985
1.12689
1.1239
1.12058
1.13312
1.13023
1.12725
1.12424
1.12097
1.13349
1.1306
1.1276
1.12458
1.12136
1.13382
1.13093
1.12793
1.12494
1.12174
1.13411
1.13121
1.12825
1.12528
1.12212
1.13439
1.13149
1.12855
1.1256
1.12246
1.13467
1.13178
1.12884
1.12587
1.12277
1.13493
1.13205
1.1291
1.12614
1.12313
1.13515
1.13229
1.12939
1.12652
1.12356
1.13538
1.13257
1.12977
1.12697
1.12405
1.13571
1.13297
1.13023
1.12743
1.12452
1.13612
1.13345
1.13072
1.12789
1.125
1.13655
)
;

boundaryField
{
    inlet
    {
        type            fixedValue;
        value           nonuniform 0();
    }
    outlet
    {
        type            inletOutlet;
        inletValue      nonuniform 0();
        value           nonuniform 0();
    }
    triangle
    {
        type            zeroGradient;
    }
    top
    {
        type            symmetryPlane;
    }
    bottom
    {
        type            symmetryPlane;
    }
    defaultFaces
    {
        type            empty;
    }
    procBoundary21to13
    {
        type            processor;
        value           nonuniform List<scalar> 
18
(
0.698715
0.566588
0.421641
0.420897
0.425276
0.71436
0.716709
0.721808
0.727325
0.730845
0.731639
0.73004
0.726529
0.723136
0.718657
0.715423
0.706497
0.706497
)
;
    }
    procBoundary21to14
    {
        type            processor;
        value           nonuniform List<scalar> 
13
(
0.430243
0.430297
0.430348
0.430196
0.430108
0.430129
0.430129
0.430108
0.430196
0.430348
0.430297
0.430243
0.430097
)
;
    }
    procBoundary21to20
    {
        type            processor;
        value           nonuniform List<scalar> 
96
(
1.19932
1.19689
1.19422
1.19094
1.18703
1.18285
1.1788
1.175
1.17162
1.16887
1.16666
1.16481
1.1632
1.16187
1.16089
1.16019
1.15952
1.15845
1.15672
1.15462
1.15259
1.1509
1.14951
1.14808
1.14632
1.14435
1.14255
1.14122
1.14037
1.13967
1.13886
1.13797
1.13718
1.13673
1.13669
1.13685
1.13688
1.13671
1.13651
1.13648
1.13661
1.13661
1.13635
1.13593
1.13571
1.13579
1.13594
1.13597
1.13573
1.13532
1.135
1.13497
1.13526
1.1356
1.13575
1.1356
1.1353
1.13506
1.13507
1.13531
1.1316
1.1316
1.13194
1.13211
1.13215
1.13217
1.13227
1.1325
1.13274
1.13293
1.13309
1.13328
1.13354
1.13383
1.13406
1.13421
1.1343
1.13438
1.1345
1.13469
1.13486
1.13509
1.13537
1.13569
1.13599
1.13628
1.13658
1.13689
1.1372
1.13747
1.1377
1.13791
1.13813
1.1384
1.13872
1.13906
)
;
    }
    procBoundary21to22
    {
        type            processor;
        value           nonuniform List<scalar> 
146
(
0.429914
0.429315
0.428869
0.428922
0.429033
0.428395
0.427332
0.425819
0.425455
0.438682
0.505302
0.614668
0.709901
0.775205
0.816504