/*--------------------------------*- C++ -*----------------------------------*\
  =========                 |
  \\      /  F ield         | OpenFOAM: The Open Source CFD Toolbox
   \\    /   O peration     | Website:  https://openfoam.org
    \\  /    A nd           | Version:  8
     \\/     M anipulation  |
\*---------------------------------------------------------------------------*/
FoamFile
{
    version     2.0;
    format      ascii;
    class       volScalarField;
    location    "0.5";
    object      p;
}
// * * * * * * * * * * * * * * * * * * * * * * * * * * * * * * * * * * * * * //

dimensions      [1 -1 -2 0 0 0 0];

internalField   nonuniform List<scalar> 
2600
(
0.484755
0.411383
0.390241
0.470676
0.740892
0.974794
1.00418
1.00581
1.0093
0.997112
0.485898
0.402685
0.391445
0.475327
0.746625
0.980163
1.00936
1.00777
1.01013
0.998108
0.48563
0.397183
0.39123
0.47332
0.745314
0.98518
1.0161
1.01057
1.01161
0.998745
0.484797
0.396579
0.392669
0.474618
0.758399
0.988823
1.02077
1.01252
1.01293
0.999595
0.484004
0.394075
0.391862
0.476095
0.765904
0.994457
1.02656
1.01491
1.01407
1.00001
0.484389
0.395062
0.393126
0.476502
0.769148
0.995988
1.02942
1.01737
1.01496
1.00003
0.48483
0.395447
0.39538
0.478774
0.774434
1.00086
1.03248
1.01867
1.01437
0.999727
0.485138
0.398969
0.396759
0.480402
0.777753
1.0051
1.03574
1.02009
1.0136
0.999083
0.486329
0.402162
0.396956
0.481699
0.780131
1.00556
1.03655
1.01833
1.01098
0.998208
0.487389
0.405204
0.399529
0.483442
0.77922
1.0054
1.03753
1.0222
1.01094
0.998042
0.487389
0.405204
0.399529
0.483443
0.77922
1.0054
1.03753
1.0222
1.01094
0.998042
0.486329
0.402162
0.396956
0.481706
0.780131
1.00556
1.03655
1.01833
1.01098
0.998208
0.485138
0.398969
0.396759
0.480399
0.777753
1.0051
1.03574
1.02009
1.0136
0.999083
0.48483
0.395447
0.39538
0.478775
0.774434
1.00086
1.03248
1.01867
1.01437
0.999727
0.484389
0.395062
0.393126
0.476501
0.769148
0.995988
1.02942
1.01737
1.01496
1.00003
0.484004
0.394075
0.391862
0.476094
0.765904
0.994457
1.02656
1.01491
1.01407
1.00001
0.484797
0.396579
0.392669
0.474618
0.758399
0.988823
1.02077
1.01252
1.01293
0.999595
0.48563
0.397183
0.39123
0.47332
0.745314
0.98518
1.0161
1.01057
1.01161
0.998745
0.485898
0.402685
0.391445
0.475327
0.746625
0.980163
1.00936
1.00777
1.01013
0.998108
0.484755
0.411383
0.390241
0.470676
0.740892
0.974794
1.00418
1.00581
1.0093
0.997112
0.567471
0.415335
0.391989
0.463889
0.731734
0.966352
1.00051
1.005
1.00846
0.996517
0.660263
0.432059
0.398305
0.457646
0.720205
0.958779
0.996983
1.00361
1.00732
0.99581
0.748885
0.460429
0.402025
0.452883
0.706213
0.954138
0.993202
1.0009
1.00611
0.995185
0.820663
0.500879
0.407933
0.450052
0.689447
0.948197
0.988719
0.998519
1.00567
0.994757
0.88228
0.547037
0.419381
0.451301
0.669933
0.938924
0.983997
0.996784
1.00571
0.994218
0.933342
0.59018
0.439877
0.456234
0.650063
0.928252
0.979601
0.995204
1.00528
0.993367
0.977817
0.631931
0.468804
0.462716
0.636126
0.918914
0.975479
0.993336
1.00415
0.992164
1.01512
0.673811
0.495886
0.470466
0.625168
0.911627
0.971773
0.990631
1.00225
0.990702
1.04791
0.713943
0.524689
0.479779
0.616851
0.905602
0.968668
0.987618
1.00001
0.989156
1.07648
0.751902
0.55476
0.488296
0.6072
0.896623
0.965502
0.985512
0.998421
0.987765
1.10161
0.788508
0.585784
0.497909
0.599615
0.883566
0.961506
0.984036
0.997394
0.986661
1.12397
0.822442
0.616641
0.510997
0.59501
0.867496
0.956646
0.982641
0.996486
0.985771
1.14372
0.854371
0.647156
0.524706
0.59709
0.850892
0.950793
0.981045
0.995307
0.984895
1.16159
0.8846
0.676379
0.540694
0.602961
0.833815
0.944052
0.978842
0.993702
0.983884
1.17784
0.913161
0.703492
0.560107
0.611206
0.817147
0.938066
0.97664
0.991735
0.982664
1.19282
0.939902
0.729625
0.585168
0.620985
0.801458
0.93179
0.974703
0.989568
0.981284
1.20691
0.965086
0.755406
0.612085
0.62646
0.786182
0.924789
0.972671
0.987328
0.979811
1.21951
0.987649
0.781333
0.636599
0.635725
0.773597
0.916797
0.970083
0.985016
0.978352
1.23054
1.0081
0.806468
0.660054
0.646335
0.765114
0.908714
0.967065
0.982788
0.97699
1.24087
1.02679
0.830248
0.683589
0.657427
0.760144
0.900834
0.963996
0.980632
0.975681
2.36682
2.25085
2.17125
2.09147
2.0133
1.93597
1.85497
1.76436
1.64313
1.50032
2.20329
2.09514
2.04541
1.9875
1.92947
1.86571
1.79319
1.70374
1.58138
1.40489
2.15589
2.07413
2.03034
1.97452
1.91994
1.85854
1.78643
1.69495
1.57247
1.39699
2.0885
2.0269
1.99034
1.94005
1.89066
1.8306
1.7592
1.66782
1.54904
1.3711
2.029
1.98216
1.95328
1.90728
1.86092
1.80234
1.73334
1.6444
1.52926
1.35604
1.97482
1.93758
1.91308
1.87211
1.83049
1.77495
1.70911
1.6226
1.51186
1.34777
1.92838
1.89854
1.87727
1.84048
1.80213
1.74918
1.68663
1.60329
1.49751
1.34502
1.88794
1.86314
1.84384
1.81053
1.77475
1.72479
1.66576
1.58612
1.48587
1.34522
1.85349
1.83201
1.81434
1.78401
1.75033
1.70313
1.64725
1.57135
1.47653
1.34717
1.82437
1.80461
1.78797
1.75986
1.72795
1.68347
1.63064
1.55859
1.46919
1.35032
1.80019
1.78108
1.76508
1.73863
1.70829
1.6662
1.61607
1.548
1.46367
1.35414
1.77997
1.76084
1.74514
1.71984
1.69092
1.65095
1.60331
1.53905
1.45949
1.35836
1.76298
1.74358
1.72796
1.70333
1.67548
1.63732
1.59191
1.53147
1.45654
1.36259
1.74856
1.72863
1.71285
1.68853
1.66147
1.62498
1.58165
1.52462
1.45389
1.3666
1.73624
1.71554
1.69952
1.67533
1.64871
1.61368
1.57229
1.51858
1.45204
1.37058
1.72568
1.70369
1.68732
1.66329
1.63706
1.60352
1.56403
1.51319
1.45035
1.37417
1.71653
1.6929
1.67611
1.65242
1.62646
1.59412
1.55643
1.5087
1.44963
1.37806
1.70819
1.68292
1.6657
1.6426
1.61711
1.58595
1.5498
1.50478
1.44892
1.38158
1.69805
1.67252
1.65509
1.63286
1.60795
1.57766
1.54268
1.50058
1.44812
1.38496
1.68627
1.66159
1.64436
1.62349
1.59997
1.57082
1.53656
1.49642
1.44692
1.38795
1.03099
1.08915
1.09868
1.09591
1.08868
1.08116
1.0723
1.06584
1.21503
1.79564
1.03099
1.08915
1.09868
1.09591
1.08868
1.08116
1.07231
1.06544
1.21279
1.78765
1.03099
1.08915
1.09868
1.09591
1.08868
1.08116
1.07232
1.0647
1.20983
1.77576
1.03099
1.08915
1.09868
1.09591
1.08868
1.08116
1.07234
1.06365
1.20584
1.76167
1.03099
1.08915
1.09868
1.09591
1.08869
1.08117
1.07233
1.06255
1.20072
1.74657
1.03099
1.08915
1.09869
1.0959
1.08869
1.08117
1.07236
1.06162
1.19425
1.73017
1.03099
1.08915
1.09869
1.0959
1.08869
1.08117
1.07236
1.06117
1.1864
1.71311
1.03099
1.08915
1.09869
1.0959
1.0887
1.08117
1.07238
1.0611
1.17734
1.69521
1.03099
1.08915
1.09869
1.09589
1.08871
1.08116
1.07241
1.06111
1.16747
1.67679
1.03099
1.08915
1.09869
1.09589
1.08872
1.08114
1.07246
1.0611
1.15687
1.65756
1.03099
1.08915
1.09869
1.09588
1.08873
1.0811
1.07253
1.06105
1.14581
1.63764
1.03099
1.08915
1.0987
1.09588
1.08875
1.08106
1.07263
1.06101
1.13455
1.61694
1.03099
1.08915
1.0987
1.09587
1.08877
1.081
1.07274
1.06094
1.12337
1.59553
1.03099
1.08915
1.0987
1.09586
1.0888
1.08093
1.07288
1.06085
1.11247
1.57347
1.03099
1.08915
1.0987
1.09585
1.08882
1.08084
1.07303
1.06073
1.10201
1.5506
1.03099
1.08915
1.0987
1.09585
1.08885
1.08076
1.0732
1.06065
1.09216
1.52716
1.03099
1.08915
1.09871
1.09584
1.08888
1.08067
1.07337
1.06063
1.08306
1.50316
1.03099
1.08915
1.09871
1.09583
1.08891
1.08058
1.07357
1.06037
1.07496
1.47838
1.03099
1.08915
1.09871
1.09582
1.08894
1.08048
1.07379
1.05965
1.06799
1.45352
1.03099
1.08915
1.09871
1.09581
1.08897
1.08038
1.07399
1.05948
1.06199
1.42798
1.03099
1.08915
1.09871
1.09581
1.08897
1.08038
1.07399
1.05948
1.06199
1.42798
1.03099
1.08915
1.09871
1.09582
1.08894
1.08048
1.07379
1.05965
1.06799
1.45352
1.03099
1.08915
1.09871
1.09583
1.08891
1.08058
1.07357
1.06037
1.07496
1.47838
1.03099
1.08915
1.09871
1.09584
1.08888
1.08067
1.07337
1.06063
1.08306
1.50316
1.03099
1.08915
1.0987
1.09585
1.08885
1.08076
1.0732
1.06065
1.09216
1.52716
1.03099
1.08915
1.0987
1.09585
1.08882
1.08084
1.07303
1.06073
1.10201
1.5506
1.03099
1.08915
1.0987
1.09586
1.0888
1.08093
1.07288
1.06085
1.11247
1.57347
1.03099
1.08915
1.0987
1.09587
1.08877
1.081
1.07274
1.06094
1.12337
1.59553
1.03099
1.08915
1.0987
1.09588
1.08875
1.08106
1.07263
1.06101
1.13455
1.61694
1.03099
1.08915
1.09869
1.09588
1.08873
1.0811
1.07253
1.06105
1.14581
1.63764
1.03099
1.08915
1.09869
1.09589
1.08872
1.08114
1.07246
1.0611
1.15687
1.65756
1.03099
1.08915
1.09869
1.09589
1.08871
1.08116
1.07241
1.06111
1.16747
1.67679
1.03099
1.08915
1.09869
1.0959
1.0887
1.08117
1.07238
1.0611
1.17734
1.69521
1.03099
1.08915
1.09869
1.0959
1.08869
1.08117
1.07236
1.06117
1.1864
1.71311
1.03099
1.08915
1.09869
1.0959
1.08869
1.08117
1.07236
1.06162
1.19425
1.73017
1.03099
1.08915
1.09868
1.09591
1.08869
1.08117
1.07233
1.06255
1.20072
1.74657
1.03099
1.08915
1.09868
1.09591
1.08868
1.08116
1.07234
1.06365
1.20584
1.76167
1.03099
1.08915
1.09868
1.09591
1.08868
1.08116
1.07232
1.0647
1.20983
1.77576
1.03099
1.08915
1.09868
1.09591
1.08868
1.08116
1.07231
1.06544
1.21279
1.78765
1.03099
1.08915
1.09868
1.09591
1.08868
1.08116
1.0723
1.06584
1.21503
1.79564
1.68627
1.66159
1.64436
1.62349
1.59997
1.57082
1.53656
1.49642
1.44692
1.38795
1.69805
1.67252
1.65509
1.63286
1.60795
1.57766
1.54268
1.50058
1.44812
1.38496
1.70819
1.68292
1.6657
1.6426
1.61711
1.58595
1.5498
1.50478
1.44892
1.38158
1.71653
1.6929
1.67611
1.65242
1.62646
1.59412
1.55643
1.5087
1.44963
1.37806
1.72568
1.70369
1.68732
1.66329
1.63706
1.60352
1.56403
1.51319
1.45035
1.37417
1.73624
1.71554
1.69952
1.67533
1.64871
1.61368
1.57229
1.51858
1.45204
1.37058
1.74856
1.72863
1.71285
1.68853
1.66147
1.62498
1.58165
1.52462
1.45389
1.3666
1.76298
1.74358
1.72796
1.70333
1.67548
1.63732
1.59191
1.53147
1.45654
1.36259
1.77997
1.76084
1.74514
1.71984
1.69092
1.65095
1.60331
1.53905
1.45949
1.35836
1.80019
1.78108
1.76508
1.73863
1.70829
1.6662
1.61607
1.548
1.46367
1.35414
1.82437
1.80461
1.78797
1.75986
1.72795
1.68347
1.63064
1.55859
1.46919
1.35032
1.85349
1.83201
1.81434
1.78401
1.75033
1.70313
1.64725
1.57135
1.47653
1.34717
1.88794
1.86314
1.84384
1.81053
1.77475
1.72479
1.66576
1.58612
1.48587
1.34522
1.92838
1.89854
1.87727
1.84048
1.80213
1.74918
1.68663
1.60329
1.49751
1.34502
1.97482
1.93758
1.91308
1.87211
1.83049
1.77495
1.70911
1.6226
1.51186
1.34777
2.029
1.98216
1.95328
1.90728
1.86092
1.80234
1.73334
1.6444
1.52926
1.35604
2.0885
2.0269
1.99034
1.94005
1.89066
1.8306
1.7592
1.66782
1.54904
1.3711
2.15589
2.07413
2.03034
1.97452
1.91994
1.85854
1.78643
1.69495
1.57247
1.39699
2.20329
2.09514
2.04541
1.9875
1.92947
1.86571
1.79319
1.70374
1.58138
1.40489
2.36682
2.25085
2.17125
2.09147
2.0133
1.93597
1.85497
1.76436
1.64313
1.50032
1.24087
1.02679
0.830248
0.683589
0.657427
0.760144
0.900834
0.963996
0.980632
0.975681
1.23054
1.0081
0.806468
0.660054
0.646335
0.765114
0.908714
0.967065
0.982788
0.97699
1.21951
0.987649
0.781333
0.636599
0.635725
0.773597
0.916797
0.970083
0.985016
0.978352
1.20691
0.965086
0.755406
0.612085
0.62646
0.786182
0.924789
0.972671
0.987328
0.979811
1.19282
0.939902
0.729625
0.585168
0.620985
0.801458
0.93179
0.974703
0.989568
0.981284
1.17784
0.913161
0.703492
0.560107
0.611206
0.817147
0.938066
0.97664
0.991735
0.982664
1.16159
0.8846
0.676379
0.540694
0.602961
0.833815
0.944052
0.978842
0.993702
0.983884
1.14372
0.854371
0.647156
0.524706
0.59709
0.850892
0.950793
0.981045
0.995307
0.984895
1.12397
0.822442
0.616641
0.510997
0.59501
0.867496
0.956646
0.982641
0.996486
0.985771
1.10161
0.788508
0.585784
0.497909
0.599615
0.883566
0.961506
0.984036
0.997394
0.986661
1.07648
0.751902
0.55476
0.488296
0.6072
0.896623
0.965502
0.985512
0.998421
0.987765
1.04791
0.713943
0.524689
0.479779
0.616851
0.905602
0.968668
0.987618
1.00001
0.989156
1.01512
0.673811
0.495886
0.470466
0.625168
0.911627
0.971773
0.990631
1.00225
0.990702
0.977817
0.631931
0.468804
0.462716
0.636126
0.918914
0.975479
0.993336
1.00415
0.992164
0.933342
0.59018
0.439877
0.456234
0.650063
0.928252
0.979601
0.995204
1.00528
0.993367
0.88228
0.547037
0.419381
0.451301
0.669933
0.938924
0.983997
0.996784
1.00571
0.994218
0.820663
0.500879
0.407933
0.450052
0.689447
0.948197
0.988719
0.998519
1.00567
0.994757
0.748885
0.460429
0.402025
0.452883
0.706213
0.954138
0.993202
1.0009
1.00611
0.995185
0.660263
0.432059
0.398305
0.457646
0.720205
0.958779
0.996983
1.00361
1.00732
0.99581
0.567471
0.415335
0.391989
0.463889
0.731734
0.966352
1.00051
1.005
1.00846
0.996517
1.03859
1.25416
1.45896
1.46911
1.36698
1.23837
1.12124
1.05485
1.05151
1.05513
1.06777
1.27641
1.40671
1.4168
1.34218
1.22906
1.12083
1.05902
1.05349
1.05034
1.13727
1.29022
1.34473
1.37216
1.31072
1.21672
1.12424
1.06729
1.05173
1.03877
1.23422
1.30123
1.28739
1.29087
1.25384
1.19047
1.12851
1.07659
1.0442
1.02128
1.32003
1.30844
1.24792
1.20423
1.18651
1.15398
1.10554
1.05754
1.02327
1.00037
1.36585
1.31127
1.22604
1.14533
1.10771
1.09402
1.06129
1.01791
0.986087
0.974922
1.37984
1.30679
1.20649
1.11366
1.04786
1.02393
1.00168
0.965912
0.942437
0.952985
1.38149
1.29232
1.1889
1.09173
1.01209
0.965479
0.937665
0.914943
0.90894
0.938993
1.3764
1.27631
1.17137
1.07174
0.98376
0.923601
0.891347
0.884088
0.891223
0.931418
1.36575
1.26108
1.15299
1.05036
0.956413
0.888915
0.864624
0.873288
0.889714
0.932057
1.35601
1.24628
1.13317
1.0258
0.926232
0.859323
0.854299
0.873361
0.894841
0.934015
1.34711
1.23088
1.11174
0.998771
0.892606
0.836234
0.855461
0.886222
0.914643
0.94146
1.33858
1.21444
1.08882
0.969583
0.859095
0.82034
0.863882
0.912423
0.935786
0.949921
1.33015
1.19693
1.06433
0.939447
0.826643
0.812521
0.87439
0.930659
0.950671
0.956031
1.32144
1.17852
1.03821
0.908495
0.798715
0.808229
0.880658
0.937939
0.955966
0.959079
1.312
1.15861
1.01059
0.877747
0.772756
0.799845
0.879841
0.941345
0.959241
0.961184
1.3012
1.13836
0.980167
0.844732
0.747155
0.783378
0.874156
0.942154
0.96251
0.964039
1.28859
1.11254
0.946166
0.808203
0.721825
0.768889
0.871273
0.944977
0.966666
0.967293
1.27319
1.08472
0.907653
0.765725
0.695063
0.760969
0.877975
0.950899
0.972298
0.970576
1.25548
1.05326
0.864034
0.719821
0.673034
0.757834
0.88743
0.958727
0.977229
0.973555
1.25548
1.05326
0.864034
0.719821
0.673034
0.757834
0.88743
0.958727
0.977229
0.973555
1.27319
1.08472
0.907653
0.765725
0.695063
0.760969
0.877975
0.950899
0.972298
0.970576
1.28859
1.11254
0.946166
0.808203
0.721825
0.768889
0.871273
0.944977
0.966666
0.967293
1.3012
1.13836
0.980167
0.844732
0.747155
0.783378
0.874156
0.942154
0.96251
0.964039
1.312
1.15861
1.01059
0.877747
0.772756
0.799845
0.879841
0.941345
0.959241
0.961184
1.32144
1.17852
1.03821
0.908495
0.798715
0.808229
0.880658
0.937939
0.955966
0.959079
1.33015
1.19693
1.06433
0.939447
0.826643
0.812521
0.87439
0.930659
0.950671
0.956031
1.33858
1.21444
1.08882
0.969583
0.859095
0.82034
0.863882
0.912423
0.935786
0.949921
1.34711
1.23088
1.11174
0.998771
0.892606
0.836234
0.855461
0.886222
0.914643
0.94146
1.35601
1.24628
1.13317
1.0258
0.926232
0.859323
0.854299
0.873361
0.894841
0.934015
1.36575
1.26108
1.15299
1.05036
0.956413
0.888915
0.864624
0.873288
0.889714
0.932057
1.3764
1.27631
1.17137
1.07174
0.98376
0.923601
0.891347
0.884088
0.891223
0.931418
1.38149
1.29232
1.1889
1.09173
1.01209
0.965479
0.937665
0.914943
0.90894
0.938993
1.37984
1.30679
1.20649
1.11366
1.04786
1.02393
1.00168
0.965912
0.942437
0.952985
1.36585
1.31127
1.22604
1.14533
1.10771
1.09402
1.06129
1.01791
0.986087
0.974922
1.32003
1.30844
1.24792
1.20423
1.18651
1.15398
1.10554
1.05754
1.02327
1.00037
1.23422
1.30123
1.28739
1.29087
1.25384
1.19047
1.12851
1.07659
1.0442
1.02128
1.13727
1.29022
1.34473
1.37216
1.31072
1.21672
1.12424
1.06729
1.05173
1.03877
1.06777
1.27641
1.40671
1.4168
1.34218
1.22906
1.12083
1.05902
1.05349
1.05034
1.03859
1.25416
1.45896
1.46911
1.36698
1.23837
1.12124
1.05485
1.05151
1.05513
1.66916
1.64734
1.63017
1.61066
1.58914
1.56191
1.52895
1.49122
1.44486
1.39143
1.64049
1.62608
1.61034
1.59392
1.57587
1.55249
1.52195
1.48697
1.44362
1.39645
1.60485
1.60501
1.59149
1.57733
1.56217
1.54397
1.51652
1.48351
1.44238
1.39834
1.55924
1.57748
1.56936
1.55766
1.54505
1.5311
1.51019
1.48188
1.44432
1.40296
1.50018
1.5499
1.55335
1.54247
1.53006
1.51809
1.50241
1.479
1.44535
1.40703
1.41985
1.5136
1.54396
1.53642
1.52124
1.50677
1.49234
1.47372
1.44426
1.40915
1.31426
1.44055
1.52262
1.53495
1.52085
1.50333
1.48811
1.46999
1.4425
1.41018
1.21074
1.3084
1.45012
1.5176
1.51751
1.50478
1.4901
1.47208
1.44519
1.41275
1.13995
1.17765
1.29796
1.44156
1.50013
1.50276
1.49453
1.47594
1.45013
1.41769
1.09797
1.10719
1.15078
1.27276
1.42058
1.48147
1.4892
1.47802
1.4572
1.42601
1.07417
1.07689
1.08478
1.12478
1.2411
1.39551
1.46182
1.46995
1.45984
1.43473
1.05999
1.06195
1.06278
1.06825
1.10114
1.21155
1.3622
1.44059
1.45499
1.43808
1.05075
1.05202
1.05268
1.0523
1.0557
1.08259
1.17968
1.33099
1.42001
1.4315
1.04424
1.04458
1.045
1.04473
1.0438
1.04579
1.06655
1.1545
1.29975
1.39924
1.03944
1.03928
1.03918
1.03904
1.03847
1.03732
1.03788
1.05416
1.13073
1.2859
1.0378
1.03723
1.03657
1.03593
1.03528
1.03435
1.03321
1.03236
1.04496
1.12765
1.0378
1.03713
1.03633
1.03549
1.03452
1.03358
1.03232
1.03137
1.02973
1.04307
1.03799
1.03724
1.0364
1.03554
1.03453
1.03358
1.0323
1.03125
1.02971
1.02867
1.03831
1.03749
1.03662
1.03568
1.03466
1.03361
1.03239
1.0312
1.02978
1.02753
1.03853
1.03769
1.03683
1.03582
1.03486
1.03363
1.0326
1.03101
1.03018
1.02712
1.03099
1.08915
1.09871
1.09581
1.08899
1.08031
1.07413
1.05978
1.05689
1.39494
1.03099
1.08915
1.09871
1.0958
1.089
1.08028
1.07414
1.06063
1.05359
1.35523
1.03099
1.08915
1.09871
1.0958
1.089
1.08032
1.074
1.06178
1.05194
1.31553
1.03099
1.08915
1.09871
1.09581
1.08898
1.08042
1.07373
1.0629
1.05094
1.27635
1.03099
1.08915
1.09871
1.09582
1.08894
1.08055
1.07339
1.0637
1.0509
1.23702
1.03099
1.08915
1.09871
1.09583
1.0889
1.08069
1.07306
1.06416
1.05091
1.19658
1.03099
1.08915
1.0987
1.09584
1.08886
1.08081
1.07282
1.06434
1.05094
1.15731
1.03099
1.08915
1.0987
1.09586
1.08882
1.0809
1.07267
1.0644
1.05098
1.12346
1.03099
1.08915
1.0987
1.09586
1.0888
1.08095
1.07259
1.06444
1.05105
1.09708
1.03099
1.08915
1.0987
1.09587
1.08879
1.08097
1.07255
1.06453
1.05113
1.07768
1.03099
1.08915
1.0987
1.09587
1.08878
1.08099
1.07249
1.0647
1.05077
1.06423
1.03099
1.08915
1.0987
1.09587
1.08878
1.081
1.07243
1.06489
1.05029
1.05533
1.03099
1.08915
1.0987
1.09587
1.08877
1.08102
1.07238
1.06504
1.05058
1.04854
1.03099
1.08915
1.0987
1.09587
1.08877
1.08102
1.07236
1.06506
1.05147
1.04347
1.03099
1.08915
1.0987
1.09587
1.08877
1.08102
1.07237
1.06496
1.05257
1.04283
1.03099
1.08915
1.0987
1.09587
1.08878
1.08101
1.07243
1.06476
1.0535
1.04297
1.03099
1.08915
1.0987
1.09587
1.08878
1.08099
1.07251
1.06452
1.05416
1.04336
1.03099
1.08915
1.0987
1.09587
1.08879
1.08096
1.07261
1.06428
1.05454
1.0438
1.03099
1.08915
1.0987
1.09586
1.0888
1.08093
1.0727
1.06411
1.0546
1.04409
1.03099
1.08915
1.0987
1.09586
1.08881
1.08091
1.07275
1.06405
1.05459
1.0442
1.03099
1.08915
1.0987
1.09586
1.08881
1.08091
1.07275
1.06405
1.05459
1.0442
1.03099
1.08915
1.0987
1.09586
1.0888
1.08093
1.0727
1.06411
1.0546
1.04409
1.03099
1.08915
1.0987
1.09587
1.08879
1.08096
1.07261
1.06428
1.05454
1.0438
1.03099
1.08915
1.0987
1.09587
1.08878
1.08099
1.07251
1.06452
1.05416
1.04336
1.03099
1.08915
1.0987
1.09587
1.08878
1.08101
1.07243
1.06476
1.0535
1.04297
1.03099
1.08915
1.0987
1.09587
1.08877
1.08102
1.07237
1.06496
1.05257
1.04283
1.03099
1.08915
1.0987
1.09587
1.08877
1.08102
1.07236
1.06506
1.05147
1.04347
1.03099
1.08915
1.0987
1.09587
1.08877
1.08102
1.07238
1.06504
1.05058
1.04854
1.03099
1.08915
1.0987
1.09587
1.08878
1.081
1.07243
1.06489
1.05029
1.05533
1.03099
1.08915
1.0987
1.09587
1.08878
1.08099
1.07249
1.0647
1.05077
1.06423
1.03099
1.08915
1.0987
1.09587
1.08879
1.08097
1.07255
1.06453
1.05113
1.07768
1.03099
1.08915
1.0987
1.09586
1.0888
1.08095
1.07259
1.06444
1.05105
1.09708
1.03099
1.08915
1.0987
1.09586
1.08882
1.0809
1.07267
1.0644
1.05098
1.12346
1.03099
1.08915
1.0987
1.09584
1.08886
1.08081
1.07282
1.06434
1.05094
1.15731
1.03099
1.08915
1.09871
1.09583
1.0889
1.08069
1.07306
1.06416
1.05091
1.19658
1.03099
1.08915
1.09871
1.09582
1.08894
1.08055
1.07339
1.0637
1.0509
1.23702
1.03099
1.08915
1.09871
1.09581
1.08898
1.08042
1.07373
1.0629
1.05094
1.27635
1.03099
1.08915
1.09871
1.0958
1.089
1.08032
1.074
1.06178
1.05194
1.31553
1.03099
1.08915
1.09871
1.0958
1.089
1.08028
1.07414
1.06063
1.05359
1.35523
1.03099
1.08915
1.09871
1.09581
1.08899
1.08031
1.07413
1.05978
1.05689
1.39494
1.03853
1.03769
1.03683
1.03582
1.03486
1.03363
1.0326
1.03101
1.03018
1.02712
1.03831
1.03749
1.03662
1.03568
1.03466
1.03361
1.03239
1.0312
1.02978
1.02753
1.03799
1.03724
1.0364
1.03554
1.03453
1.03358
1.0323
1.03125
1.02971
1.02867
1.0378
1.03713
1.03633
1.03549
1.03452
1.03358
1.03232
1.03137
1.02973
1.04307
1.0378
1.03723
1.03657
1.03593
1.03528
1.03435
1.03321
1.03236
1.04496
1.12765
1.03944
1.03928
1.03918
1.03904
1.03847
1.03732
1.03788
1.05416
1.13073
1.2859
1.04424
1.04458
1.045
1.04473
1.0438
1.04579
1.06655
1.1545
1.29975
1.39924
1.05075
1.05202
1.05268
1.0523
1.0557
1.08259
1.17968
1.33099
1.42001
1.4315
1.05999
1.06195
1.06278
1.06825
1.10114
1.21155
1.3622
1.44059
1.45499
1.43808
1.07417
1.07689
1.08478
1.12478
1.2411
1.39551
1.46182
1.46995
1.45984
1.43473
1.09797
1.10719
1.15078
1.27276
1.42058
1.48147
1.4892
1.47802
1.4572
1.42601
1.13995
1.17765
1.29796
1.44156
1.50013
1.50276
1.49453
1.47594
1.45013
1.41769
1.21074
1.3084
1.45012
1.5176
1.51751
1.50478
1.4901
1.47208
1.44519
1.41275
1.31426
1.44055
1.52262
1.53495
1.52085
1.50333
1.48811
1.46999
1.4425
1.41018
1.41985
1.5136
1.54396
1.53642
1.52124
1.50677
1.49234
1.47372
1.44426
1.40915
1.50018
1.5499
1.55335
1.54247
1.53006
1.51809
1.50241
1.479
1.44535
1.40703
1.55924
1.57748
1.56936
1.55766
1.54505
1.5311
1.51019
1.48188
1.44432
1.40296
1.60485
1.60501
1.59149
1.57733
1.56217
1.54397
1.51652
1.48351
1.44238
1.39834
1.64049
1.62608
1.61034
1.59392
1.57587
1.55249
1.52195
1.48697
1.44362
1.39645
1.66916
1.64734
1.63017
1.61066
1.58914
1.56191
1.52895
1.49122
1.44486
1.39143
)
;

boundaryField
{
    inlet
    {
        type            fixedValue;
        value           uniform 1;
    }
    outlet
    {
        type            zeroGradient;
    }
    triangle
    {
        type            zeroGradient;
    }
    top
    {
        type            symmetryPlane;
    }
    bottom
    {
        type            symmetryPlane;
    }
    defaultFaces
    {
        type            empty;
    }
}


// ************************************************************************* //
