/*--------------------------------*- C++ -*----------------------------------*\
  =========                 |
  \\      /  F ield         | OpenFOAM: The Open Source CFD Toolbox
   \\    /   O peration     | Website:  https://openfoam.org
    \\  /    A nd           | Version:  8
     \\/     M anipulation  |
\*---------------------------------------------------------------------------*/
FoamFile
{
    version     2.0;
    format      ascii;
    class       volScalarField;
    location    "0.5";
    object      rho;
}
// * * * * * * * * * * * * * * * * * * * * * * * * * * * * * * * * * * * * * //

dimensions      [1 -3 0 0 0 0 0];

internalField   nonuniform List<scalar> 
2600
(
0.673462
0.599793
0.623931
0.742853
1.06948
1.31986
1.367
1.38322
1.39647
1.39336
0.679616
0.588221
0.610213
0.729745
1.057
1.31447
1.3627
1.3785
1.39431
1.39409
0.694855
0.589772
0.598501
0.707377
1.02889
1.30191
1.35471
1.37169
1.39192
1.39444
0.71086
0.600926
0.591725
0.685857
1.00343
1.27922
1.33922
1.36198
1.38898
1.39496
0.720847
0.606455
0.584468
0.666046
0.968633
1.25285
1.3232
1.35312
1.38626
1.39503
0.726911
0.61088
0.581966
0.655309
0.946096
1.22863
1.31016
1.34753
1.38434
1.39469
0.730352
0.612423
0.583746
0.656361
0.946475
1.2234
1.30633
1.34499
1.382
1.39402
0.732321
0.617399
0.58795
0.664772
0.959933
1.23013
1.30937
1.34544
1.38014
1.39302
0.734566
0.622553
0.592844
0.678233
0.982142
1.23972
1.31349
1.34387
1.3771
1.39194
0.736082
0.62673
0.598178
0.686664
0.992895
1.24615
1.31708
1.34762
1.37698
1.39172
0.736082
0.62673
0.598177
0.686664
0.992895
1.24615
1.31708
1.34762
1.37698
1.39172
0.734566
0.622553
0.592844
0.67824
0.982142
1.23972
1.31349
1.34387
1.3771
1.39194
0.732321
0.617399
0.58795
0.66477
0.959933
1.23013
1.30937
1.34544
1.38014
1.39302
0.730352
0.612423
0.583746
0.656361
0.946475
1.2234
1.30633
1.34499
1.382
1.39402
0.726911
0.61088
0.581965
0.655308
0.946096
1.22863
1.31016
1.34753
1.38434
1.39469
0.720847
0.606455
0.584468
0.666046
0.968633
1.25285
1.3232
1.35312
1.38626
1.39503
0.71086
0.600926
0.591725
0.685857
1.00343
1.27922
1.33922
1.36198
1.38898
1.39496
0.694855
0.589772
0.598501
0.707377
1.02889
1.30191
1.35471
1.37169
1.39192
1.39444
0.679616
0.588221
0.610213
0.729745
1.057
1.31447
1.3627
1.3785
1.39431
1.39409
0.673462
0.599793
0.623931
0.742853
1.06948
1.31986
1.367
1.38322
1.39647
1.39336
0.790913
0.621982
0.645703
0.752702
1.07366
1.31911
1.36988
1.3871
1.39801
1.39298
0.934665
0.669771
0.673722
0.759929
1.07247
1.31734
1.37123
1.38913
1.39878
1.39249
1.06456
0.731122
0.6919
0.763966
1.06496
1.31652
1.37064
1.38863
1.39893
1.39209
1.16384
0.801258
0.707714
0.766974
1.05149
1.31345
1.3681
1.38772
1.3995
1.39191
1.24278
0.872586
0.729125
0.773872
1.03366
1.30681
1.36457
1.38712
1.40032
1.39161
1.30341
0.934027
0.76083
0.784658
1.01459
1.29875
1.36119
1.38644
1.40054
1.391
1.35306
0.988122
0.799426
0.796618
1.00101
1.29191
1.35806
1.38524
1.39996
1.39003
1.39324
1.03847
0.833597
0.808545
0.990389
1.28694
1.35521
1.3831
1.39849
1.38879
1.4277
1.08457
0.869836
0.820616
0.982312
1.28318
1.35272
1.3806
1.39664
1.38744
1.4572
1.12695
0.907378
0.831247
0.972315
1.27626
1.3499
1.37892
1.3954
1.38623
1.48276
1.16707
0.945274
0.843359
0.964274
1.26484
1.34607
1.37779
1.39467
1.38529
1.5052
1.20378
0.982107
0.859665
0.959256
1.24996
1.34134
1.37668
1.394
1.38453
1.52483
1.23797
1.01786
0.876547
0.962036
1.23434
1.33576
1.37532
1.39302
1.38377
1.5425
1.27012
1.05167
0.895983
0.969174
1.21796
1.32955
1.3733
1.39157
1.38283
1.55861
1.30039
1.08278
0.919407
0.978972
1.2016
1.32431
1.37121
1.38972
1.38165
1.5736
1.32869
1.11252
0.949401
0.990545
1.18579
1.31882
1.36933
1.38766
1.38029
1.58786
1.35535
1.14159
0.981357
0.997129
1.16998
1.31254
1.36731
1.38552
1.37882
1.60089
1.37935
1.17046
1.01033
1.00742
1.15691
1.30518
1.36473
1.38331
1.37737
1.61258
1.40118
1.19806
1.03779
1.01856
1.14837
1.29766
1.36173
1.38118
1.37603
1.62375
1.42109
1.22379
1.06432
1.03083
1.14339
1.29019
1.35872
1.3791
1.37474
2.49747
2.40694
2.34294
2.27897
2.21628
2.15373
2.08718
2.01155
1.90963
1.7782
2.3811
2.29598
2.25503
2.20763
2.15978
2.1067
2.04563
1.96961
1.8651
1.71004
2.35775
2.2947
2.26022
2.2151
2.16953
2.11742
2.0557
1.97715
1.87142
1.72069
2.31554
2.26763
2.23924
2.19896
2.15798
2.10715
2.04586
1.96683
1.86321
1.70903
2.2769
2.23964
2.21672
2.17961
2.14139
2.0922
2.03321
1.9562
1.85527
1.70339
2.24051
2.21043
2.19045
2.1568
2.12209
2.0753
2.01902
1.94414
1.84686
1.70158
2.20843
2.18406
2.16643
2.13579
2.1034
2.0584
2.00466
1.93232
1.83918
1.70316
2.17946
2.15901
2.14287
2.11488
2.08442
2.04164
1.99059
1.92115
1.83255
1.70641
2.15402
2.13616
2.12127
2.09561
2.06677
2.02614
1.97758
1.91109
1.82698
1.71043
2.13205
2.11549
2.10135
2.07739
2.04991
2.01144
1.96532
1.90196
1.8224
1.71488
2.11353
2.0974
2.08368
2.06096
2.03468
1.99808
1.95414
1.89407
1.81883
1.71957
2.09783
2.08159
2.06801
2.04612
2.0209
1.98597
1.94403
1.88715
1.81601
1.7243
2.08448
2.06791
2.05428
2.03284
2.00842
1.97491
1.9348
1.88114
1.81405
1.7288
2.073
2.05588
2.04202
2.02073
1.99689
1.96473
1.92634
1.87562
1.81223
1.73302
2.06303
2.04519
2.03105
2.00979
1.98626
1.9553
1.91856
1.87072
1.81107
1.73721
2.05435
2.03535
2.02086
1.99968
1.97646
1.94676
1.91169
1.86641
1.81011
1.74111
2.0467
2.02628
2.01141
1.9905
1.96752
1.93889
1.90543
1.86294
1.81009
1.74541
2.03964
2.0178
2.00258
1.9822
1.95967
1.93212
1.90009
1.86008
1.8102
1.74951
2.03102
2.00894
1.99359
1.97403
1.95208
1.92538
1.89446
1.85715
1.81042
1.75362
2.02109
1.99976
1.98465
1.96635
1.94571
1.92011
1.88994
1.85445
1.81049
1.75754
1.43089
1.48798
1.49726
1.49457
1.48752
1.4802
1.47154
1.46525
1.5978
2.07721
1.43089
1.48798
1.49726
1.49457
1.48753
1.4802
1.47156
1.46485
1.59647
2.07338
1.43089
1.48798
1.49726
1.49457
1.48753
1.4802
1.47158
1.46412
1.59479
2.06923
1.43089
1.48798
1.49726
1.49457
1.48753
1.4802
1.47159
1.46308
1.59222
2.0643
1.43089
1.48798
1.49726
1.49456
1.48753
1.48021
1.47159
1.46199
1.58852
2.05813
1.43089
1.48798
1.49726
1.49456
1.48754
1.48021
1.47161
1.46107
1.58344
2.0498
1.43089
1.48798
1.49727
1.49456
1.48754
1.48021
1.47162
1.46063
1.5769
2.03974
1.43089
1.48798
1.49727
1.49456
1.48755
1.48021
1.47164
1.46056
1.5691
2.02796
1.43089
1.48798
1.49727
1.49455
1.48755
1.4802
1.47166
1.46057
1.56042
2.01488
1.43089
1.48798
1.49727
1.49455
1.48756
1.48017
1.47171
1.46056
1.55094
2.00041
1.43089
1.48798
1.49727
1.49454
1.48758
1.48014
1.47178
1.46052
1.5409
1.98473
1.43089
1.48798
1.49728
1.49453
1.4876
1.4801
1.47187
1.46047
1.53055
1.96782
1.43089
1.48798
1.49728
1.49453
1.48762
1.48004
1.47198
1.46041
1.52016
1.94985
1.43089
1.48798
1.49728
1.49452
1.48764
1.47997
1.47212
1.46032
1.50993
1.93095
1.43089
1.48798
1.49728
1.49451
1.48767
1.47989
1.47227
1.4602
1.50003
1.91103
1.43089
1.48798
1.49728
1.4945
1.48769
1.47981
1.47243
1.46013
1.49065
1.89037
1.43089
1.48798
1.49729
1.4945
1.48772
1.47972
1.4726
1.46012
1.48192
1.86902
1.43089
1.48798
1.49729
1.49449
1.48775
1.47963
1.4728
1.45987
1.47409
1.8468
1.43089
1.48797
1.49729
1.49448
1.48778
1.47953
1.47301
1.45916
1.46731
1.82436
1.43089
1.48797
1.49729
1.49447
1.48781
1.47944
1.47321
1.459
1.46143
1.80125
1.43089
1.48797
1.49729
1.49447
1.48781
1.47944
1.47321
1.459
1.46143
1.80125
1.43089
1.48797
1.49729
1.49448
1.48778
1.47953
1.47301
1.45916
1.46731
1.82436
1.43089
1.48798
1.49729
1.49449
1.48775
1.47963
1.4728
1.45987
1.47409
1.8468
1.43089
1.48798
1.49729
1.4945
1.48772
1.47972
1.4726
1.46012
1.48192
1.86902
1.43089
1.48798
1.49728
1.4945
1.48769
1.47981
1.47243
1.46013
1.49065
1.89037
1.43089
1.48798
1.49728
1.49451
1.48767
1.47989
1.47227
1.4602
1.50003
1.91103
1.43089
1.48798
1.49728
1.49452
1.48764
1.47997
1.47212
1.46032
1.50993
1.93095
1.43089
1.48798
1.49728
1.49453
1.48762
1.48004
1.47198
1.46041
1.52016
1.94985
1.43089
1.48798
1.49728
1.49453
1.4876
1.4801
1.47187
1.46047
1.53055
1.96782
1.43089
1.48798
1.49727
1.49454
1.48758
1.48014
1.47178
1.46052
1.5409
1.98473
1.43089
1.48798
1.49727
1.49455
1.48756
1.48017
1.47171
1.46056
1.55094
2.00041
1.43089
1.48798
1.49727
1.49455
1.48755
1.4802
1.47166
1.46057
1.56042
2.01488
1.43089
1.48798
1.49727
1.49456
1.48755
1.48021
1.47164
1.46056
1.5691
2.02796
1.43089
1.48798
1.49727
1.49456
1.48754
1.48021
1.47162
1.46063
1.5769
2.03974
1.43089
1.48798
1.49726
1.49456
1.48754
1.48021
1.47161
1.46107
1.58344
2.0498
1.43089
1.48798
1.49726
1.49456
1.48753
1.48021
1.47159
1.46199
1.58852
2.05813
1.43089
1.48798
1.49726
1.49457
1.48753
1.4802
1.47159
1.46308
1.59222
2.0643
1.43089
1.48798
1.49726
1.49457
1.48753
1.4802
1.47158
1.46412
1.59479
2.06923
1.43089
1.48798
1.49726
1.49457
1.48753
1.4802
1.47156
1.46485
1.59647
2.07338
1.43089
1.48798
1.49726
1.49457
1.48752
1.4802
1.47154
1.46525
1.5978
2.07721
2.02109
1.99976
1.98465
1.96635
1.94571
1.92011
1.88994
1.85445
1.81049
1.75754
2.03102
2.00894
1.99359
1.97403
1.95208
1.92538
1.89446
1.85715
1.81042
1.75362
2.03964
2.0178
2.00258
1.9822
1.95967
1.93212
1.90009
1.86008
1.8102
1.74951
2.0467
2.02628
2.01141
1.9905
1.96752
1.93889
1.90543
1.86294
1.81009
1.74541
2.05435
2.03535
2.02086
1.99968
1.97646
1.94676
1.91169
1.86641
1.81011
1.74111
2.06303
2.04519
2.03105
2.00979
1.98626
1.9553
1.91856
1.87072
1.81107
1.73721
2.073
2.05588
2.04202
2.02073
1.99689
1.96473
1.92634
1.87562
1.81223
1.73302
2.08448
2.06791
2.05428
2.03284
2.00842
1.97491
1.9348
1.88114
1.81405
1.7288
2.09783
2.08159
2.06801
2.04612
2.0209
1.98597
1.94403
1.88715
1.81601
1.7243
2.11353
2.0974
2.08368
2.06096
2.03468
1.99808
1.95414
1.89407
1.81883
1.71957
2.13205
2.11549
2.10135
2.07739
2.04991
2.01144
1.96532
1.90196
1.8224
1.71488
2.15402
2.13616
2.12127
2.09561
2.06677
2.02614
1.97758
1.91109
1.82698
1.71043
2.17946
2.15901
2.14287
2.11488
2.08442
2.04164
1.99059
1.92115
1.83255
1.70641
2.20843
2.18406
2.16643
2.13579
2.1034
2.0584
2.00466
1.93232
1.83918
1.70316
2.24051
2.21043
2.19045
2.1568
2.12209
2.0753
2.01902
1.94414
1.84686
1.70158
2.2769
2.23964
2.21672
2.17961
2.14139
2.0922
2.03321
1.9562
1.85527
1.70339
2.31554
2.26763
2.23924
2.19896
2.15798
2.10715
2.04586
1.96683
1.86321
1.70903
2.35775
2.2947
2.26022
2.2151
2.16953
2.11742
2.0557
1.97715
1.87142
1.72069
2.3811
2.29598
2.25503
2.20763
2.15978
2.1067
2.04563
1.96961
1.8651
1.71004
2.49747
2.40694
2.34294
2.27897
2.21628
2.15373
2.08718
2.01155
1.90963
1.7782
1.62375
1.42109
1.22379
1.06432
1.03083
1.14339
1.29019
1.35872
1.3791
1.37474
1.61258
1.40118
1.19806
1.03779
1.01856
1.14837
1.29766
1.36173
1.38118
1.37603
1.60089
1.37935
1.17046
1.01033
1.00742
1.15691
1.30518
1.36473
1.38331
1.37737
1.58786
1.35535
1.14159
0.981357
0.997129
1.16998
1.31254
1.36731
1.38552
1.37882
1.5736
1.32869
1.11252
0.949401
0.990545
1.18579
1.31882
1.36933
1.38766
1.38029
1.55861
1.30039
1.08278
0.919407
0.978972
1.2016
1.32431
1.37121
1.38972
1.38165
1.5425
1.27012
1.05167
0.895983
0.969174
1.21796
1.32955
1.3733
1.39157
1.38283
1.52483
1.23797
1.01786
0.876547
0.962036
1.23434
1.33576
1.37532
1.39302
1.38377
1.5052
1.20378
0.982107
0.859665
0.959256
1.24996
1.34134
1.37668
1.394
1.38453
1.48276
1.16707
0.945274
0.843359
0.964274
1.26484
1.34607
1.37779
1.39467
1.38529
1.4572
1.12695
0.907378
0.831247
0.972315
1.27626
1.3499
1.37892
1.3954
1.38623
1.4277
1.08457
0.869836
0.820616
0.982312
1.28318
1.35272
1.3806
1.39664
1.38744
1.39324
1.03847
0.833597
0.808545
0.990389
1.28694
1.35521
1.3831
1.39849
1.38879
1.35306
0.988122
0.799426
0.796618
1.00101
1.29191
1.35806
1.38524
1.39996
1.39003
1.30341
0.934027
0.76083
0.784658
1.01459
1.29875
1.36119
1.38644
1.40054
1.391
1.24278
0.872586
0.729125
0.773872
1.03366
1.30681
1.36457
1.38712
1.40032
1.39161
1.16384
0.801258
0.707714
0.766974
1.05149
1.31345
1.3681
1.38772
1.3995
1.39191
1.06456
0.731122
0.6919
0.763966
1.06496
1.31652
1.37064
1.38863
1.39893
1.39209
0.934665
0.669771
0.673722
0.759929
1.07247
1.31734
1.37123
1.38913
1.39878
1.39249
0.790913
0.621982
0.645703
0.752702
1.07366
1.31911
1.36988
1.3871
1.39801
1.39298
1.43837
1.64485
1.83224
1.8413
1.74903
1.63004
1.51843
1.4539
1.45087
1.45425
1.46712
1.66546
1.78484
1.7942
1.72637
1.62133
1.5181
1.45806
1.45287
1.44956
1.53433
1.67813
1.72832
1.7534
1.69722
1.60967
1.52145
1.46627
1.45123
1.43823
1.62524
1.68791
1.67527
1.67853
1.64422
1.58475
1.52561
1.47543
1.44384
1.421
1.70392
1.69387
1.6381
1.59722
1.58057
1.54972
1.50325
1.45666
1.42303
1.40026
1.74592
1.69609
1.61711
1.54085
1.50481
1.49166
1.45991
1.41737
1.38583
1.37481
1.75895
1.69174
1.59823
1.50995
1.44618
1.42267
1.40071
1.36519
1.34169
1.35269
1.76052
1.67823
1.58119
1.48825
1.4105
1.36412
1.33609
1.31338
1.30744
1.33848
1.75586
1.66332
1.56427
1.46834
1.38186
1.32141
1.28854
1.28161
1.28915
1.33073
1.74606
1.64908
1.54654
1.447
1.35392
1.28543
1.2608
1.27024
1.28759
1.33133
1.73711
1.63512
1.52735
1.42242
1.32283
1.25427
1.24994
1.27019
1.29282
1.33329
1.72904
1.62055
1.50645
1.39524
1.28776
1.22987
1.25078
1.28342
1.31313
1.34082
1.72148
1.60504
1.48396
1.36569
1.25222
1.21284
1.25917
1.31022
1.33468
1.34937
1.71411
1.58862
1.45985
1.33492
1.21733
1.20393
1.26961
1.32858
1.3497
1.35554
1.70644
1.57144
1.43417
1.30306
1.18726
1.19819
1.27535
1.3356
1.35489
1.35862
1.69786
1.55281
1.40706
1.27117
1.15897
1.18846
1.27364
1.33847
1.35801
1.36073
1.68754
1.53365
1.37715
1.23676
1.1309
1.17028
1.26675
1.33858
1.36117
1.36351
1.67481
1.50865
1.34346
1.19843
1.10293
1.15419
1.26265
1.34076
1.36525
1.36665
1.65866
1.48096
1.30461
1.15342
1.07319
1.145
1.26869
1.34617
1.37087
1.3698
1.63961
1.44876
1.25955
1.10404
1.04848
1.14111
1.27727
1.35364
1.37576
1.37268
1.63961
1.44876
1.25955
1.10404
1.04848
1.14111
1.27727
1.35364
1.37576
1.37268
1.65866
1.48096
1.30461
1.15342
1.07319
1.145
1.26869
1.34617
1.37087
1.3698
1.67481
1.50865
1.34346
1.19843
1.10293
1.15419
1.26265
1.34076
1.36525
1.36665
1.68754
1.53365
1.37715
1.23676
1.1309
1.17028
1.26675
1.33858
1.36117
1.36351
1.69786
1.55281
1.40706
1.27117
1.15897
1.18846
1.27364
1.33847
1.35801
1.36073
1.70644
1.57144
1.43417
1.30306
1.18726
1.19819
1.27535
1.3356
1.35489
1.35862
1.71411
1.58862
1.45985
1.33492
1.21733
1.20393
1.26961
1.32858
1.3497
1.35554
1.72148
1.60504
1.48396
1.36569
1.25222
1.21284
1.25917
1.31022
1.33468
1.34937
1.72904
1.62055
1.50645
1.39524
1.28776
1.22987
1.25078
1.28342
1.31313
1.34082
1.73711
1.63512
1.52735
1.42242
1.32283
1.25427
1.24994
1.27019
1.29282
1.33329
1.74606
1.64908
1.54654
1.447
1.35392
1.28543
1.2608
1.27024
1.28759
1.33133
1.75586
1.66332
1.56427
1.46834
1.38186
1.32141
1.28854
1.28161
1.28915
1.33073
1.76052
1.67823
1.58119
1.48825
1.4105
1.36412
1.33609
1.31338
1.30744
1.33848
1.75895
1.69174
1.59823
1.50995
1.44618
1.42267
1.40071
1.36519
1.34169
1.35269
1.74592
1.69609
1.61711
1.54085
1.50481
1.49166
1.45991
1.41737
1.38583
1.37481
1.70392
1.69387
1.6381
1.59722
1.58057
1.54972
1.50325
1.45666
1.42303
1.40026
1.62524
1.68791
1.67527
1.67853
1.64422
1.58475
1.52561
1.47543
1.44384
1.421
1.53433
1.67813
1.72832
1.7534
1.69722
1.60967
1.52145
1.46627
1.45123
1.43823
1.46712
1.66546
1.78484
1.7942
1.72637
1.62133
1.5181
1.45806
1.45287
1.44956
1.43837
1.64485
1.83224
1.8413
1.74903
1.63004
1.51843
1.4539
1.45087
1.45425
2.00705
1.9882
1.97326
1.95627
1.93752
1.91375
1.88488
1.85165
1.81062
1.76283
1.98366
1.97127
1.95771
1.94354
1.92797
1.90774
1.88115
1.85049
1.81223
1.77023
1.95437
1.95503
1.94352
1.9313
1.91828
1.90265
1.87881
1.84993
1.81362
1.77433
1.91689
1.93317
1.92624
1.91623
1.90548
1.89352
1.87536
1.85054
1.81726
1.7802
1.86696
1.91077
1.91413
1.90469
1.89403
1.88368
1.87001
1.84936
1.81934
1.78483
1.79653
1.88024
1.90718
1.90059
1.88729
1.87457
1.86181
1.84521
1.81873
1.78694
1.70089
1.81588
1.889
1.89998
1.88747
1.87181
1.85818
1.84189
1.81708
1.78772
1.6045
1.69568
1.82453
1.88488
1.88446
1.87307
1.85985
1.84359
1.81928
1.78974
1.53715
1.57319
1.68593
1.81672
1.86886
1.87094
1.86352
1.84671
1.82335
1.79381
1.4966
1.50556
1.5475
1.66232
1.79739
1.85169
1.85837
1.84825
1.82939
1.80106
1.4734
1.47606
1.48377
1.52245
1.63254
1.77431
1.83373
1.84077
1.8316
1.80885
1.45949
1.46142
1.46224
1.4676
1.49954
1.60463
1.7439
1.81447
1.82718
1.81192
1.45039
1.45165
1.45229
1.45192
1.45526
1.48148
1.57446
1.71519
1.79595
1.80602
1.44397
1.4443
1.44472
1.44445
1.44353
1.44549
1.4658
1.55043
1.68653
1.77698
1.43923
1.43906
1.43896
1.43883
1.43826
1.43712
1.43767
1.45364
1.5277
1.67342
1.4376
1.43703
1.43638
1.43575
1.43511
1.43419
1.43306
1.43221
1.4446
1.52452
1.4376
1.43694
1.43614
1.43532
1.43435
1.43342
1.43217
1.43123
1.4296
1.44272
1.43779
1.43705
1.43621
1.43536
1.43437
1.43342
1.43215
1.43111
1.42958
1.42855
1.4381
1.4373
1.43643
1.4355
1.43449
1.43345
1.43224
1.43106
1.42966
1.42742
1.43832
1.43749
1.43664
1.43564
1.43468
1.43347
1.43245
1.43087
1.43005
1.42701
1.43089
1.48797
1.49729
1.49447
1.48783
1.47937
1.47334
1.45929
1.45641
1.77143
1.43089
1.48797
1.49729
1.49446
1.48784
1.47934
1.47335
1.46012
1.45316
1.73568
1.43089
1.48797
1.49729
1.49446
1.48784
1.47938
1.47322
1.46125
1.45153
1.69995
1.43089
1.48798
1.49729
1.49447
1.48782
1.47947
1.47295
1.46235
1.45055
1.66454
1.43089
1.48798
1.49729
1.49448
1.48778
1.47961
1.47261
1.46314
1.45051
1.62862
1.43089
1.48798
1.49729
1.49449
1.48774
1.47974
1.4723
1.46359
1.45052
1.59105
1.43089
1.48798
1.49728
1.4945
1.4877
1.47986
1.47206
1.46376
1.45056
1.55385
1.43089
1.48798
1.49728
1.49451
1.48766
1.47994
1.47191
1.46383
1.45059
1.52131
1.43089
1.48798
1.49728
1.49452
1.48764
1.47999
1.47184
1.46387
1.45068
1.49574
1.43089
1.48798
1.49728
1.49453
1.48763
1.48001
1.47179
1.46395
1.45075
1.47682
1.43089
1.48798
1.49728
1.49453
1.48762
1.48003
1.47174
1.46412
1.4504
1.46365
1.43089
1.48798
1.49728
1.49453
1.48762
1.48004
1.47168
1.4643
1.44993
1.45491
1.43089
1.48798
1.49728
1.49453
1.48762
1.48006
1.47163
1.46444
1.45023
1.44821
1.43089
1.48798
1.49728
1.49453
1.48762
1.48006
1.47161
1.46447
1.45111
1.44321
1.43089
1.48798
1.49728
1.49453
1.48762
1.48006
1.47162
1.46437
1.45219
1.44258
1.43089
1.48798
1.49728
1.49453
1.48762
1.48005
1.47168
1.46418
1.4531
1.44272
1.43089
1.48798
1.49728
1.49453
1.48763
1.48003
1.47176
1.46393
1.45376
1.4431
1.43089
1.48798
1.49728
1.49453
1.48764
1.48
1.47186
1.4637
1.45413
1.44354
1.43089
1.48798
1.49728
1.49452
1.48764
1.47997
1.47194
1.46354
1.45419
1.44383
1.43089
1.48798
1.49728
1.49452
1.48765
1.47995
1.47199
1.46348
1.45419
1.44393
1.43089
1.48798
1.49728
1.49452
1.48765
1.47995
1.47199
1.46348
1.45419
1.44393
1.43089
1.48798
1.49728
1.49452
1.48764
1.47997
1.47194
1.46354
1.45419
1.44383
1.43089
1.48798
1.49728
1.49453
1.48764
1.48
1.47186
1.4637
1.45413
1.44354
1.43089
1.48798
1.49728
1.49453
1.48763
1.48003
1.47176
1.46393
1.45376
1.4431
1.43089
1.48798
1.49728
1.49453
1.48762
1.48005
1.47168
1.46418
1.4531
1.44272
1.43089
1.48798
1.49728
1.49453
1.48762
1.48006
1.47162
1.46437
1.45219
1.44258
1.43089
1.48798
1.49728
1.49453
1.48762
1.48006
1.47161
1.46447
1.45111
1.44321
1.43089
1.48798
1.49728
1.49453
1.48762
1.48006
1.47163
1.46444
1.45023
1.44821
1.43089
1.48798
1.49728
1.49453
1.48762
1.48004
1.47168
1.4643
1.44993
1.45491
1.43089
1.48798
1.49728
1.49453
1.48762
1.48003
1.47174
1.46412
1.4504
1.46365
1.43089
1.48798
1.49728
1.49453
1.48763
1.48001
1.47179
1.46395
1.45075
1.47682
1.43089
1.48798
1.49728
1.49452
1.48764
1.47999
1.47184
1.46387
1.45068
1.49574
1.43089
1.48798
1.49728
1.49451
1.48766
1.47994
1.47191
1.46383
1.45059
1.52131
1.43089
1.48798
1.49728
1.4945
1.4877
1.47986
1.47206
1.46376
1.45056
1.55385
1.43089
1.48798
1.49729
1.49449
1.48774
1.47974
1.4723
1.46359
1.45052
1.59105
1.43089
1.48798
1.49729
1.49448
1.48778
1.47961
1.47261
1.46314
1.45051
1.62862
1.43089
1.48798
1.49729
1.49447
1.48782
1.47947
1.47295
1.46235
1.45055
1.66454
1.43089
1.48797
1.49729
1.49446
1.48784
1.47938
1.47322
1.46125
1.45153
1.69995
1.43089
1.48797
1.49729
1.49446
1.48784
1.47934
1.47335
1.46012
1.45316
1.73568
1.43089
1.48797
1.49729
1.49447
1.48783
1.47937
1.47334
1.45929
1.45641
1.77143
1.43832
1.43749
1.43664
1.43564
1.43468
1.43347
1.43245
1.43087
1.43005
1.42701
1.4381
1.4373
1.43643
1.4355
1.43449
1.43345
1.43224
1.43106
1.42966
1.42742
1.43779
1.43705
1.43621
1.43536
1.43437
1.43342
1.43215
1.43111
1.42958
1.42855
1.4376
1.43694
1.43614
1.43532
1.43435
1.43342
1.43217
1.43123
1.4296
1.44272
1.4376
1.43703
1.43638
1.43575
1.43511
1.43419
1.43306
1.43221
1.4446
1.52452
1.43923
1.43906
1.43896
1.43883
1.43826
1.43712
1.43767
1.45364
1.5277
1.67342
1.44397
1.4443
1.44472
1.44445
1.44353
1.44549
1.4658
1.55043
1.68653
1.77698
1.45039
1.45165
1.45229
1.45192
1.45526
1.48148
1.57446
1.71519
1.79595
1.80602
1.45949
1.46142
1.46224
1.4676
1.49954
1.60463
1.7439
1.81447
1.82718
1.81192
1.4734
1.47606
1.48377
1.52245
1.63254
1.77431
1.83373
1.84077
1.8316
1.80885
1.4966
1.50556
1.5475
1.66232
1.79739
1.85169
1.85837
1.84825
1.82939
1.80106
1.53715
1.57319
1.68593
1.81672
1.86886
1.87094
1.86352
1.84671
1.82335
1.79381
1.6045
1.69568
1.82453
1.88488
1.88446
1.87307
1.85985
1.84359
1.81928
1.78974
1.70089
1.81588
1.889
1.89998
1.88747
1.87181
1.85818
1.84189
1.81708
1.78772
1.79653
1.88024
1.90718
1.90059
1.88729
1.87457
1.86181
1.84521
1.81873
1.78694
1.86696
1.91077
1.91413
1.90469
1.89403
1.88368
1.87001
1.84936
1.81934
1.78483
1.91689
1.93317
1.92624
1.91623
1.90548
1.89352
1.87536
1.85054
1.81726
1.7802
1.95437
1.95503
1.94352
1.9313
1.91828
1.90265
1.87881
1.84993
1.81362
1.77433
1.98366
1.97127
1.95771
1.94354
1.92797
1.90774
1.88115
1.85049
1.81223
1.77023
2.00705
1.9882
1.97326
1.95627
1.93752
1.91375
1.88488
1.85165
1.81062
1.76283
)
;

boundaryField
{
    inlet
    {
        type            calculated;
        value           uniform 1.40001;
    }
    outlet
    {
        type            calculated;
        value           nonuniform List<scalar> 
100
(
1.3728
1.36992
1.36674
1.36359
1.36083
1.35875
1.35565
1.34953
1.34107
1.33334
1.33127
1.33061
1.33836
1.35259
1.37485
1.40034
1.42099
1.438
1.44911
1.45351
1.39311
1.39263
1.39222
1.39204
1.39175
1.39113
1.39016
1.38891
1.38757
1.38636
1.38542
1.38467
1.3839
1.38296
1.38177
1.3804
1.37892
1.37747
1.37613
1.37485
1.39349
1.39423
1.39457
1.39513
1.39523
1.39491
1.39424
1.39325
1.39217
1.39194
1.39194
1.39217
1.39325
1.39424
1.39491
1.39523
1.39513
1.39457
1.39423
1.39349
1.37485
1.37613
1.37747
1.37892
1.3804
1.38177
1.38296
1.3839
1.38467
1.38542
1.38636
1.38757
1.38891
1.39016
1.39113
1.39175
1.39204
1.39222
1.39263
1.39311
1.45351
1.44911
1.438
1.42099
1.40034
1.37485
1.35259
1.33836
1.33061
1.33127
1.33334
1.34107
1.34953
1.35565
1.35875
1.36083
1.36359
1.36674
1.36992
1.3728
)
;
    }
    triangle
    {
        type            calculated;
        value           nonuniform List<scalar> 
40
(
2.49747
2.40694
2.34294
2.27897
2.21628
2.15373
2.08718
2.01155
1.90963
1.7782
0.673462
0.679616
0.694855
0.71086
0.720847
0.726911
0.730352
0.732321
0.734566
0.736082
0.736082
0.734566
0.732321
0.730352
0.726911
0.720847
0.71086
0.694855
0.679616
0.673462
2.49747
2.40694
2.34294
2.27897
2.21628
2.15373
2.08718
2.01155
1.90963
1.7782
)
;
    }
    top
    {
        type            symmetryPlane;
    }
    bottom
    {
        type            symmetryPlane;
    }
    defaultFaces
    {
        type            empty;
    }
}


// ************************************************************************* //
