/*--------------------------------*- C++ -*----------------------------------*\
  =========                 |
  \\      /  F ield         | OpenFOAM: The Open Source CFD Toolbox
   \\    /   O peration     | Website:  https://openfoam.org
    \\  /    A nd           | Version:  8
     \\/     M anipulation  |
\*---------------------------------------------------------------------------*/
FoamFile
{
    version     2.0;
    format      ascii;
    class       volVectorField;
    location    "0.5";
    object      U;
}
// * * * * * * * * * * * * * * * * * * * * * * * * * * * * * * * * * * * * * //

dimensions      [0 1 -1 0 0 0 0];

internalField   nonuniform List<vector> 
2600
(
(0.534361 -0.00195448 0)
(1.11022 0.133477 0)
(1.41059 0.237027 0)
(1.4978 0.242814 0)
(1.26404 0.202354 0)
(1.02911 0.127631 0)
(0.99127 0.073583 0)
(0.999688 0.0506532 0)
(1.02714 0.0325878 0)
(1.05209 0.0147396 0)
(0.131135 -0.121135 0)
(0.713594 0.0506202 0)
(1.21893 0.197384 0)
(1.4376 0.218902 0)
(1.25705 0.199874 0)
(1.02022 0.130095 0)
(0.982603 0.0724125 0)
(0.991492 0.0493344 0)
(1.02114 0.031442 0)
(1.05158 0.0134462 0)
(-0.0380605 -0.129153 0)
(0.33963 0.0236626 0)
(0.931497 0.140126 0)
(1.30268 0.19051 0)
(1.22588 0.212061 0)
(1.00769 0.131052 0)
(0.97172 0.0698372 0)
(0.982397 0.0477163 0)
(1.01558 0.030012 0)
(1.0505 0.0122434 0)
(-0.11061 -0.147682 0)
(0.0865326 -0.0423432 0)
(0.589237 0.0815105 0)
(1.05587 0.15925 0)
(1.1407 0.191607 0)
(0.984991 0.131664 0)
(0.955565 0.0675771 0)
(0.971342 0.0470343 0)
(1.01083 0.0282587 0)
(1.05085 0.0109467 0)
(-0.156194 -0.140013 0)
(-0.0873693 -0.0630704 0)
(0.235968 0.0248486 0)
(0.70245 0.0946108 0)
(0.971015 0.176835 0)
(0.933635 0.132818 0)
(0.927519 0.068441 0)
(0.956414 0.0461073 0)
(1.0073 0.0264254 0)
(1.05095 0.00921625 0)
(-0.188601 -0.131734 0)
(-0.219265 -0.0688989 0)
(-0.0901017 0.00228685 0)
(0.288724 0.0663714 0)
(0.705955 0.142744 0)
(0.829917 0.116591 0)
(0.878588 0.0601393 0)
(0.936085 0.043255 0)
(1.00627 0.0229409 0)
(1.05186 0.00752208 0)
(-0.210565 -0.114072 0)
(-0.327707 -0.0641198 0)
(-0.342435 -0.0130263 0)
(-0.0791869 0.0230181 0)
(0.396516 0.12012 0)
(0.671219 0.115937 0)
(0.807287 0.0631462 0)
(0.910791 0.0382865 0)
(1.00482 0.0196918 0)
(1.05223 0.00573471 0)
(-0.224371 -0.0878467 0)
(-0.412013 -0.055815 0)
(-0.498384 -0.00714233 0)
(-0.334055 0.0105356 0)
(0.128827 0.0748542 0)
(0.502898 0.0756008 0)
(0.729896 0.044368 0)
(0.8851 0.0319475 0)
(1.0062 0.0148055 0)
(1.05332 0.00400563 0)
(-0.24029 -0.0568919 0)
(-0.461554 -0.0394868 0)
(-0.567394 -0.0129512 0)
(-0.458629 -0.00177277 0)
(-0.0439479 0.0505615 0)
(0.368556 0.0580764 0)
(0.663624 0.0357167 0)
(0.868715 0.0211663 0)
(1.00494 0.0087135 0)
(1.05318 0.0022534 0)
(-0.251009 -0.0193238 0)
(-0.481466 -0.01273 0)
(-0.584802 -0.00388045 0)
(-0.492586 -4.85061e-05 0)
(-0.112307 0.0198862 0)
(0.305299 0.0223679 0)
(0.629744 0.0137304 0)
(0.8681 0.00692977 0)
(1.00774 0.00294087 0)
(1.05392 0.000727661 0)
(-0.251009 0.0193238 0)
(-0.481466 0.01273 0)
(-0.584802 0.00388024 0)
(-0.492587 5.68709e-05 0)
(-0.112307 -0.019886 0)
(0.305299 -0.0223679 0)
(0.629744 -0.0137304 0)
(0.8681 -0.00692977 0)
(1.00774 -0.00294087 0)
(1.05392 -0.000727661 0)
(-0.24029 0.0568919 0)
(-0.461554 0.0394868 0)
(-0.567394 0.0129513 0)
(-0.458632 0.00176081 0)
(-0.0439479 -0.0505616 0)
(0.368556 -0.0580764 0)
(0.663624 -0.0357167 0)
(0.868715 -0.0211663 0)
(1.00494 -0.0087135 0)
(1.05318 -0.0022534 0)
(-0.224371 0.0878467 0)
(-0.412013 0.055815 0)
(-0.498384 0.00714251 0)
(-0.334055 -0.0105275 0)
(0.128826 -0.0748544 0)
(0.502898 -0.0756008 0)
(0.729896 -0.044368 0)
(0.8851 -0.0319475 0)
(1.0062 -0.0148055 0)
(1.05332 -0.00400563 0)
(-0.210565 0.114072 0)
(-0.327707 0.0641199 0)
(-0.342434 0.0130262 0)
(-0.0791851 -0.0230214 0)
(0.396516 -0.12012 0)
(0.671219 -0.115937 0)
(0.807287 -0.0631462 0)
(0.910791 -0.0382865 0)
(1.00482 -0.0196918 0)
(1.05223 -0.00573471 0)
(-0.188601 0.131734 0)
(-0.219265 0.0688989 0)
(-0.0901017 -0.00228692 0)
(0.288725 -0.0663719 0)
(0.705955 -0.142744 0)
(0.829917 -0.116591 0)
(0.878588 -0.0601393 0)
(0.936085 -0.043255 0)
(1.00627 -0.0229409 0)
(1.05186 -0.00752208 0)
(-0.156194 0.140013 0)
(-0.0873693 0.0630704 0)
(0.235968 -0.0248487 0)
(0.70245 -0.0946116 0)
(0.971015 -0.176835 0)
(0.933635 -0.132818 0)
(0.927519 -0.068441 0)
(0.956414 -0.0461073 0)
(1.0073 -0.0264254 0)
(1.05095 -0.00921625 0)
(-0.11061 0.147682 0)
(0.0865326 0.0423432 0)
(0.589237 -0.0815105 0)
(1.05587 -0.15925 0)
(1.1407 -0.191607 0)
(0.984991 -0.131664 0)
(0.955565 -0.0675771 0)
(0.971342 -0.0470343 0)
(1.01083 -0.0282587 0)
(1.05085 -0.0109467 0)
(-0.0380605 0.129153 0)
(0.33963 -0.0236626 0)
(0.931497 -0.140126 0)
(1.30268 -0.19051 0)
(1.22588 -0.212061 0)
(1.00769 -0.131052 0)
(0.97172 -0.0698372 0)
(0.982397 -0.0477163 0)
(1.01558 -0.030012 0)
(1.0505 -0.0122434 0)
(0.131135 0.121135 0)
(0.713594 -0.0506202 0)
(1.21893 -0.197384 0)
(1.4376 -0.218902 0)
(1.25705 -0.199874 0)
(1.02022 -0.130095 0)
(0.982603 -0.0724125 0)
(0.991492 -0.0493344 0)
(1.02114 -0.031442 0)
(1.05158 -0.0134462 0)
(0.534361 0.00195448 0)
(1.11022 -0.133477 0)
(1.41059 -0.237027 0)
(1.4978 -0.242814 0)
(1.26404 -0.202354 0)
(1.02911 -0.127631 0)
(0.99127 -0.073583 0)
(0.999688 -0.0506532 0)
(1.02714 -0.0325878 0)
(1.05209 -0.0147396 0)
(1.08894 0.0260078 0)
(1.41279 -0.13969 0)
(1.5124 -0.25339 0)
(1.52176 -0.26478 0)
(1.2662 -0.202078 0)
(1.03628 -0.129094 0)
(0.999416 -0.0749426 0)
(1.00787 -0.0516859 0)
(1.03343 -0.0341565 0)
(1.05373 -0.0158438 0)
(1.2498 0.159613 0)
(1.53014 -0.133733 0)
(1.55411 -0.258102 0)
(1.53221 -0.28341 0)
(1.2674 -0.205557 0)
(1.04308 -0.128422 0)
(1.00751 -0.0772243 0)
(1.01581 -0.0537549 0)
(1.0394 -0.0362058 0)
(1.05526 -0.0174537 0)
(1.27926 0.17259 0)
(1.53409 -0.123516 0)
(1.56446 -0.256985 0)
(1.52998 -0.301492 0)
(1.27116 -0.207222 0)
(1.05096 -0.129774 0)
(1.01489 -0.0806036 0)
(1.02235 -0.0570995 0)
(1.0442 -0.0383441 0)
(1.05721 -0.0189056 0)
(1.24829 0.206985 0)
(1.50219 -0.076718 0)
(1.56205 -0.244704 0)
(1.53308 -0.316635 0)
(1.28195 -0.211486 0)
(1.05954 -0.130175 0)
(1.02239 -0.0832751 0)
(1.02833 -0.0584823 0)
(1.0481 -0.0390438 0)
(1.05909 -0.0202473 0)
(1.22457 0.211043 0)
(1.47419 -0.0481857 0)
(1.55444 -0.234088 0)
(1.5355 -0.327724 0)
(1.29521 -0.219054 0)
(1.06773 -0.13262 0)
(1.02977 -0.0853201 0)
(1.03331 -0.0590902 0)
(1.05113 -0.0389469 0)
(1.06055 -0.02159 0)
(1.20084 0.219475 0)
(1.44296 -0.00964182 0)
(1.55043 -0.216179 0)
(1.52801 -0.329763 0)
(1.30615 -0.226605 0)
(1.07628 -0.13455 0)
(1.0369 -0.0862017 0)
(1.03794 -0.0585584 0)
(1.05366 -0.0391781 0)
(1.06171 -0.0229055 0)
(1.18241 0.221412 0)
(1.41334 0.015806 0)
(1.55966 -0.208017 0)
(1.50922 -0.317983 0)
(1.32054 -0.231688 0)
(1.08459 -0.136103 0)
(1.04372 -0.0874703 0)
(1.04292 -0.059364 0)
(1.0561 -0.0398398 0)
(1.06277 -0.0241926 0)
(1.16568 0.223238 0)
(1.38074 0.0405498 0)
(1.55844 -0.186628 0)
(1.4959 -0.302165 0)
(1.33524 -0.236866 0)
(1.09333 -0.136374 0)
(1.05026 -0.0896243 0)
(1.0477 -0.0616883 0)
(1.0584 -0.0413168 0)
(1.06372 -0.0254575 0)
(1.1503 0.223869 0)
(1.35672 0.0544395 0)
(1.53927 -0.16498 0)
(1.49775 -0.292012 0)
(1.35602 -0.241852 0)
(1.10406 -0.137723 0)
(1.05649 -0.0917896 0)
(1.05221 -0.0641702 0)
(1.06069 -0.0428814 0)
(1.06461 -0.0266916 0)
(1.13677 0.222882 0)
(1.33332 0.0712287 0)
(1.51175 -0.144101 0)
(1.49915 -0.280232 0)
(1.37694 -0.247778 0)
(1.11578 -0.139354 0)
(1.06199 -0.0934952 0)
(1.05666 -0.0652174 0)
(1.063 -0.0437737 0)
(1.06545 -0.0279197 0)
(1.12426 0.222232 0)
(1.31568 0.0805933 0)
(1.48351 -0.122119 0)
(1.49189 -0.262219 0)
(1.38936 -0.255196 0)
(1.12736 -0.143356 0)
(1.06672 -0.0949226 0)
(1.0607 -0.0654187 0)
(1.06516 -0.0441932 0)
(1.06629 -0.0291591 0)
(1.11349 0.220272 0)
(1.29779 0.0916927 0)
(1.4586 -0.10127 0)
(1.48422 -0.24857 0)
(1.39338 -0.26037 0)
(1.13826 -0.148542 0)
(1.07067 -0.0968049 0)
(1.06426 -0.0650214 0)
(1.06717 -0.0446407 0)
(1.06713 -0.0303812 0)
(1.104 0.218076 0)
(1.28177 0.0987544 0)
(1.43522 -0.0790612 0)
(1.4724 -0.230658 0)
(1.39558 -0.26097 0)
(1.15344 -0.154315 0)
(1.07551 -0.0985402 0)
(1.06756 -0.0648465 0)
(1.06904 -0.0453857 0)
(1.06794 -0.0315488 0)
(1.09584 0.215207 0)
(1.26478 0.106644 0)
(1.41558 -0.059405 0)
(1.45597 -0.211159 0)
(1.39373 -0.258346 0)
(1.16794 -0.159225 0)
(1.08005 -0.100176 0)
(1.07077 -0.0653197 0)
(1.07085 -0.0463793 0)
(1.0687 -0.0326241 0)
(1.08867 0.212635 0)
(1.24994 0.111741 0)
(1.39536 -0.0381291 0)
(1.43793 -0.190502 0)
(1.38604 -0.256327 0)
(1.18475 -0.163649 0)
(1.0862 -0.101516 0)
(1.07424 -0.0656478 0)
(1.0726 -0.0474871 0)
(1.06951 -0.0335968 0)
(1.08224 0.209715 0)
(1.23465 0.118264 0)
(1.37586 -0.019281 0)
(1.42941 -0.173174 0)
(1.37303 -0.248753 0)
(1.19917 -0.168133 0)
(1.093 -0.103763 0)
(1.07798 -0.0661252 0)
(1.07421 -0.0485598 0)
(1.07024 -0.0344379 0)
(1.0762 0.207758 0)
(1.22135 0.123066 0)
(1.35382 -0.00145978 0)
(1.43037 -0.157869 0)
(1.35503 -0.240531 0)
(1.20998 -0.172475 0)
(1.09979 -0.107148 0)
(1.08206 -0.0665608 0)
(1.07593 -0.0494666 0)
(1.07103 -0.0351753 0)
(1.06995 0.205189 0)
(1.20746 0.128555 0)
(1.33283 0.0125454 0)
(1.42672 -0.138072 0)
(1.34071 -0.228864 0)
(1.21941 -0.177222 0)
(1.10686 -0.111162 0)
(1.08638 -0.0671277 0)
(1.07771 -0.0502511 0)
(1.07185 -0.0358349 0)
(1.06346 0.202726 0)
(1.19412 0.13276 0)
(1.31327 0.0244699 0)
(1.41446 -0.120256 0)
(1.33654 -0.216629 0)
(1.22759 -0.180262 0)
(1.11417 -0.114933 0)
(1.09059 -0.0671371 0)
(1.07985 -0.0508734 0)
(1.07283 -0.0365392 0)
(1.05662 0.200778 0)
(1.18059 0.136876 0)
(1.29652 0.0343524 0)
(1.39808 -0.103293 0)
(1.33578 -0.205132 0)
(1.23366 -0.181806 0)
(1.12076 -0.118721 0)
(1.09408 -0.0672435 0)
(1.08173 -0.0516822 0)
(1.07365 -0.0372802 0)
(0.36139 0.117958 0)
(0.431841 0.152483 0)
(0.473095 0.205859 0)
(0.518624 0.245913 0)
(0.55901 0.280283 0)
(0.598516 0.309333 0)
(0.63968 0.336312 0)
(0.688411 0.363003 0)
(0.753186 0.396179 0)
(0.870361 0.425404 0)
(0.388952 0.14487 0)
(0.442737 0.166281 0)
(0.472104 0.208566 0)
(0.514264 0.244628 0)
(0.553316 0.278825 0)
(0.593879 0.308309 0)
(0.636846 0.336064 0)
(0.687453 0.364027 0)
(0.755664 0.398028 0)
(0.873005 0.422908 0)
(0.44063 0.137572 0)
(0.481965 0.152038 0)
(0.499674 0.185581 0)
(0.532809 0.219112 0)
(0.564691 0.254936 0)
(0.602998 0.287058 0)
(0.646331 0.318063 0)
(0.698713 0.348383 0)
(0.770465 0.382575 0)
(0.892339 0.39648 0)
(0.492308 0.14532 0)
(0.525703 0.165262 0)
(0.536896 0.195804 0)
(0.565273 0.221619 0)
(0.59066 0.250872 0)
(0.624072 0.278433 0)
(0.662426 0.306989 0)
(0.711032 0.335075 0)
(0.782668 0.366756 0)
(0.900861 0.37228 0)
(0.538063 0.14454 0)
(0.56542 0.163818 0)
(0.574072 0.192931 0)
(0.599948 0.218432 0)
(0.620443 0.247672 0)
(0.650709 0.274316 0)
(0.685974 0.301755 0)
(0.733306 0.327491 0)
(0.804035 0.355467 0)
(0.920566 0.356635 0)
(0.577232 0.148341 0)
(0.599168 0.167203 0)
(0.605819 0.194662 0)
(0.629215 0.219085 0)
(0.647053 0.246891 0)
(0.675869 0.271535 0)
(0.709438 0.297411 0)
(0.756063 0.320898 0)
(0.824636 0.344279 0)
(0.934406 0.342856 0)
(0.611158 0.15094 0)
(0.628541 0.168538 0)
(0.633417 0.193231 0)
(0.653758 0.216106 0)
(0.669353 0.242509 0)
(0.696798 0.265816 0)
(0.729137 0.290449 0)
(0.775148 0.312031 0)
(0.841307 0.331988 0)
(0.942932 0.329362 0)
(0.640376 0.155614 0)
(0.654344 0.172255 0)
(0.658155 0.194745 0)
(0.675829 0.216082 0)
(0.689961 0.240471 0)
(0.715952 0.261429 0)
(0.746864 0.283797 0)
(0.791514 0.302954 0)
(0.854343 0.319588 0)
(0.947366 0.31645 0)
(0.66559 0.160115 0)
(0.677126 0.175603 0)
(0.68015 0.195824 0)
(0.695536 0.215408 0)
(0.70869 0.237686 0)
(0.733327 0.256539 0)
(0.762902 0.276854 0)
(0.80587 0.293884 0)
(0.864994 0.307679 0)
(0.949808 0.304597 0)
(0.686776 0.165773 0)
(0.696844 0.179979 0)
(0.699521 0.197989 0)
(0.713294 0.215616 0)
(0.726027 0.23558 0)
(0.749524 0.252126 0)
(0.777795 0.270257 0)
(0.818853 0.285299 0)
(0.874311 0.296763 0)
(0.951607 0.293906 0)
(0.704351 0.171226 0)
(0.713802 0.183972 0)
(0.716498 0.199758 0)
(0.729226 0.215288 0)
(0.741832 0.232971 0)
(0.764378 0.247518 0)
(0.791414 0.263795 0)
(0.83049 0.277303 0)
(0.882211 0.286681 0)
(0.95286 0.284112 0)
(0.718554 0.17669 0)
(0.72817 0.187786 0)
(0.731377 0.201429 0)
(0.743667 0.214846 0)
(0.756355 0.230322 0)
(0.778006 0.243063 0)
(0.803765 0.257641 0)
(0.84068 0.269709 0)
(0.889194 0.277599 0)
(0.954103 0.275243 0)
(0.730454 0.181116 0)
(0.7407 0.190412 0)
(0.744671 0.202058 0)
(0.756834 0.213542 0)
(0.769608 0.227085 0)
(0.790361 0.238499 0)
(0.814956 0.251772 0)
(0.849923 0.262823 0)
(0.895135 0.269312 0)
(0.954773 0.267017 0)
(0.740901 0.184441 0)
(0.751919 0.191938 0)
(0.756769 0.201907 0)
(0.768991 0.211792 0)
(0.781846 0.223707 0)
(0.801624 0.234063 0)
(0.825024 0.246084 0)
(0.857923 0.256039 0)
(0.900365 0.261684 0)
(0.955814 0.259674 0)
(0.750634 0.186222 0)
(0.762265 0.19221 0)
(0.767905 0.200855 0)
(0.780118 0.209484 0)
(0.792947 0.220036 0)
(0.811781 0.229649 0)
(0.83428 0.240742 0)
(0.865575 0.249947 0)
(0.905348 0.254802 0)
(0.95677 0.252929 0)
(0.759893 0.186957 0)
(0.771986 0.19164 0)
(0.778279 0.19919 0)
(0.790326 0.207028 0)
(0.803129 0.216563 0)
(0.82106 0.225424 0)
(0.842547 0.235327 0)
(0.872023 0.243529 0)
(0.909499 0.247882 0)
(0.957754 0.246459 0)
(0.768604 0.186453 0)
(0.781031 0.190366 0)
(0.787897 0.197151 0)
(0.799632 0.204363 0)
(0.812349 0.212946 0)
(0.829661 0.221207 0)
(0.850673 0.230301 0)
(0.878962 0.23794 0)
(0.914408 0.241836 0)
(0.95969 0.240695 0)
(0.776942 0.185454 0)
(0.789377 0.18872 0)
(0.796829 0.194905 0)
(0.808422 0.201839 0)
(0.8212 0.209743 0)
(0.83789 0.217145 0)
(0.858092 0.224918 0)
(0.884798 0.231658 0)
(0.918333 0.235121 0)
(0.961161 0.234464 0)
(0.784274 0.182507 0)
(0.797015 0.185573 0)
(0.804983 0.191466 0)
(0.816432 0.197983 0)
(0.829279 0.205324 0)
(0.845689 0.212504 0)
(0.865726 0.219741 0)
(0.891561 0.226209 0)
(0.923482 0.229169 0)
(0.963589 0.228776 0)
(0.793289 0.179051 0)
(0.806026 0.18223 0)
(0.814303 0.188446 0)
(0.825671 0.195018 0)
(0.838523 0.201916 0)
(0.85415 0.208595 0)
(0.873396 0.214772 0)
(0.897731 0.220579 0)
(0.928029 0.223362 0)
(0.965326 0.223433 0)
(1.23366 -1.37559e-09 0)
(1.18457 -2.17586e-07 0)
(1.17134 1.38107e-06 0)
(1.16512 -4.09453e-06 0)
(1.16062 8.48463e-06 0)
(1.15574 -1.12886e-05 0)
(1.15046 -8.62582e-06 0)
(1.14536 -7.65214e-05 0)
(1.00647 0.00543199 0)
(0.457364 0.0141559 0)
(1.23366 -5.26273e-09 0)
(1.18457 -6.12272e-07 0)
(1.17134 3.97764e-06 0)
(1.16512 -1.18603e-05 0)
(1.16063 2.46861e-05 0)
(1.15572 -3.27721e-05 0)
(1.15058 -3.25269e-05 0)
(1.14503 -2.02937e-05 0)
(1.01266 0.0153098 0)
(0.484014 0.0388983 0)
(1.23366 -8.81687e-09 0)
(1.18457 -1.00251e-06 0)
(1.17134 6.54795e-06 0)
(1.16512 -1.9536e-05 0)
(1.16063 4.01693e-05 0)
(1.15567 -4.97063e-05 0)
(1.15084 -1.40973e-05 0)
(1.14413 -0.000146453 0)
(1.02003 0.0224991 0)
(0.521036 0.058078 0)
(1.23366 -1.22244e-08 0)
(1.18457 -1.37722e-06 0)
(1.17134 9.04312e-06 0)
(1.16512 -2.71068e-05 0)
(1.16064 5.57287e-05 0)
(1.15561 -6.85566e-05 0)
(1.15115 -3.53798e-05 0)
(1.14283 -2.62863e-05 0)
(1.02665 0.0291036 0)
(0.558245 0.075696 0)
(1.23366 -1.54657e-08 0)
(1.18457 -1.73137e-06 0)
(1.17134 1.14327e-05 0)
(1.16512 -3.45468e-05 0)
(1.16064 7.22715e-05 0)
(1.15557 -9.15275e-05 0)
(1.15138 -1.51255e-05 0)
(1.14157 -0.000103252 0)
(1.03473 0.0337769 0)
(0.593896 0.0878229 0)
(1.23366 -1.84452e-08 0)
(1.18457 -2.06105e-06 0)
(1.17134 1.36699e-05 0)
(1.16512 -4.15349e-05 0)
(1.16065 8.77886e-05 0)
(1.15556 -0.000118542 0)
(1.15147 1.44303e-05 0)
(1.14079 -0.000108769 0)
(1.04376 0.0371661 0)
(0.625386 0.0989549 0)
(1.23366 -2.1034e-08 0)
(1.18457 -2.36409e-06 0)
(1.17134 1.57612e-05 0)
(1.16512 -4.82326e-05 0)
(1.16064 0.000102679 0)
(1.15557 -0.000144268 0)
(1.15148 5.74004e-05 0)
(1.14055 -0.000109122 0)
(1.05352 0.0390841 0)
(0.653655 0.106923 0)
(1.23366 -2.31399e-08 0)
(1.18457 -2.63608e-06 0)
(1.17133 1.76305e-05 0)
(1.16512 -5.43075e-05 0)
(1.16063 0.000117118 0)
(1.15558 -0.000171479 0)
(1.15143 8.83928e-05 0)
(1.14054 -7.44726e-05 0)
(1.06359 0.0399445 0)
(0.678718 0.113942 0)
(1.23366 -2.46425e-08 0)
(1.18457 -2.87575e-06 0)
(1.17133 1.92953e-05 0)
(1.16512 -5.98957e-05 0)
(1.16062 0.000130896 0)
(1.15562 -0.000199246 0)
(1.15135 0.000137695 0)
(1.14063 -9.66297e-05 0)
(1.07363 0.0396754 0)
(0.701671 0.119017 0)
(1.23366 -2.54642e-08 0)
(1.18457 -3.08071e-06 0)
(1.17133 2.07165e-05 0)
(1.16512 -6.49189e-05 0)
(1.16061 0.000144778 0)
(1.15566 -0.000233155 0)
(1.15123 0.000212431 0)
(1.14081 -0.000152393 0)
(1.08335 0.038331 0)
(0.722905 0.123302 0)
(1.23366 -2.55201e-08 0)
(1.18457 -3.25105e-06 0)
(1.17133 2.18976e-05 0)
(1.16513 -6.93829e-05 0)
(1.1606 0.000158582 0)
(1.1557 -0.00027205 0)
(1.15109 0.000309474 0)
(1.14107 -0.000247494 0)
(1.09245 0.0360454 0)
(0.743048 0.126502 0)
(1.23366 -2.47739e-08 0)
(1.18457 -3.38644e-06 0)
(1.17133 2.28275e-05 0)
(1.16513 -7.32526e-05 0)
(1.16059 0.000172106 0)
(1.15574 -0.00031487 0)
(1.15093 0.000424704 0)
(1.14137 -0.000400766 0)
(1.10072 0.0331045 0)
(0.762476 0.12919 0)
(1.23366 -2.31839e-08 0)
(1.18457 -3.48683e-06 0)
(1.17133 2.35044e-05 0)
(1.16513 -7.64568e-05 0)
(1.16057 0.000184876 0)
(1.15579 -0.00035995 0)
(1.15075 0.000555233 0)
(1.14174 -0.000595688 0)
(1.10806 0.0297457 0)
(0.781521 0.131323 0)
(1.23366 -2.08537e-08 0)
(1.18457 -3.55393e-06 0)
(1.17133 2.39204e-05 0)
(1.16513 -7.89277e-05 0)
(1.16056 0.000196318 0)
(1.15584 -0.000405294 0)
(1.15055 0.000700957 0)
(1.14219 -0.000872428 0)
(1.11439 0.0261397 0)
(0.8004 0.13314 0)
(1.23366 -1.77427e-08 0)
(1.18457 -3.58026e-06 0)
(1.17133 2.40513e-05 0)
(1.16513 -8.055e-05 0)
(1.16056 0.000205769 0)
(1.15588 -0.000447907 0)
(1.15034 0.000849269 0)
(1.14275 -0.00123915 0)
(1.11971 0.0224245 0)
(0.819309 0.134305 0)
(1.23366 -1.41293e-08 0)
(1.18457 -3.56079e-06 0)
(1.17133 2.38513e-05 0)
(1.16513 -8.10154e-05 0)
(1.16055 0.000212104 0)
(1.15592 -0.000483451 0)
(1.15012 0.000980637 0)
(1.14346 -0.00157684 0)
(1.12398 0.0187394 0)
(0.838433 0.135188 0)
(1.23366 -1.01439e-08 0)
(1.18457 -3.50626e-06 0)
(1.17133 2.33448e-05 0)
(1.16513 -8.02842e-05 0)
(1.16054 0.00021474 0)
(1.15596 -0.000509553 0)
(1.14993 0.00110125 0)
(1.1443 -0.00193919 0)
(1.1272 0.0152176 0)
(0.857915 0.135406 0)
(1.23366 -5.65315e-09 0)
(1.18457 -3.41792e-06 0)
(1.17133 2.26072e-05 0)
(1.16513 -7.88239e-05 0)
(1.16054 0.000215204 0)
(1.15598 -0.000529614 0)
(1.14978 0.00121486 0)
(1.14521 -0.00261639 0)
(1.12934 0.0120796 0)
(0.877967 0.135043 0)
(1.23366 -1.03805e-09 0)
(1.18457 -3.285e-06 0)
(1.17133 2.15539e-05 0)
(1.16513 -7.62954e-05 0)
(1.16053 0.000213222 0)
(1.156 -0.000544105 0)
(1.1497 0.0012824 0)
(1.14604 -0.00344236 0)
(1.13071 0.0091661 0)
(0.898716 0.134435 0)
(1.23366 3.07506e-09 0)
(1.18457 -3.12401e-06 0)
(1.17133 2.03466e-05 0)
(1.16513 -7.33522e-05 0)
(1.16053 0.000210954 0)
(1.15601 -0.000559185 0)
(1.14968 0.00129545 0)
(1.14665 -0.00360093 0)
(1.13163 0.00626677 0)
(0.919763 0.133 0)
(1.23366 -3.07493e-09 0)
(1.18457 3.12401e-06 0)
(1.17133 -2.03466e-05 0)
(1.16513 7.33522e-05 0)
(1.16053 -0.000210954 0)
(1.15601 0.000559185 0)
(1.14968 -0.00129545 0)
(1.14665 0.00360093 0)
(1.13163 -0.00626677 0)
(0.919763 -0.133 0)
(1.23366 1.03829e-09 0)
(1.18457 3.285e-06 0)
(1.17133 -2.15539e-05 0)
(1.16513 7.62954e-05 0)
(1.16053 -0.000213222 0)
(1.156 0.000544105 0)
(1.1497 -0.0012824 0)
(1.14604 0.00344237 0)
(1.13071 -0.0091661 0)
(0.898716 -0.134435 0)
(1.23366 5.65345e-09 0)
(1.18457 3.41792e-06 0)
(1.17133 -2.26072e-05 0)
(1.16513 7.8824e-05 0)
(1.16054 -0.000215204 0)
(1.15598 0.000529614 0)
(1.14978 -0.00121486 0)
(1.14521 0.00261639 0)
(1.12934 -0.0120796 0)
(0.877967 -0.135043 0)
(1.23366 1.01437e-08 0)
(1.18457 3.50626e-06 0)
(1.17133 -2.33448e-05 0)
(1.16513 8.02842e-05 0)
(1.16054 -0.00021474 0)
(1.15596 0.000509553 0)
(1.14993 -0.00110125 0)
(1.1443 0.00193919 0)
(1.1272 -0.0152176 0)
(0.857915 -0.135406 0)
(1.23366 1.41292e-08 0)
(1.18457 3.56079e-06 0)
(1.17133 -2.38513e-05 0)
(1.16513 8.10154e-05 0)
(1.16055 -0.000212104 0)
(1.15592 0.000483451 0)
(1.15012 -0.000980637 0)
(1.14346 0.00157684 0)
(1.12398 -0.0187394 0)
(0.838433 -0.135188 0)
(1.23366 1.77427e-08 0)
(1.18457 3.58026e-06 0)
(1.17133 -2.40513e-05 0)
(1.16513 8.055e-05 0)
(1.16056 -0.000205769 0)
(1.15588 0.000447907 0)
(1.15034 -0.000849269 0)
(1.14275 0.00123915 0)
(1.11971 -0.0224245 0)
(0.819309 -0.134305 0)
(1.23366 2.08539e-08 0)
(1.18457 3.55393e-06 0)
(1.17133 -2.39204e-05 0)
(1.16513 7.89277e-05 0)
(1.16056 -0.000196318 0)
(1.15584 0.000405294 0)
(1.15055 -0.000700957 0)
(1.14219 0.000872428 0)
(1.11439 -0.0261397 0)
(0.8004 -0.13314 0)
(1.23366 2.31841e-08 0)
(1.18457 3.48683e-06 0)
(1.17133 -2.35044e-05 0)
(1.16513 7.64568e-05 0)
(1.16057 -0.000184876 0)
(1.15579 0.00035995 0)
(1.15075 -0.000555233 0)
(1.14174 0.000595688 0)
(1.10806 -0.0297457 0)
(0.781521 -0.131323 0)
(1.23366 2.47739e-08 0)
(1.18457 3.38644e-06 0)
(1.17133 -2.28275e-05 0)
(1.16513 7.32526e-05 0)
(1.16059 -0.000172106 0)
(1.15574 0.00031487 0)
(1.15093 -0.000424704 0)
(1.14137 0.000400766 0)
(1.10072 -0.0331045 0)
(0.762476 -0.12919 0)
(1.23366 2.552e-08 0)
(1.18457 3.25105e-06 0)
(1.17133 -2.18976e-05 0)
(1.16513 6.93829e-05 0)
(1.1606 -0.000158582 0)
(1.1557 0.00027205 0)
(1.15109 -0.000309474 0)
(1.14107 0.000247494 0)
(1.09245 -0.0360454 0)
(0.743048 -0.126502 0)
(1.23366 2.54642e-08 0)
(1.18457 3.08071e-06 0)
(1.17133 -2.07165e-05 0)
(1.16512 6.49189e-05 0)
(1.16061 -0.000144778 0)
(1.15566 0.000233155 0)
(1.15123 -0.000212431 0)
(1.14081 0.000152393 0)
(1.08335 -0.038331 0)
(0.722905 -0.123302 0)
(1.23366 2.46426e-08 0)
(1.18457 2.87575e-06 0)
(1.17133 -1.92953e-05 0)
(1.16512 5.98957e-05 0)
(1.16062 -0.000130896 0)
(1.15562 0.000199246 0)
(1.15135 -0.000137695 0)
(1.14063 9.66297e-05 0)
(1.07363 -0.0396754 0)
(0.701671 -0.119017 0)
(1.23366 2.31401e-08 0)
(1.18457 2.63608e-06 0)
(1.17133 -1.76305e-05 0)
(1.16512 5.43075e-05 0)
(1.16063 -0.000117118 0)
(1.15558 0.000171479 0)
(1.15143 -8.83927e-05 0)
(1.14054 7.44725e-05 0)
(1.06359 -0.0399445 0)
(0.678718 -0.113942 0)
(1.23366 2.10339e-08 0)
(1.18457 2.36409e-06 0)
(1.17134 -1.57612e-05 0)
(1.16512 4.82326e-05 0)
(1.16064 -0.000102679 0)
(1.15557 0.000144268 0)
(1.15148 -5.74004e-05 0)
(1.14055 0.000109122 0)
(1.05352 -0.0390841 0)
(0.653655 -0.106923 0)
(1.23366 1.8445e-08 0)
(1.18457 2.06105e-06 0)
(1.17134 -1.36699e-05 0)
(1.16512 4.15349e-05 0)
(1.16065 -8.77886e-05 0)
(1.15556 0.000118542 0)
(1.15147 -1.44303e-05 0)
(1.14079 0.000108769 0)
(1.04376 -0.0371661 0)
(0.625386 -0.0989549 0)
(1.23366 1.54656e-08 0)
(1.18457 1.73137e-06 0)
(1.17134 -1.14327e-05 0)
(1.16512 3.45468e-05 0)
(1.16064 -7.22715e-05 0)
(1.15557 9.15274e-05 0)
(1.15138 1.51255e-05 0)
(1.14157 0.000103252 0)
(1.03473 -0.0337769 0)
(0.593896 -0.0878229 0)
(1.23366 1.22244e-08 0)
(1.18457 1.37722e-06 0)
(1.17134 -9.04313e-06 0)
(1.16512 2.71068e-05 0)
(1.16064 -5.57287e-05 0)
(1.15561 6.85566e-05 0)
(1.15115 3.53798e-05 0)
(1.14283 2.62863e-05 0)
(1.02665 -0.0291036 0)
(0.558245 -0.075696 0)
(1.23366 8.81677e-09 0)
(1.18457 1.00251e-06 0)
(1.17134 -6.54796e-06 0)
(1.16512 1.9536e-05 0)
(1.16063 -4.01693e-05 0)
(1.15567 4.97063e-05 0)
(1.15084 1.40973e-05 0)
(1.14413 0.000146453 0)
(1.02003 -0.0224991 0)
(0.521036 -0.058078 0)
(1.23366 5.26268e-09 0)
(1.18457 6.12273e-07 0)
(1.17134 -3.97764e-06 0)
(1.16512 1.18603e-05 0)
(1.16063 -2.46861e-05 0)
(1.15572 3.27721e-05 0)
(1.15058 3.25272e-05 0)
(1.14503 2.02938e-05 0)
(1.01266 -0.0153098 0)
(0.484014 -0.0388983 0)
(1.23366 1.37573e-09 0)
(1.18457 2.17588e-07 0)
(1.17134 -1.38107e-06 0)
(1.16512 4.09454e-06 0)
(1.16062 -8.48464e-06 0)
(1.15574 1.12886e-05 0)
(1.15046 8.62557e-06 0)
(1.14536 7.65214e-05 0)
(1.00647 -0.00543199 0)
(0.457364 -0.0141559 0)
(0.793289 -0.179051 0)
(0.806026 -0.18223 0)
(0.814303 -0.188446 0)
(0.825671 -0.195018 0)
(0.838523 -0.201916 0)
(0.85415 -0.208595 0)
(0.873396 -0.214772 0)
(0.897731 -0.220579 0)
(0.928029 -0.223362 0)
(0.965326 -0.223433 0)
(0.784274 -0.182507 0)
(0.797015 -0.185573 0)
(0.804983 -0.191466 0)
(0.816432 -0.197983 0)
(0.829279 -0.205324 0)
(0.845689 -0.212504 0)
(0.865726 -0.219741 0)
(0.891561 -0.226209 0)
(0.923482 -0.229169 0)
(0.963589 -0.228776 0)
(0.776942 -0.185454 0)
(0.789377 -0.18872 0)
(0.796829 -0.194905 0)
(0.808422 -0.201839 0)
(0.8212 -0.209743 0)
(0.83789 -0.217145 0)
(0.858092 -0.224918 0)
(0.884798 -0.231658 0)
(0.918333 -0.235121 0)
(0.961161 -0.234464 0)
(0.768604 -0.186453 0)
(0.781031 -0.190366 0)
(0.787897 -0.197151 0)
(0.799632 -0.204363 0)
(0.812349 -0.212946 0)
(0.829661 -0.221207 0)
(0.850673 -0.230301 0)
(0.878962 -0.23794 0)
(0.914408 -0.241836 0)
(0.95969 -0.240695 0)
(0.759893 -0.186957 0)
(0.771986 -0.19164 0)
(0.778279 -0.19919 0)
(0.790326 -0.207028 0)
(0.803129 -0.216563 0)
(0.82106 -0.225424 0)
(0.842547 -0.235327 0)
(0.872023 -0.243529 0)
(0.909499 -0.247882 0)
(0.957754 -0.246459 0)
(0.750634 -0.186222 0)
(0.762265 -0.19221 0)
(0.767905 -0.200855 0)
(0.780118 -0.209484 0)
(0.792947 -0.220036 0)
(0.811781 -0.229649 0)
(0.83428 -0.240742 0)
(0.865575 -0.249947 0)
(0.905348 -0.254802 0)
(0.95677 -0.252929 0)
(0.740901 -0.184441 0)
(0.751919 -0.191938 0)
(0.756769 -0.201907 0)
(0.768991 -0.211792 0)
(0.781846 -0.223707 0)
(0.801624 -0.234063 0)
(0.825024 -0.246084 0)
(0.857923 -0.256039 0)
(0.900365 -0.261684 0)
(0.955814 -0.259674 0)
(0.730454 -0.181116 0)
(0.7407 -0.190412 0)
(0.744671 -0.202058 0)
(0.756834 -0.213542 0)
(0.769608 -0.227085 0)
(0.790361 -0.238499 0)
(0.814956 -0.251772 0)
(0.849923 -0.262823 0)
(0.895135 -0.269312 0)
(0.954773 -0.267017 0)
(0.718554 -0.17669 0)
(0.72817 -0.187786 0)
(0.731377 -0.201429 0)
(0.743667 -0.214846 0)
(0.756355 -0.230322 0)
(0.778006 -0.243063 0)
(0.803765 -0.257641 0)
(0.84068 -0.269709 0)
(0.889194 -0.277599 0)
(0.954103 -0.275243 0)
(0.704351 -0.171226 0)
(0.713802 -0.183972 0)
(0.716498 -0.199758 0)
(0.729226 -0.215288 0)
(0.741832 -0.232971 0)
(0.764378 -0.247518 0)
(0.791414 -0.263795 0)
(0.83049 -0.277303 0)
(0.882211 -0.286681 0)
(0.95286 -0.284112 0)
(0.686776 -0.165773 0)
(0.696844 -0.179979 0)
(0.699521 -0.197989 0)
(0.713294 -0.215616 0)
(0.726027 -0.23558 0)
(0.749524 -0.252126 0)
(0.777795 -0.270257 0)
(0.818853 -0.285299 0)
(0.874311 -0.296763 0)
(0.951607 -0.293906 0)
(0.66559 -0.160115 0)
(0.677126 -0.175603 0)
(0.68015 -0.195824 0)
(0.695536 -0.215408 0)
(0.70869 -0.237686 0)
(0.733327 -0.256539 0)
(0.762902 -0.276854 0)
(0.80587 -0.293884 0)
(0.864994 -0.307679 0)
(0.949808 -0.304597 0)
(0.640376 -0.155614 0)
(0.654344 -0.172255 0)
(0.658155 -0.194745 0)
(0.675829 -0.216082 0)
(0.689961 -0.240471 0)
(0.715952 -0.261429 0)
(0.746864 -0.283797 0)
(0.791514 -0.302954 0)
(0.854343 -0.319588 0)
(0.947366 -0.31645 0)
(0.611158 -0.15094 0)
(0.628541 -0.168538 0)
(0.633417 -0.193231 0)
(0.653758 -0.216106 0)
(0.669353 -0.242509 0)
(0.696798 -0.265816 0)
(0.729137 -0.290449 0)
(0.775148 -0.312031 0)
(0.841307 -0.331988 0)
(0.942932 -0.329362 0)
(0.577232 -0.148341 0)
(0.599168 -0.167203 0)
(0.605819 -0.194662 0)
(0.629215 -0.219085 0)
(0.647053 -0.246891 0)
(0.675869 -0.271535 0)
(0.709438 -0.297411 0)
(0.756063 -0.320898 0)
(0.824636 -0.344279 0)
(0.934406 -0.342856 0)
(0.538063 -0.14454 0)
(0.56542 -0.163818 0)
(0.574072 -0.192931 0)
(0.599948 -0.218432 0)
(0.620443 -0.247672 0)
(0.650709 -0.274316 0)
(0.685974 -0.301755 0)
(0.733306 -0.327491 0)
(0.804035 -0.355467 0)
(0.920566 -0.356635 0)
(0.492308 -0.14532 0)
(0.525703 -0.165262 0)
(0.536896 -0.195804 0)
(0.565273 -0.221619 0)
(0.59066 -0.250872 0)
(0.624072 -0.278433 0)
(0.662426 -0.306989 0)
(0.711032 -0.335075 0)
(0.782668 -0.366756 0)
(0.900861 -0.37228 0)
(0.44063 -0.137572 0)
(0.481965 -0.152038 0)
(0.499674 -0.185581 0)
(0.532809 -0.219112 0)
(0.564691 -0.254936 0)
(0.602998 -0.287058 0)
(0.646331 -0.318063 0)
(0.698713 -0.348383 0)
(0.770465 -0.382575 0)
(0.892339 -0.39648 0)
(0.388952 -0.14487 0)
(0.442737 -0.166281 0)
(0.472104 -0.208566 0)
(0.514264 -0.244628 0)
(0.553316 -0.278825 0)
(0.593879 -0.308309 0)
(0.636846 -0.336064 0)
(0.687453 -0.364027 0)
(0.755664 -0.398028 0)
(0.873005 -0.422908 0)
(0.36139 -0.117958 0)
(0.431841 -0.152483 0)
(0.473095 -0.205859 0)
(0.518624 -0.245913 0)
(0.55901 -0.280283 0)
(0.598516 -0.309333 0)
(0.63968 -0.336312 0)
(0.688411 -0.363003 0)
(0.753186 -0.396179 0)
(0.870361 -0.425404 0)
(1.05662 -0.200778 0)
(1.18059 -0.136876 0)
(1.29652 -0.0343524 0)
(1.39808 0.103293 0)
(1.33578 0.205132 0)
(1.23366 0.181806 0)
(1.12076 0.118721 0)
(1.09408 0.0672435 0)
(1.08173 0.0516822 0)
(1.07365 0.0372802 0)
(1.06346 -0.202726 0)
(1.19412 -0.13276 0)
(1.31327 -0.0244699 0)
(1.41446 0.120256 0)
(1.33654 0.216629 0)
(1.22759 0.180262 0)
(1.11417 0.114933 0)
(1.09059 0.0671371 0)
(1.07985 0.0508734 0)
(1.07283 0.0365392 0)
(1.06995 -0.205189 0)
(1.20746 -0.128555 0)
(1.33283 -0.0125454 0)
(1.42672 0.138072 0)
(1.34071 0.228864 0)
(1.21941 0.177222 0)
(1.10686 0.111162 0)
(1.08638 0.0671277 0)
(1.07771 0.0502511 0)
(1.07185 0.0358349 0)
(1.0762 -0.207758 0)
(1.22135 -0.123066 0)
(1.35382 0.00145978 0)
(1.43037 0.157869 0)
(1.35503 0.240531 0)
(1.20998 0.172475 0)
(1.09979 0.107148 0)
(1.08206 0.0665608 0)
(1.07593 0.0494666 0)
(1.07103 0.0351753 0)
(1.08224 -0.209715 0)
(1.23465 -0.118264 0)
(1.37586 0.019281 0)
(1.42941 0.173174 0)
(1.37303 0.248753 0)
(1.19917 0.168133 0)
(1.093 0.103763 0)
(1.07798 0.0661252 0)
(1.07421 0.0485598 0)
(1.07024 0.0344379 0)
(1.08867 -0.212635 0)
(1.24994 -0.111741 0)
(1.39536 0.0381291 0)
(1.43793 0.190502 0)
(1.38604 0.256327 0)
(1.18475 0.163649 0)
(1.0862 0.101516 0)
(1.07424 0.0656478 0)
(1.0726 0.0474871 0)
(1.06951 0.0335968 0)
(1.09584 -0.215207 0)
(1.26478 -0.106644 0)
(1.41558 0.059405 0)
(1.45597 0.211159 0)
(1.39373 0.258346 0)
(1.16794 0.159225 0)
(1.08005 0.100176 0)
(1.07077 0.0653197 0)
(1.07085 0.0463793 0)
(1.0687 0.0326241 0)
(1.104 -0.218076 0)
(1.28177 -0.0987544 0)
(1.43522 0.0790612 0)
(1.4724 0.230658 0)
(1.39558 0.26097 0)
(1.15344 0.154315 0)
(1.07551 0.0985402 0)
(1.06756 0.0648465 0)
(1.06904 0.0453857 0)
(1.06794 0.0315488 0)
(1.11349 -0.220272 0)
(1.29779 -0.0916927 0)
(1.4586 0.10127 0)