/*--------------------------------*- C++ -*----------------------------------*\
  =========                 |
  \\      /  F ield         | OpenFOAM: The Open Source CFD Toolbox
   \\    /   O peration     | Website:  https://openfoam.org
    \\  /    A nd           | Version:  7
     \\/     M anipulation  |
\*---------------------------------------------------------------------------*/
FoamFile
{
    version     2.0;
    format      ascii;
    class       volVectorField;
    location    "0.9";
    object      U;
}
// * * * * * * * * * * * * * * * * * * * * * * * * * * * * * * * * * * * * * //

dimensions      [0 1 -1 0 0 0 0];

internalField   nonuniform List<vector> 
325
(
(2.45306 0.371809 0)
(2.23339 0.188441 0)
(1.97421 0.0424519 0)
(1.79366 -0.00493203 0)
(1.77304 0.00940057 0)
(1.86013 -0.0337986 0)
(1.93678 0.0638993 0)
(2.40595 0.345308 0)
(2.24376 0.168836 0)
(1.99853 0.0429844 0)
(1.80383 0.0082384 0)
(1.77518 0.00897649 0)
(1.86511 -0.0461904 0)
(1.93387 0.0465838 0)
(2.29022 0.313096 0)
(2.24761 0.150944 0)
(2.01737 0.039136 0)
(1.81095 0.0186112 0)
(1.78419 0.0218153 0)
(1.86433 -0.0368402 0)
(1.91848 0.0363698 0)
(2.07475 0.251417 0)
(2.1949 0.13897 0)
(1.9904 0.0485076 0)
(1.78911 0.0257319 0)
(1.77693 0.0250246 0)
(1.82685 -0.0328696 0)
(1.85853 0.0314891 0)
(1.71659 0.185825 0)
(1.99468 0.0985577 0)
(1.85078 0.0427845 0)
(1.70855 0.0290374 0)
(1.72412 0.0105625 0)
(1.72004 -0.0404843 0)
(1.72072 0.0188365 0)
(1.21266 0.117845 0)
(1.60162 0.113053 0)
(1.57847 0.0719531 0)
(1.54669 0.0321045 0)
(1.59078 0.00973915 0)
(1.53685 -0.0234965 0)
(1.51043 0.0165897 0)
(0.649704 0.0581371 0)
(1.08688 0.0506618 0)
(1.21275 0.0426889 0)
(2.39672 -0.262914 0)
(2.52879 -0.0020084 0)
(2.60753 0.154105 0)
(2.46459 0.379175 0)
(2.30775 0.574167 0)
(2.22546 0.560651 0)
(2.00864 0.276056 0)
(2.42549 -0.223528 0)
(2.54367 0.0359307 0)
(2.61848 0.199719 0)
(2.49153 0.412404 0)
(2.32665 0.548693 0)
(2.2068 0.464645 0)
(2.02078 0.264956 0)
(2.45467 -0.181177 0)
(2.55488 0.0789351 0)
(2.63327 0.252752 0)
(2.50077 0.4284 0)
(2.3469 0.473268 0)
(2.17774 0.378982 0)
(2.0295 0.263617 0)
(2.48424 -0.136819 0)
(2.55711 0.116711 0)
(2.6431 0.302846 0)
(2.51315 0.445119 0)
(2.34374 0.371976 0)
(2.14996 0.320124 0)
(2.02782 0.262747 0)
(2.51282 -0.0896522 0)
(2.55943 0.173559 0)
(2.62799 0.332763 0)
(2.53274 0.431195 0)
(2.32336 0.271814 0)
(2.11563 0.277391 0)
(2.02083 0.26234 0)
(2.53719 -0.038163 0)
(2.55425 0.205258 0)
(2.60751 0.361502 0)
(2.54084 0.377293 0)
(2.31346 0.193917 0)
(2.10957 0.250397 0)
(2.01387 0.261901 0)
(2.55804 0.0242744 0)
(2.55948 0.255263 0)
(2.56843 0.349335 0)
(2.5202 0.314993 0)
(2.31094 0.144989 0)
(2.11314 0.225568 0)
(2.00693 0.262093 0)
(2.5672 0.0719933 0)
(2.55724 0.285307 0)
(2.52133 0.349788 0)
(2.4666 0.250806 0)
(2.29953 0.106226 0)
(2.11814 0.20836 0)
(2.00504 0.262113 0)
(2.58167 0.1495 0)
(2.54392 0.314694 0)
(2.48395 0.330677 0)
(2.39512 0.18725 0)
(2.27356 0.0752643 0)
(2.13864 0.185586 0)
(2.00894 0.262192 0)
(2.5842 0.198644 0)
(2.51538 0.339976 0)
(2.45359 0.292917 0)
(2.33444 0.132375 0)
(2.23499 0.0637082 0)
(2.15201 0.164282 0)
(2.01748 0.260137 0)
(2.58911 0.268017 0)
(2.47484 0.35137 0)
(2.37792 0.243408 0)
(2.25537 0.0941185 0)
(2.19132 0.0496096 0)
(2.15542 0.137556 0)
(2.02473 0.255075 0)
(2.57729 0.319075 0)
(2.43864 0.365946 0)
(2.29678 0.189502 0)
(2.16688 0.0657254 0)
(2.14083 0.0365171 0)
(2.14805 0.106716 0)
(2.03036 0.246 0)
(2.52303 0.355151 0)
(2.43289 0.354566 0)
(2.21458 0.137847 0)
(2.0803 0.0453522 0)
(2.08663 0.027931 0)
(2.13012 0.076246 0)
(2.03433 0.233364 0)
(2.46848 0.373415 0)
(2.39233 0.358034 0)
(2.13717 0.101328 0)
(2.00284 0.0253006 0)
(2.03129 0.0255969 0)
(2.10184 0.049887 0)
(2.03529 0.21802 0)
(2.43667 0.392529 0)
(2.35116 0.335535 0)
(2.07576 0.0771966 0)
(1.93715 0.0174446 0)
(1.97641 0.0213672 0)
(2.06384 0.0271842 0)
(2.03171 0.199186 0)
(2.44374 0.389585 0)
(2.32789 0.306173 0)
(2.03846 0.0567717 0)
(1.89049 0.00624374 0)
(1.92465 0.0240072 0)
(2.01823 0.00899598 0)
(2.02062 0.178606 0)
(2.45573 0.403195 0)
(2.29054 0.28241 0)
(2.00252 0.0509582 0)
(1.85354 0.00278903 0)
(1.87746 0.0209107 0)
(1.9706 -0.00484648 0)
(2.00228 0.155051 0)
(2.46574 0.408798 0)
(2.26309 0.25895 0)
(1.97343 0.0430419 0)
(1.82392 -0.00292284 0)
(1.83515 0.0255365 0)
(1.92692 -0.015172 0)
(1.98002 0.12821 0)
(2.47402 0.400915 0)
(2.23912 0.234977 0)
(1.95747 0.0399291 0)
(1.80356 -0.00597097 0)
(1.80091 0.0231508 0)
(1.89119 -0.023232 0)
(1.9588 0.104605 0)
(2.46754 0.393687 0)
(2.22008 0.21261 0)
(1.95769 0.0385084 0)
(1.79385 -0.00955606 0)
(1.77938 0.0222317 0)
(1.86768 -0.0241027 0)
(1.94429 0.0812563 0)
(1.65908 -0.070782 0)
(1.6242 -0.0111646 0)
(1.80595 0.0105834 0)
(1.98133 0.0192759 0)
(2.09709 0.0232176 0)
(2.19336 0.0232481 0)
(2.31925 0.0298736 0)
(1.67675 -0.0726279 0)
(1.5926 -0.0286116 0)
(1.78596 0.0277292 0)
(1.9652 0.0593008 0)
(2.09656 0.0714315 0)
(2.19223 0.0740183 0)
(2.32744 0.0693624 0)
(1.7675 -0.148915 0)
(1.54079 -0.0530944 0)
(1.7501 0.0397146 0)
(1.92813 0.0906169 0)
(2.06428 0.108456 0)
(2.16544 0.114877 0)
(2.31404 0.11035 0)
(1.82628 -0.235727 0)
(1.46965 -0.0490159 0)
(1.71151 0.0714895 0)
(1.89951 0.129984 0)
(2.05191 0.156278 0)
(2.16861 0.164071 0)
(2.32601 0.160544 0)
(1.92843 -0.310653 0)
(1.42931 -0.0751728 0)
(1.67378 0.0772679 0)
(1.86851 0.160091 0)
(2.02595 0.189897 0)
(2.14808 0.202511 0)
(2.31258 0.201591 0)
(1.99595 -0.411841 0)
(1.43629 -0.082796 0)
(1.65755 0.0990208 0)
(1.84723 0.189447 0)
(2.00461 0.223125 0)
(2.13722 0.244941 0)
(2.3135 0.247467 0)
(2.00506 -0.504707 0)
(1.48903 -0.0893236 0)
(1.66889 0.102931 0)
(1.83661 0.215205 0)
(1.9888 0.256406 0)
(2.12676 0.286002 0)
(2.31205 0.294075 0)
(1.97437 -0.529468 0)
(1.59033 -0.111815 0)
(1.70731 0.122142 0)
(1.83164 0.25019 0)
(1.97596 0.293365 0)
(2.11589 0.327719 0)
(2.29941 0.331995 0)
(1.95083 -0.541048 0)
(1.75371 -0.163907 0)
(1.73155 0.135921 0)
(1.82739 0.284982 0)
(1.96642 0.322144 0)
(2.10887 0.364743 0)
(2.29722 0.373707 0)
(1.95345 -0.546597 0)
(1.89361 -0.248814 0)
(1.75606 0.149781 0)
(1.83794 0.323421 0)
(1.97602 0.364597 0)
(2.11761 0.416578 0)
(2.2956 0.416347 0)
(1.96752 -0.566669 0)
(1.98015 -0.337775 0)
(1.81129 0.12408 0)
(1.87167 0.356511 0)
(1.9867 0.409141 0)
(2.11518 0.466154 0)
(2.28151 0.451527 0)
(1.97807 -0.561045 0)
(2.05552 -0.418041 0)
(1.89911 0.0711702 0)
(1.89583 0.382408 0)
(1.9955 0.45915 0)
(2.10941 0.52087 0)
(2.2681 0.489981 0)
(1.99587 -0.53947 0)
(2.1197 -0.444035 0)
(2.0042 -0.0165613 0)
(1.94807 0.376349 0)
(2.01213 0.504846 0)
(2.09915 0.558088 0)
(2.24449 0.509297 0)
(2.02975 -0.507297 0)
(2.17778 -0.419548 0)
(2.10384 -0.0856339 0)
(2.02389 0.355975 0)
(2.0366 0.557637 0)
(2.09703 0.60659 0)
(2.22299 0.530998 0)
(2.07088 -0.471759 0)
(2.23543 -0.359308 0)
(2.22817 -0.125085 0)
(2.10127 0.313769 0)
(2.06663 0.585874 0)
(2.09799 0.634901 0)
(2.21589 0.54385 0)
(2.12159 -0.440122 0)
(2.27319 -0.288672 0)
(2.33578 -0.12669 0)
(2.17348 0.265913 0)
(2.095 0.587954 0)
(2.11897 0.670476 0)
(2.19246 0.5406 0)
(2.18094 -0.435967 0)
(2.34438 -0.229998 0)
(2.45397 -0.0891432 0)
(2.22752 0.247451 0)
(2.14662 0.561316 0)
(2.1343 0.70773 0)
(2.15312 0.512232 0)
(2.24584 -0.412672 0)
(2.39375 -0.180398 0)
(2.50832 -0.0541313 0)
(2.27683 0.244138 0)
(2.19229 0.549394 0)
(2.1481 0.728367 0)
(2.10683 0.4605 0)
(2.2975 -0.378198 0)
(2.44887 -0.125662 0)
(2.55764 0.0198728 0)
(2.34365 0.281314 0)
(2.22861 0.559934 0)
(2.20811 0.729418 0)
(2.04848 0.38466 0)
(2.35109 -0.319768 0)
(2.50364 -0.0479559 0)
(2.57954 0.0802026 0)
(2.40968 0.318523 0)
(2.26447 0.582898 0)
(2.22095 0.681871 0)
(2.00969 0.302647 0)
)
;

boundaryField
{
    inlet
    {
        type            fixedValue;
        value           nonuniform 0();
    }
    outlet
    {
        type            inletOutlet;
        inletValue      uniform (3 0 0);
        value           nonuniform List<vector> 
46
(
(1.93678 0.0638993 0)
(1.93387 0.0465838 0)
(1.91848 0.0363698 0)
(1.85853 0.0314891 0)
(1.72072 0.0188365 0)
(1.51043 0.0165897 0)
(2.00864 0.276056 0)
(2.02078 0.264956 0)
(2.0295 0.263617 0)
(2.02782 0.262747 0)
(2.02083 0.26234 0)
(2.01387 0.261901 0)
(2.00693 0.262093 0)
(2.00504 0.262113 0)
(2.00894 0.262192 0)
(2.01748 0.260137 0)
(2.02473 0.255075 0)
(2.03036 0.246 0)
(2.03433 0.233364 0)
(2.03529 0.21802 0)
(2.03171 0.199186 0)
(2.02062 0.178606 0)
(2.00228 0.155051 0)
(1.98002 0.12821 0)
(1.9588 0.104605 0)
(1.94429 0.0812563 0)
(2.31925 0.0298736 0)
(2.32744 0.0693624 0)
(2.31404 0.11035 0)
(2.32601 0.160544 0)
(2.31258 0.201591 0)
(2.3135 0.247467 0)
(2.31205 0.294075 0)
(2.29941 0.331995 0)
(2.29722 0.373707 0)
(2.2956 0.416347 0)
(2.28151 0.451527 0)
(2.2681 0.489981 0)
(2.24449 0.509297 0)
(2.22299 0.530998 0)
(2.21589 0.54385 0)
(2.19246 0.5406 0)
(2.15312 0.512232 0)
(2.10683 0.4605 0)
(2.04848 0.38466 0)
(2.00969 0.302647 0)
)
;
    }
    triangle
    {
        type            slip;
    }
    top
    {
        type            symmetryPlane;
    }
    bottom
    {
        type            symmetryPlane;
    }
    defaultFaces
    {
        type            empty;
    }
    procBoundary3to2
    {
        type            processor;
        value           nonuniform List<vector> 
47
(
(2.43371 0.334901 0)
(2.22259 0.295048 0)
(1.85764 0.26543 0)
(1.39964 0.165348 0)
(0.905704 0.0982103 0)
(0.446105 0.0174608 0)
(0.0492187 -0.0240397 0)
(2.24459 -0.448306 0)
(2.28671 -0.414515 0)
(2.3154 -0.397763 0)
(2.34863 -0.368615 0)
(2.37285 -0.347325 0)
(2.40291 -0.312883 0)
(2.42475 -0.285234 0)
(2.45441 -0.233668 0)
(2.47011 -0.199601 0)
(2.49369 -0.129005 0)
(2.49899 -0.0769841 0)
(2.51399 0.0203158 0)
(2.51591 0.0608627 0)
(2.5373 0.160304 0)
(2.53666 0.213825 0)
(2.51946 0.284795 0)
(2.50786 0.313025 0)
(2.50853 0.352322 0)
(2.52944 0.350105 0)
(2.52217 0.344529 0)
(2.97318 -0.0433598 0)
(2.94747 -0.104967 0)
(2.93861 -0.191647 0)
(2.87662 -0.292004 0)
(2.79129 -0.393049 0)
(2.67742 -0.486881 0)
(2.55476 -0.565133 0)
(2.44082 -0.603969 0)
(2.31468 -0.58034 0)
(2.17618 -0.584511 0)
(2.06242 -0.597953 0)
(1.99756 -0.607874 0)
(1.96492 -0.605791 0)
(1.96468 -0.58171 0)
(1.97436 -0.571907 0)
(2.00612 -0.592071 0)
(2.04137 -0.60388 0)
(2.08019 -0.588072 0)
(2.1365 -0.549857 0)
(2.19232 -0.499033 0)
)
;
    }
    procBoundary3to7
    {
        type            processor;
        value           nonuniform List<vector> 8((1.31052 0.0353591 0) (1.38337 0.0129887 0) (1.3154 -0.0282182 0) (1.28215 0.00809812 0) (0.170084 0.0245431 0) (0.595351 0.056063 0) (1.31052 0.0353591 0) (0.848374 0.0495868 0));
    }
}


// ************************************************************************* //
