/*--------------------------------*- C++ -*----------------------------------*\
  =========                 |
  \\      /  F ield         | OpenFOAM: The Open Source CFD Toolbox
   \\    /   O peration     | Website:  https://openfoam.org
    \\  /    A nd           | Version:  7
     \\/     M anipulation  |
\*---------------------------------------------------------------------------*/
FoamFile
{
    version     2.0;
    format      ascii;
    class       volVectorField;
    location    "0.2";
    object      U;
}
// * * * * * * * * * * * * * * * * * * * * * * * * * * * * * * * * * * * * * //

dimensions      [0 1 -1 0 0 0 0];

internalField   nonuniform List<vector> 
3225
(
(1.11322 9.0039e-16 0)
(1.11278 -8.36114e-16 0)
(1.11234 1.73313e-15 0)
(1.1119 -9.25366e-16 0)
(1.11145 3.75108e-16 0)
(1.11099 1.07584e-15 0)
(1.11054 1.75283e-15 0)
(1.11008 -1.30826e-15 0)
(1.10961 3.24428e-15 0)
(1.10914 -3.49604e-15 0)
(1.10867 2.14829e-15 0)
(1.10819 -2.07246e-15 0)
(1.10771 -1.03114e-15 0)
(1.10722 4.72123e-15 0)
(1.10673 -5.32186e-15 0)
(1.10624 3.99127e-15 0)
(1.10574 -3.57536e-15 0)
(1.10523 5.74345e-16 0)
(1.10472 7.42452e-16 0)
(1.1042 -2.37571e-15 0)
(1.10369 -1.33532e-16 0)
(1.10316 -2.09539e-15 0)
(1.10263 5.4005e-15 0)
(1.10207 -2.84476e-15 0)
(1.10148 -4.83052e-15 0)
(1.10087 4.83056e-15 0)
(1.10035 3.61166e-15 0)
(1.11322 1.04464e-15 0)
(1.11278 -6.31007e-16 0)
(1.11234 1.59815e-15 0)
(1.10472 -1.82764e-15 0)
(1.1042 2.66624e-15 0)
(1.10369 -6.37032e-16 0)
(1.10316 -6.06261e-16 0)
(1.10263 7.40944e-15 0)
(1.10207 -6.6975e-15 0)
(1.10148 5.70815e-15 0)
(1.10087 1.70166e-15 0)
(1.10035 -8.75685e-15 0)
(1.11322 -5.29518e-15 0)
(1.11278 1.46643e-15 0)
(1.11234 1.71427e-15 0)
(1.1119 -2.22997e-15 0)
(1.11145 -8.22799e-16 0)
(1.11099 6.29953e-16 0)
(1.11054 -4.75227e-15 0)
(1.11008 3.94525e-15 0)
(1.10961 -5.26441e-15 0)
(1.10914 3.5044e-15 0)
(1.10867 -1.94725e-15 0)
(1.10819 6.10658e-15 0)
(1.10771 -7.38723e-16 0)
(1.10722 -5.70249e-15 0)
(1.10673 4.46989e-15 0)
(1.10624 -4.06766e-15 0)
(1.10574 2.13375e-15 0)
(1.10523 -2.09585e-15 0)
(1.10472 -2.23143e-15 0)
(1.1042 3.49342e-15 0)
(1.10369 1.08268e-15 0)
(1.10316 -4.12322e-15 0)
(1.10263 1.14889e-14 0)
(1.10207 -9.89714e-15 0)
(1.10148 6.36823e-15 0)
(1.10087 1.6188e-15 0)
(1.10035 -1.16365e-14 0)
(1.11322 -5.38115e-15 0)
(1.11278 1.69249e-15 0)
(1.11234 1.96785e-15 0)
(1.1119 -2.50824e-15 0)
(1.11145 -1.11798e-15 0)
(1.11099 -1.08668e-16 0)
(1.11054 -5.25947e-15 0)
(1.11008 3.57095e-15 0)
(1.10961 -5.69636e-15 0)
(1.10914 4.38849e-15 0)
(1.10867 -1.54926e-15 0)
(1.10819 6.22288e-15 0)
(1.10771 -2.35884e-15 0)
(1.10722 -5.01573e-15 0)
(1.10673 5.07808e-15 0)
(1.10624 -3.81505e-15 0)
(1.10574 3.22036e-15 0)
(1.10523 -3.18576e-15 0)
(1.10472 -2.69612e-15 0)
(1.1042 3.40174e-15 0)
(1.10369 2.26709e-15 0)
(1.10316 -7.61457e-15 0)
(1.10263 1.42908e-14 0)
(1.10207 -1.2595e-14 0)
(1.10148 7.76818e-15 0)
(1.10087 3.34584e-15 0)
(1.10035 -1.54283e-14 0)
(1.11322 -4.27454e-15 0)
(1.11278 1.81026e-15 0)
(1.11234 9.23412e-16 0)
(1.1119 -2.58877e-15 0)
(1.11145 -1.15363e-15 0)
(1.11099 -3.82626e-16 0)
(1.11054 -4.95439e-15 0)
(1.11008 3.50393e-15 0)
(1.10961 -4.88749e-15 0)
(1.10914 5.63126e-15 0)
(1.10867 -2.99356e-15 0)
(1.10819 6.32855e-15 0)
(1.10771 -3.9257e-15 0)
(1.10722 -4.37055e-15 0)
(1.10673 5.87241e-15 0)
(1.10624 -4.54331e-15 0)
(1.10574 3.09862e-15 0)
(1.10523 -4.04246e-15 0)
(1.10472 -3.11339e-15 0)
(1.1042 3.37848e-15 0)
(1.10369 3.76288e-15 0)
(1.10316 -9.50447e-15 0)
(1.10263 1.60925e-14 0)
(1.10207 -1.35934e-14 0)
(1.10148 8.93448e-15 0)
(1.10087 4.93984e-15 0)
(1.10035 -1.65004e-14 0)
(1.11322 -3.36708e-15 0)
(1.11278 1.74438e-15 0)
(1.11234 8.32928e-16 0)
(1.1119 -2.61917e-15 0)
(1.11145 9.12329e-17 0)
(1.11099 6.70787e-16 0)
(1.11054 -4.60947e-15 0)
(1.11008 3.92467e-15 0)
(1.10961 -5.182e-15 0)
(1.10914 5.81611e-15 0)
(1.10867 -4.15251e-15 0)
(1.10819 6.20467e-15 0)
(1.10771 -4.75211e-15 0)
(1.10722 -3.51879e-15 0)
(1.10673 5.32345e-15 0)
(1.10624 -5.31429e-15 0)
(1.10574 1.47151e-15 0)
(1.10523 -4.44549e-15 0)
(1.10472 -2.71418e-15 0)
(1.1042 3.24202e-15 0)
(1.10369 4.04355e-15 0)
(1.10316 -1.07294e-14 0)
(1.10263 1.57996e-14 0)
(1.10207 -1.33014e-14 0)
(1.10148 9.45866e-15 0)
(1.10087 5.04554e-15 0)
(1.10035 -1.56276e-14 0)
(1.11322 -2.66827e-15 0)
(1.11278 1.90908e-15 0)
(1.11234 1.40415e-15 0)
(1.1119 -2.03572e-15 0)
(1.11145 5.30341e-16 0)
(1.11099 9.58841e-16 0)
(1.11054 -4.90678e-15 0)
(1.11008 3.95189e-15 0)
(1.10961 -5.63604e-15 0)
(1.10914 5.83835e-15 0)
(1.10867 -4.64124e-15 0)
(1.10819 6.46601e-15 0)
(1.10771 -4.82071e-15 0)
(1.10722 -3.25353e-15 0)
(1.10673 5.04428e-15 0)
(1.10624 -5.3604e-15 0)
(1.10574 1.86818e-15 0)
(1.10523 -4.78567e-15 0)
(1.10472 -3.06381e-15 0)
(1.1042 3.005e-15 0)
(1.10369 4.70407e-15 0)
(1.10316 -1.04763e-14 0)
(1.10263 1.39501e-14 0)
(1.10207 -1.16653e-14 0)
(1.10148 1.00257e-14 0)
(1.10087 4.33028e-15 0)
(1.10035 -1.3921e-14 0)
(1.11322 -3.24596e-15 0)
(1.11278 2.12332e-15 0)
(1.11234 1.86515e-15 0)
(1.1119 -2.4023e-15 0)
(1.11145 3.55025e-16 0)
(1.11099 1.45758e-15 0)
(1.11054 -4.83688e-15 0)
(1.11008 3.8054e-15 0)
(1.10961 -5.69462e-15 0)
(1.10914 6.39462e-15 0)
(1.10867 -5.24828e-15 0)
(1.10819 6.80104e-15 0)
(1.10771 -3.96172e-15 0)
(1.10722 -2.27306e-15 0)
(1.10673 4.53393e-15 0)
(1.10624 -4.3002e-15 0)
(1.10574 1.74814e-15 0)
(1.10523 -5.23479e-15 0)
(1.10472 -3.05562e-15 0)
(1.1042 2.99866e-15 0)
(1.10369 4.14984e-15 0)
(1.10316 -9.36255e-15 0)
(1.10263 1.1817e-14 0)
(1.10207 -1.01643e-14 0)
(1.10148 9.81118e-15 0)
(1.10087 3.15116e-15 0)
(1.10035 -8.43996e-15 0)
(1.11322 -3.50022e-15 0)
(1.11278 1.2916e-15 0)
(1.11234 1.85167e-15 0)
(1.1119 -2.58085e-15 0)
(1.11145 5.7025e-16 0)
(1.11099 3.10853e-15 0)
(1.11054 -5.24026e-15 0)
(1.11008 3.94907e-15 0)
(1.10961 -6.04965e-15 0)
(1.10914 6.58257e-15 0)
(1.10867 -4.70147e-15 0)
(1.10819 6.87736e-15 0)
(1.10771 -2.30426e-15 0)
(1.10722 -1.24576e-15 0)
(1.10673 3.77621e-15 0)
(1.10624 -3.06125e-15 0)
(1.10574 8.70953e-16 0)
(1.10523 -4.53934e-15 0)
(1.10472 -2.21864e-15 0)
(1.1042 3.14192e-15 0)
(1.10369 3.93979e-15 0)
(1.10316 -7.00029e-15 0)
(1.10263 8.28357e-15 0)
(1.10207 -6.68933e-15 0)
(1.10148 9.86742e-15 0)
(1.10087 1.44124e-15 0)
(1.10035 -1.01993e-15 0)
(1.11322 -4.02683e-15 0)
(1.11278 1.15852e-15 0)
(1.11234 2.31088e-15 0)
(1.1119 -2.15935e-15 0)
(1.11145 3.20758e-16 0)
(1.11099 4.17718e-15 0)
(1.11054 -5.87954e-15 0)
(1.11008 3.66247e-15 0)
(1.10961 -6.08772e-15 0)
(1.10914 6.75785e-15 0)
(1.10867 -4.11736e-15 0)
(1.10819 6.50879e-15 0)
(1.10771 -1.39577e-15 0)
(1.10722 -1.32876e-15 0)
(1.10673 2.73321e-15 0)
(1.10624 -3.17248e-15 0)
(1.10574 4.22997e-16 0)
(1.10523 -4.20737e-15 0)
(1.10472 -2.49243e-15 0)
(1.1042 2.81215e-15 0)
(1.10369 2.78923e-15 0)
(1.10316 -4.00891e-15 0)
(1.10263 3.29706e-15 0)
(1.10207 -2.68909e-15 0)
(1.10148 9.18357e-15 0)
(1.10087 -3.94087e-17 0)
(1.10035 5.44055e-15 0)
(1.11322 -3.96899e-15 0)
(1.11278 1.55199e-15 0)
(1.11234 2.05119e-15 0)
(1.1119 -1.77958e-15 0)
(1.11145 8.62991e-17 0)
(1.11099 4.63511e-15 0)
(1.11054 -6.23475e-15 0)
(1.11008 3.24657e-15 0)
(1.10961 -5.66413e-15 0)
(1.10914 6.73054e-15 0)
(1.10867 -4.07377e-15 0)
(1.10819 5.33082e-15 0)
(1.10771 -1.5202e-15 0)
(1.10722 -1.45408e-15 0)
(1.10673 1.92401e-15 0)
(1.10624 -3.14832e-15 0)
(1.10574 7.36903e-17 0)
(1.10523 -3.64527e-15 0)
(1.10472 -2.31981e-15 0)
(1.1042 2.65333e-15 0)
(1.10369 2.01635e-15 0)
(1.10316 -9.62634e-16 0)
(1.10263 -1.78174e-15 0)
(1.10207 1.2764e-15 0)
(1.10148 6.54717e-15 0)
(1.10087 -7.5278e-16 0)
(1.10035 1.07219e-14 0)
(1.11322 -2.8321e-15 0)
(1.11278 1.2573e-15 0)
(1.11234 1.65338e-15 0)
(1.1119 -1.92941e-15 0)
(1.11145 5.44403e-16 0)
(1.11099 4.62267e-15 0)
(1.11054 -6.94152e-15 0)
(1.11008 4.2481e-15 0)
(1.10961 -5.72656e-15 0)
(1.10914 6.05722e-15 0)
(1.10867 -3.9979e-15 0)
(1.10819 3.63258e-15 0)
(1.10771 -1.26683e-15 0)
(1.10722 -2.34782e-15 0)
(1.10673 2.27623e-15 0)
(1.10624 -2.40508e-15 0)
(1.10574 -2.49227e-16 0)
(1.10523 -2.71718e-15 0)
(1.10472 -1.73865e-15 0)
(1.1042 2.49033e-15 0)
(1.10369 2.45567e-16 0)
(1.10316 3.66563e-15 0)
(1.10263 -6.71888e-15 0)
(1.10207 4.7468e-15 0)
(1.10148 2.88886e-15 0)
(1.10087 -1.07274e-15 0)
(1.10035 1.41571e-14 0)
(1.11322 -2.4154e-15 0)
(1.11278 1.09337e-15 0)
(1.11234 1.21158e-15 0)
(1.1119 -1.31963e-15 0)
(1.11145 2.29361e-16 0)
(1.11099 4.93112e-15 0)
(1.11054 -6.95312e-15 0)
(1.11008 5.07931e-15 0)
(1.10961 -6.38632e-15 0)
(1.10914 5.30923e-15 0)
(1.10867 -4.66018e-15 0)
(1.10819 2.50712e-15 0)
(1.10771 -3.10556e-16 0)
(1.10722 -3.10723e-15 0)
(1.10673 3.27773e-15 0)
(1.10624 -2.18171e-15 0)
(1.10574 -3.56623e-16 0)
(1.10523 -2.15376e-15 0)
(1.10472 -4.92022e-16 0)
(1.1042 1.75067e-15 0)
(1.10369 -1.21247e-15 0)
(1.10316 7.54874e-15 0)
(1.10263 -1.08312e-14 0)
(1.10207 7.25123e-15 0)
(1.10148 -8.44207e-16 0)
(1.10087 -1.73867e-15 0)
(1.10035 1.64477e-14 0)
(1.11322 -1.9236e-15 0)
(1.11278 8.75371e-16 0)
(1.11234 5.88911e-16 0)
(1.1119 -6.12529e-16 0)
(1.11145 -2.90716e-16 0)
(1.11099 5.79125e-15 0)
(1.11054 -6.31944e-15 0)
(1.11008 5.72013e-15 0)
(1.10961 -6.7856e-15 0)
(1.10914 5.31964e-15 0)
(1.10867 -4.48008e-15 0)
(1.10819 1.92317e-15 0)
(1.10771 5.18497e-16 0)
(1.10722 -3.59038e-15 0)
(1.10673 4.69251e-15 0)
(1.10624 -2.99197e-15 0)
(1.10574 -4.9751e-16 0)
(1.10523 -1.79131e-15 0)
(1.10472 -1.12963e-17 0)
(1.1042 5.26356e-16 0)
(1.10369 -2.88887e-15 0)
(1.10316 9.336e-15 0)
(1.10263 -1.37683e-14 0)
(1.10207 9.84808e-15 0)
(1.10148 -2.24976e-15 0)
(1.10087 -2.38989e-15 0)
(1.10035 1.81298e-14 0)
(1.11322 -1.14468e-15 0)
(1.11278 1.16227e-15 0)
(1.11234 8.3328e-16 0)
(1.1119 1.40439e-16 0)
(1.11145 -4.18338e-16 0)
(1.11099 4.80561e-15 0)
(1.11054 -6.35297e-15 0)
(1.11008 6.11545e-15 0)
(1.10961 -6.04017e-15 0)
(1.10914 5.21364e-15 0)
(1.10867 -3.59716e-15 0)
(1.10819 1.08843e-15 0)
(1.10771 1.0605e-15 0)
(1.10722 -3.8431e-15 0)
(1.10673 7.35774e-15 0)
(1.10624 -3.00978e-15 0)
(1.10574 -1.68692e-16 0)
(1.10523 -1.30298e-15 0)
(1.10472 6.57317e-16 0)
(1.1042 -7.63747e-16 0)
(1.10369 -3.7224e-15 0)
(1.10316 1.21469e-14 0)
(1.10263 -1.42919e-14 0)
(1.10207 1.0399e-14 0)
(1.10148 -2.92055e-15 0)
(1.10087 -4.14857e-15 0)
(1.10035 1.7206e-14 0)
(1.11322 -2.61975e-16 0)
(1.11278 1.8924e-15 0)
(1.11234 1.60831e-15 0)
(1.1119 -1.00056e-16 0)
(1.11145 -1.18564e-15 0)
(1.11099 4.58909e-15 0)
(1.11054 -6.95669e-15 0)
(1.11008 6.54394e-15 0)
(1.10961 -7.5803e-15 0)
(1.10914 4.8618e-15 0)
(1.10867 -3.15613e-15 0)
(1.10819 1.3225e-15 0)
(1.10771 3.01639e-15 0)
(1.10722 -4.39098e-15 0)
(1.10673 8.31204e-15 0)
(1.10624 -3.38045e-15 0)
(1.10574 8.13094e-16 0)
(1.10523 -1.02138e-15 0)
(1.10472 1.57154e-15 0)
(1.1042 -2.112e-15 0)
(1.10369 -4.42408e-15 0)
(1.10316 1.21632e-14 0)
(1.10263 -1.30386e-14 0)
(1.10207 9.16545e-15 0)
(1.10148 -3.86741e-15 0)
(1.10087 -6.84584e-15 0)
(1.10035 1.99752e-14 0)
(1.11322 2.74772e-16 0)
(1.11278 9.81399e-16 0)
(1.11234 1.96661e-15 0)
(1.1119 1.95112e-17 0)
(1.11145 -2.20257e-15 0)
(1.11099 4.72676e-15 0)
(1.11054 -7.43712e-15 0)
(1.11008 6.87215e-15 0)
(1.10961 -8.92888e-15 0)
(1.10914 5.19447e-15 0)
(1.10867 -3.03989e-15 0)
(1.10819 1.19406e-15 0)
(1.10771 4.42321e-15 0)
(1.10722 -4.71165e-15 0)
(1.10673 8.83975e-15 0)
(1.10624 -4.80055e-15 0)
(1.10574 1.47358e-15 0)
(1.10523 -1.56253e-15 0)
(1.10472 2.62477e-15 0)
(1.1042 -2.71673e-15 0)
(1.10369 -3.36535e-15 0)
(1.10316 1.11545e-14 0)
(1.10263 -1.0505e-14 0)
(1.10207 6.91271e-15 0)
(1.10148 -3.58979e-15 0)
(1.10087 -8.83453e-15 0)
(1.10035 1.73735e-14 0)
(1.11322 1.69297e-16 0)
(1.11278 -4.03536e-16 0)
(1.11234 2.87946e-15 0)
(1.1119 1.19907e-16 0)
(1.11145 -2.70284e-15 0)
(1.11099 3.6557e-15 0)
(1.11054 -7.46809e-15 0)
(1.11008 6.83597e-15 0)
(1.10961 -8.49207e-15 0)
(1.10914 5.95251e-15 0)
(1.10867 -2.73151e-15 0)
(1.10819 1.44458e-15 0)
(1.10771 3.95513e-15 0)
(1.10722 -4.96261e-15 0)
(1.10673 9.33367e-15 0)
(1.10624 -6.95978e-15 0)
(1.10574 3.41164e-15 0)
(1.10523 -2.25475e-15 0)
(1.10472 3.43232e-15 0)
(1.1042 -3.8043e-15 0)
(1.10369 -1.83723e-15 0)
(1.10316 1.0045e-14 0)
(1.10263 -7.20736e-15 0)
(1.10207 4.51882e-15 0)
(1.10148 -3.70261e-15 0)
(1.10087 -9.02545e-15 0)
(1.10035 1.52826e-14 0)
(1.11322 4.80158e-16 0)
(1.11278 -9.68613e-16 0)
(1.11234 2.53434e-15 0)
(1.1119 -4.75164e-16 0)
(1.11145 -1.86211e-15 0)
(1.11099 3.65209e-15 0)
(1.11054 -6.82456e-15 0)
(1.11008 6.3473e-15 0)
(1.10961 -7.65818e-15 0)
(1.10914 5.36456e-15 0)
(1.10867 -3.79437e-15 0)
(1.10819 1.99381e-15 0)
(1.10771 2.90664e-15 0)
(1.10722 -4.647e-15 0)
(1.10673 1.01578e-14 0)
(1.10624 -8.53846e-15 0)
(1.10574 4.47256e-15 0)
(1.10523 -3.05557e-15 0)
(1.10472 2.82268e-15 0)
(1.1042 -5.28396e-15 0)
(1.10369 -1.28493e-15 0)
(1.10316 8.59339e-15 0)
(1.10263 -4.15009e-15 0)
(1.10207 1.82728e-15 0)
(1.10148 -3.12262e-15 0)
(1.10087 -7.76624e-15 0)
(1.10035 1.15829e-14 0)
(1.11322 7.45204e-16 0)
(1.11278 -6.67578e-16 0)
(1.11234 2.16407e-15 0)
(1.1119 1.56663e-16 0)
(1.11145 -1.7255e-15 0)
(1.11099 3.76613e-15 0)
(1.11054 -7.09564e-15 0)
(1.11008 5.72518e-15 0)
(1.10961 -8.24408e-15 0)
(1.10914 5.16196e-15 0)
(1.10867 -5.51545e-15 0)
(1.10819 1.8157e-15 0)
(1.10771 1.3529e-15 0)
(1.10722 -4.18461e-15 0)
(1.10673 1.12398e-14 0)
(1.10624 -8.73358e-15 0)
(1.10574 6.04475e-15 0)
(1.10523 -3.46406e-15 0)
(1.10472 9.38902e-16 0)
(1.1042 -6.06495e-15 0)
(1.10369 -1.46635e-15 0)
(1.10316 7.66337e-15 0)
(1.10263 -1.74737e-15 0)
(1.10207 -8.606e-16 0)
(1.10148 -1.44456e-15 0)
(1.10087 -5.53332e-15 0)
(1.10035 7.14727e-15 0)
(1.11322 4.15162e-16 0)
(1.11278 -3.71995e-16 0)
(1.11234 2.27218e-15 0)
(1.1119 2.08157e-16 0)
(1.11145 -1.99993e-15 0)
(1.11099 3.15941e-15 0)
(1.11054 -7.59053e-15 0)
(1.11008 4.44009e-15 0)
(1.10961 -8.16335e-15 0)
(1.10914 5.23146e-15 0)
(1.10867 -6.08133e-15 0)
(1.10819 1.77189e-15 0)
(1.10771 2.55047e-17 0)
(1.10722 -2.97436e-15 0)
(1.10673 1.1625e-14 0)
(1.10624 -9.85459e-15 0)
(1.10574 7.39058e-15 0)
(1.10523 -3.23836e-15 0)
(1.10472 7.73034e-16 0)
(1.1042 -5.75901e-15 0)
(1.10369 -1.94612e-15 0)
(1.10316 7.34027e-15 0)
(1.10263 3.97611e-16 0)
(1.10207 -3.78453e-15 0)
(1.10148 -5.7996e-16 0)
(1.10087 -2.3694e-15 0)
(1.10035 2.5749e-15 0)
(1.11322 -2.5208e-16 0)
(1.11278 -6.22021e-16 0)
(1.11234 1.54562e-15 0)
(1.1119 -3.8214e-16 0)
(1.11145 -1.83669e-15 0)
(1.11099 3.62005e-15 0)
(1.11054 -7.85335e-15 0)
(1.11008 3.64784e-15 0)
(1.10961 -6.97047e-15 0)
(1.10914 4.74889e-15 0)
(1.10867 -6.27403e-15 0)
(1.10819 2.30538e-15 0)
(1.10771 9.10087e-17 0)
(1.10722 -1.19115e-15 0)
(1.10673 1.17301e-14 0)
(1.10624 -1.05823e-14 0)
(1.10574 6.82391e-15 0)
(1.10523 -3.20274e-15 0)
(1.10472 -3.68681e-16 0)
(1.1042 -4.20362e-15 0)
(1.10369 -2.94715e-15 0)
(1.10316 8.00169e-15 0)
(1.10263 2.22165e-15 0)
(1.10207 -6.5165e-15 0)
(1.10148 -1.49851e-15 0)
(1.10087 9.37415e-16 0)
(1.10035 -2.47586e-15 0)
(1.11322 -2.91082e-16 0)
(1.11278 6.47136e-16 0)
(1.11234 1.50409e-15 0)
(1.1119 -1.14609e-15 0)
(1.11145 -2.74138e-15 0)
(1.11099 4.47523e-15 0)
(1.11054 -7.59374e-15 0)
(1.11008 3.95176e-15 0)
(1.10961 -6.11726e-15 0)
(1.10914 4.9216e-15 0)
(1.10867 -7.64293e-15 0)
(1.10819 1.67722e-15 0)
(1.10771 5.81013e-16 0)
(1.10722 7.86941e-16 0)
(1.10673 1.02954e-14 0)
(1.10624 -9.95064e-15 0)
(1.10574 6.30807e-15 0)
(1.10523 -2.28478e-15 0)
(1.10472 -2.14224e-15 0)
(1.1042 -2.03483e-15 0)
(1.10369 -3.40491e-15 0)
(1.10316 8.00514e-15 0)
(1.10263 3.98509e-15 0)
(1.10207 -7.18799e-15 0)
(1.10148 -2.60351e-15 0)
(1.10087 2.23823e-15 0)
(1.10035 -6.10078e-15 0)
(1.11322 -1.49537e-16 0)
(1.11278 9.70206e-16 0)
(1.11234 1.02922e-15 0)
(1.1119 -1.78432e-15 0)
(1.11145 -3.47206e-15 0)
(1.11099 4.66555e-15 0)
(1.11054 -6.31156e-15 0)
(1.11008 3.4335e-15 0)
(1.10961 -5.35958e-15 0)
(1.10914 5.63594e-15 0)
(1.10867 -7.08925e-15 0)
(1.10819 1.4422e-15 0)
(1.10771 -1.743e-16 0)
(1.10722 7.5082e-16 0)
(1.10673 8.16237e-15 0)
(1.10624 -8.35112e-15 0)
(1.10574 5.93765e-15 0)
(1.10523 -1.16841e-15 0)
(1.10472 -3.02464e-15 0)
(1.1042 1.77677e-16 0)
(1.10369 -3.88871e-15 0)
(1.10316 7.14847e-15 0)
(1.10263 3.69385e-15 0)
(1.10207 -7.04704e-15 0)
(1.10148 -3.28822e-15 0)
(1.10087 3.70489e-15 0)
(1.10035 -9.66229e-15 0)
(1.11322 -9.70741e-16 0)
(1.11278 6.39685e-16 0)
(1.11234 -4.8507e-16 0)
(1.1119 -2.10122e-15 0)
(1.11145 -3.87003e-15 0)
(1.11099 4.18857e-15 0)
(1.11054 -5.0199e-15 0)
(1.11008 2.76678e-15 0)
(1.10961 -4.05619e-15 0)
(1.10914 6.3192e-15 0)
(1.10867 -6.75907e-15 0)
(1.10819 2.58022e-15 0)
(1.10771 -4.32762e-16 0)
(1.10722 1.30324e-15 0)
(1.10673 6.4305e-15 0)
(1.10624 -7.60182e-15 0)
(1.10574 5.42518e-15 0)
(1.10523 -9.47942e-16 0)
(1.10472 -3.47105e-15 0)
(1.1042 1.63946e-15 0)
(1.10369 -5.16595e-15 0)
(1.10316 6.01156e-15 0)
(1.10263 3.66775e-15 0)
(1.10207 -6.39463e-15 0)
(1.10148 -2.7514e-15 0)
(1.10087 2.75436e-15 0)
(1.10035 -9.9816e-15 0)
(1.11322 -1.89125e-15 0)
(1.11278 7.30003e-16 0)
(1.11234 -1.32083e-15 0)
(1.1119 -1.03121e-15 0)
(1.11145 -3.768e-15 0)
(1.11099 4.06947e-15 0)
(1.11054 -4.11703e-15 0)
(1.11008 2.65967e-15 0)
(1.10961 -3.68786e-15 0)
(1.10914 6.18351e-15 0)
(1.10867 -7.30004e-15 0)
(1.10819 2.35503e-15 0)
(1.10771 -2.13108e-16 0)
(1.10722 2.44257e-15 0)
(1.10673 4.70738e-15 0)
(1.10624 -6.13945e-15 0)
(1.10574 4.56238e-15 0)
(1.10523 2.53919e-17 0)
(1.10472 -3.37812e-15 0)
(1.1042 1.38593e-15 0)
(1.10369 -5.33621e-15 0)
(1.10316 4.81434e-15 0)
(1.10263 2.97348e-15 0)
(1.10207 -5.55224e-15 0)
(1.10148 -1.35991e-15 0)
(1.10087 1.80706e-15 0)
(1.10035 -8.84053e-15 0)
(1.11322 -2.32976e-15 0)
(1.11278 1.06981e-16 0)
(1.11234 -1.67517e-15 0)
(1.1119 -1.02184e-17 0)
(1.11145 -3.21546e-15 0)
(1.11099 3.84286e-15 0)
(1.11054 -3.55146e-15 0)
(1.11008 2.3586e-15 0)
(1.10961 -3.82627e-15 0)
(1.10914 3.92614e-15 0)
(1.10867 -6.35503e-15 0)
(1.10819 1.54493e-15 0)
(1.10771 -6.83889e-16 0)
(1.10722 3.78812e-15 0)
(1.10673 3.83398e-15 0)
(1.10624 -3.48062e-15 0)
(1.10574 3.03253e-15 0)
(1.10523 1.31635e-15 0)
(1.10472 -3.94784e-15 0)
(1.1042 1.17854e-15 0)
(1.10369 -5.38852e-15 0)
(1.10316 3.5885e-15 0)
(1.10263 2.8475e-15 0)
(1.10207 -5.40822e-15 0)
(1.10148 1.94088e-15 0)
(1.10087 -2.39815e-16 0)
(1.10035 -6.643e-15 0)
(1.11322 -2.15665e-15 0)
(1.11278 -8.89599e-17 0)
(1.11234 -2.39117e-15 0)
(1.1119 2.83186e-16 0)
(1.11145 -2.59557e-15 0)
(1.11099 4.22281e-15 0)
(1.11054 -3.83578e-15 0)
(1.11008 1.51457e-15 0)
(1.10961 -2.41376e-15 0)
(1.10914 2.81267e-15 0)
(1.10867 -5.68253e-15 0)
(1.10819 4.71073e-16 0)
(1.10771 -5.65908e-16 0)
(1.10722 3.64028e-15 0)
(1.10673 3.00981e-15 0)
(1.10624 -1.58374e-15 0)
(1.10574 1.78511e-15 0)
(1.10523 1.44628e-15 0)
(1.10472 -4.51461e-15 0)
(1.1042 1.11559e-15 0)
(1.10369 -4.91045e-15 0)
(1.10316 1.42069e-15 0)
(1.10263 3.14081e-15 0)
(1.10207 -4.17532e-15 0)
(1.10148 5.84744e-15 0)
(1.10087 -3.90009e-15 0)
(1.10035 -4.29654e-15 0)
(1.11322 -1.9512e-15 0)
(1.11278 -8.1754e-16 0)
(1.11234 -2.44784e-15 0)
(1.1119 8.17502e-16 0)
(1.11145 -2.29603e-15 0)
(1.11099 4.36767e-15 0)
(1.11054 -3.58399e-15 0)
(1.11008 -4.45425e-17 0)
(1.10961 -9.67316e-16 0)
(1.10914 2.5408e-15 0)
(1.10867 -5.21293e-15 0)
(1.10819 -1.79206e-16 0)
(1.10771 -4.15705e-16 0)
(1.10722 3.02629e-15 0)
(1.10673 2.05689e-15 0)
(1.10624 -7.59839e-16 0)
(1.10574 9.67698e-16 0)
(1.10523 1.8484e-15 0)
(1.10472 -4.17512e-15 0)
(1.1042 1.13957e-15 0)
(1.10369 -3.13918e-15 0)
(1.10316 -4.61537e-16 0)
(1.10263 1.90145e-15 0)
(1.10207 -3.47739e-15 0)
(1.10148 7.21643e-15 0)
(1.10087 -7.35118e-15 0)
(1.10035 -8.38364e-16 0)
(1.11322 -1.67485e-15 0)
(1.11278 8.13725e-18 0)
(1.11234 -2.18708e-15 0)
(1.1119 1.3791e-15 0)
(1.11145 -3.1513e-15 0)
(1.11099 3.37919e-15 0)
(1.11054 -2.69828e-15 0)
(1.11008 -4.33175e-16 0)
(1.10961 1.58627e-17 0)
(1.10914 2.21996e-15 0)
(1.10867 -4.49006e-15 0)
(1.10819 2.21794e-16 0)
(1.10771 -5.59974e-17 0)
(1.10722 2.81236e-15 0)
(1.10673 1.84939e-15 0)
(1.10624 1.11888e-16 0)
(1.10574 5.15729e-16 0)
(1.10523 1.63653e-15 0)
(1.10472 -3.09081e-15 0)
(1.1042 1.93729e-16 0)
(1.10369 -1.40316e-15 0)
(1.10316 -1.23223e-15 0)
(1.10263 1.35762e-15 0)
(1.10207 -1.9485e-15 0)
(1.10148 7.45208e-15 0)
(1.10087 -1.05712e-14 0)
(1.10035 2.58873e-15 0)
(1.11322 -2.14743e-15 0)
(1.11278 8.91254e-16 0)
(1.11234 -2.14532e-15 0)
(1.1119 1.3419e-15 0)
(1.11145 -3.0441e-15 0)
(1.11099 3.70324e-15 0)
(1.11054 -1.93866e-15 0)
(1.11008 -9.00883e-16 0)
(1.10961 9.14752e-16 0)
(1.10914 7.08103e-16 0)
(1.10867 -3.76229e-15 0)
(1.10819 6.56438e-16 0)
(1.10771 -1.9098e-16 0)
(1.10722 1.412e-15 0)
(1.10673 1.19951e-16 0)
(1.10624 -6.34708e-17 0)
(1.10574 6.58656e-17 0)
(1.10523 1.43465e-15 0)
(1.10472 -2.46923e-15 0)
(1.1042 -1.39511e-15 0)
(1.10369 8.40747e-16 0)
(1.10316 -2.04568e-15 0)
(1.10263 2.23382e-16 0)
(1.10207 -7.67073e-16 0)
(1.10148 8.51319e-15 0)
(1.10087 -1.17349e-14 0)
(1.10035 4.67665e-15 0)
(1.11322 -2.5476e-15 0)
(1.11278 1.44659e-15 0)
(1.11234 -2.02455e-15 0)
(1.1119 1.39866e-15 0)
(1.11145 -2.43145e-15 0)
(1.11099 3.60592e-15 0)
(1.11054 -2.31087e-15 0)
(1.11008 -1.37781e-15 0)
(1.10961 1.24612e-15 0)
(1.10914 -6.00593e-16 0)
(1.10867 -2.51164e-15 0)
(1.10819 3.72096e-16 0)
(1.10771 -2.66125e-16 0)
(1.10722 -1.11802e-16 0)
(1.10673 -1.20211e-15 0)
(1.10624 -1.1595e-15 0)
(1.10574 -5.55484e-16 0)
(1.10523 1.78085e-15 0)
(1.10472 -1.09166e-15 0)
(1.1042 -2.69843e-15 0)
(1.10369 2.39925e-15 0)
(1.10316 -3.3639e-15 0)
(1.10263 -8.36262e-16 0)
(1.10207 1.18162e-15 0)
(1.10148 7.68142e-15 0)
(1.10087 -1.11112e-14 0)
(1.10035 5.97866e-15 0)
(1.11322 -2.58542e-15 0)
(1.11278 2.28776e-15 0)
(1.11234 -2.00184e-15 0)
(1.1119 1.5931e-15 0)
(1.11145 -1.57498e-15 0)
(1.11099 2.64068e-15 0)
(1.11054 -7.91552e-16 0)
(1.11008 -8.24071e-16 0)
(1.10961 1.75666e-15 0)
(1.10914 -7.95801e-16 0)
(1.10867 -1.52297e-15 0)
(1.10819 7.26457e-16 0)
(1.10771 -6.9261e-16 0)
(1.10722 -6.5969e-16 0)
(1.10673 -1.40575e-15 0)
(1.10624 -6.16778e-16 0)
(1.10574 -2.703e-16 0)
(1.10523 1.69307e-15 0)
(1.10472 -1.20618e-16 0)
(1.1042 -3.87185e-15 0)
(1.10369 3.99269e-15 0)
(1.10316 -4.37713e-15 0)
(1.10263 -8.60726e-16 0)
(1.10207 2.9251e-15 0)
(1.10148 5.72918e-15 0)
(1.10087 -9.55077e-15 0)
(1.10035 4.1122e-15 0)
(1.11322 -2.50805e-15 0)
(1.11278 3.31742e-15 0)
(1.11234 -2.60673e-15 0)
(1.1119 1.35318e-15 0)
(1.11145 -8.81642e-16 0)
(1.11099 2.25817e-15 0)
(1.11054 6.61953e-16 0)
(1.11008 -3.05602e-16 0)
(1.10961 2.56726e-15 0)
(1.10914 -1.12451e-15 0)
(1.10867 -4.2114e-16 0)
(1.10819 -3.27057e-16 0)
(1.10771 -6.86932e-16 0)
(1.10722 -1.18094e-15 0)
(1.10673 -8.5168e-16 0)
(1.10624 -7.29444e-16 0)
(1.10574 9.81394e-16 0)
(1.10523 1.57913e-15 0)
(1.10472 7.13772e-16 0)
(1.1042 -3.55125e-15 0)
(1.10369 5.22886e-15 0)
(1.10316 -5.33578e-15 0)
(1.10263 -1.65222e-15 0)
(1.10207 3.57527e-15 0)
(1.10148 3.59428e-15 0)
(1.10087 -5.79958e-15 0)
(1.10035 3.04606e-15 0)
(1.11322 -2.34667e-15 0)
(1.11278 3.29241e-15 0)
(1.11234 -3.22287e-15 0)
(1.1119 1.21523e-15 0)
(1.11145 -1.37045e-15 0)
(1.11099 1.90287e-15 0)
(1.11054 1.94591e-15 0)
(1.11008 -1.10715e-15 0)
(1.10961 2.87796e-15 0)
(1.10914 -1.97671e-15 0)
(1.10867 6.21117e-16 0)
(1.10819 -1.25238e-15 0)
(1.10771 -7.56053e-16 0)
(1.10722 -2.07079e-15 0)
(1.10673 -1.41697e-15 0)
(1.10624 -7.40379e-16 0)
(1.10574 1.85615e-15 0)
(1.10523 1.35176e-15 0)
(1.10472 6.79476e-16 0)
(1.1042 -2.91816e-15 0)
(1.10369 5.8683e-15 0)
(1.10316 -5.60996e-15 0)
(1.10263 -1.36744e-15 0)
(1.10207 3.90091e-15 0)
(1.10148 1.30628e-15 0)
(1.10087 -2.47327e-15 0)
(1.10035 1.77241e-15 0)
(1.11322 -2.50234e-15 0)
(1.11278 2.71887e-15 0)
(1.11234 -3.36897e-15 0)
(1.1119 1.46458e-15 0)
(1.11145 -1.60283e-15 0)
(1.11099 2.12452e-15 0)
(1.11054 3.11357e-15 0)
(1.11008 -1.85141e-15 0)
(1.10961 3.28989e-15 0)
(1.10914 -2.22922e-15 0)
(1.10867 1.80436e-15 0)
(1.10819 -2.52391e-15 0)
(1.10771 -1.8507e-15 0)
(1.10722 -2.50794e-15 0)
(1.10673 -1.04012e-15 0)
(1.10624 1.18278e-16 0)
(1.10574 1.92738e-15 0)
(1.10523 1.0511e-15 0)
(1.10472 3.60438e-16 0)
(1.1042 -2.27066e-15 0)
(1.10369 5.36868e-15 0)
(1.10316 -5.98254e-15 0)
(1.10263 -3.7817e-16 0)
(1.10207 3.84555e-15 0)
(1.10148 -6.75804e-16 0)
(1.10087 -3.2779e-16 0)
(1.10035 2.19805e-15 0)
(1.11322 -2.56288e-15 0)
(1.11278 2.09436e-15 0)
(1.11234 -3.08145e-15 0)
(1.1119 1.46552e-15 0)
(1.11145 -1.74563e-15 0)
(1.11099 1.44957e-15 0)
(1.11054 4.27089e-15 0)
(1.11008 -1.21662e-15 0)
(1.10961 3.55803e-15 0)
(1.10914 -2.18419e-15 0)
(1.10867 3.28105e-15 0)
(1.10819 -2.52796e-15 0)
(1.10771 -2.26816e-15 0)
(1.10722 -2.43048e-15 0)
(1.10673 6.69781e-17 0)
(1.10624 -2.61605e-17 0)
(1.10574 1.32491e-15 0)
(1.10523 8.93345e-16 0)
(1.10472 7.5717e-16 0)
(1.1042 -2.03603e-15 0)
(1.10369 3.87543e-15 0)
(1.10316 -6.49964e-15 0)
(1.10263 4.21076e-16 0)
(1.10207 2.94944e-15 0)
(1.10148 -1.99983e-15 0)
(1.10087 2.57493e-15 0)
(1.10035 2.7138e-15 0)
(1.11322 -2.13166e-15 0)
(1.11278 2.17856e-15 0)
(1.11234 -3.83729e-15 0)
(1.1119 1.61682e-15 0)
(1.11145 -2.30797e-15 0)
(1.11099 9.32815e-17 0)
(1.11054 4.53736e-15 0)
(1.11008 -5.09664e-16 0)
(1.10961 3.30319e-15 0)
(1.10914 -3.44194e-15 0)
(1.10867 3.46426e-15 0)
(1.10819 -1.70205e-15 0)
(1.10771 -1.23278e-15 0)
(1.10722 -2.34418e-15 0)
(1.10673 4.75639e-16 0)
(1.10624 -1.51974e-16 0)
(1.10574 7.80004e-16 0)
(1.10523 1.01471e-15 0)
(1.10472 2.45615e-16 0)
(1.1042 -4.55858e-16 0)
(1.10369 2.28597e-15 0)
(1.10316 -6.93877e-15 0)
(1.10263 2.06946e-15 0)
(1.10207 9.80004e-16 0)
(1.10148 -1.94253e-15 0)
(1.10087 4.24516e-15 0)
(1.10035 2.51534e-15 0)
(1.11322 -2.14416e-15 0)
(1.11278 2.06713e-15 0)
(1.11234 -4.16071e-15 0)
(1.1119 1.26939e-15 0)
(1.11145 -2.55889e-15 0)
(1.11099 -4.26602e-16 0)
(1.11054 3.71037e-15 0)
(1.11008 -1.12515e-15 0)
(1.10961 2.64293e-15 0)
(1.10914 -2.95672e-15 0)
(1.10867 4.1617e-15 0)
(1.10819 -2.25544e-15 0)
(1.10771 -7.88457e-16 0)
(1.10722 -2.5906e-15 0)
(1.10673 1.32432e-15 0)
(1.10624 4.0243e-16 0)
(1.10574 9.36365e-16 0)
(1.10523 1.41258e-15 0)
(1.10472 -1.30778e-15 0)
(1.1042 1.34068e-15 0)
(1.10369 1.11247e-15 0)
(1.10316 -6.60955e-15 0)
(1.10263 3.92731e-15 0)
(1.10207 -1.2395e-15 0)
(1.10148 -2.90082e-16 0)
(1.10087 6.31057e-15 0)
(1.10035 7.16235e-16 0)
(1.11322 -1.77184e-15 0)
(1.11278 1.82545e-15 0)
(1.11234 -3.68575e-15 0)
(1.1119 1.35956e-15 0)
(1.11145 -1.99687e-15 0)
(1.11099 -5.78549e-16 0)
(1.11054 2.96304e-15 0)
(1.11008 -1.52394e-15 0)
(1.10961 3.56259e-15 0)
(1.10914 -2.5475e-15 0)
(1.10867 4.28195e-15 0)
(1.10819 -2.9144e-15 0)
(1.10771 -5.28311e-16 0)
(1.10722 -2.54243e-15 0)
(1.10673 1.35267e-15 0)
(1.10624 -5.58035e-16 0)
(1.10574 1.19679e-15 0)
(1.10523 2.59098e-15 0)
(1.10472 -2.87648e-15 0)
(1.1042 3.40134e-15 0)
(1.10369 6.54368e-16 0)
(1.10316 -5.67998e-15 0)
(1.10263 5.64818e-15 0)
(1.10207 -4.38611e-15 0)
(1.10148 1.70673e-15 0)
(1.10087 6.84202e-15 0)
(1.10035 -1.87164e-15 0)
(1.11322 -9.70067e-16 0)
(1.11278 1.2897e-15 0)
(1.11234 -4.00796e-15 0)
(1.1119 2.23087e-15 0)
(1.11145 -1.92443e-15 0)
(1.11099 -1.50694e-15 0)
(1.11054 2.29046e-15 0)
(1.11008 -8.02501e-16 0)
(1.10961 2.9881e-15 0)
(1.10914 -2.42793e-15 0)
(1.10867 4.39428e-15 0)
(1.10819 -3.38026e-15 0)
(1.10771 2.04822e-16 0)
(1.10722 -1.99243e-15 0)
(1.10673 1.9517e-15 0)
(1.10624 -1.58435e-15 0)
(1.10574 7.80097e-16 0)
(1.10523 3.57017e-15 0)
(1.10472 -4.03254e-15 0)
(1.1042 5.11424e-15 0)
(1.10369 -3.46623e-16 0)
(1.10316 -4.85836e-15 0)
(1.10263 8.0603e-15 0)
(1.10207 -7.93736e-15 0)
(1.10148 4.38553e-15 0)
(1.10087 5.62394e-15 0)
(1.10035 -1.78355e-15 0)
(1.11322 3.05133e-17 0)
(1.11278 3.53367e-16 0)
(1.11234 -3.64201e-15 0)
(1.1119 2.89834e-15 0)
(1.11145 -1.89542e-15 0)
(1.11099 -3.0343e-15 0)
(1.11054 2.50578e-15 0)
(1.11008 -1.37794e-15 0)
(1.10961 1.20019e-15 0)
(1.10914 -1.56814e-15 0)
(1.10867 4.98742e-15 0)
(1.10819 -4.2433e-15 0)
(1.10771 1.00231e-15 0)
(1.10722 -2.23285e-15 0)
(1.10673 3.43783e-15 0)
(1.10624 -2.50609e-15 0)
(1.10574 -1.39692e-17 0)
(1.10523 4.77147e-15 0)
(1.10472 -3.85015e-15 0)
(1.1042 6.90877e-15 0)
(1.10369 -1.45473e-15 0)
(1.10316 -4.49645e-15 0)
(1.10263 9.89574e-15 0)
(1.10207 -1.11955e-14 0)
(1.10148 7.1623e-15 0)
(1.10087 2.49976e-15 0)
(1.10035 1.67868e-15 0)
(1.11322 1.07536e-15 0)
(1.11278 9.70447e-16 0)
(1.11234 -3.30051e-15 0)
(1.1119 2.89143e-15 0)
(1.11145 -1.17861e-15 0)
(1.11099 -3.50442e-15 0)
(1.11054 2.45243e-15 0)
(1.11008 -1.83237e-15 0)
(1.10961 1.35756e-15 0)
(1.10914 -7.80767e-16 0)
(1.10867 4.4875e-15 0)
(1.10819 -5.59413e-15 0)
(1.10771 1.67267e-15 0)
(1.10722 -2.15659e-15 0)
(1.10673 3.84786e-15 0)
(1.10624 -3.20079e-15 0)
(1.10574 4.46813e-16 0)
(1.10523 5.68157e-15 0)
(1.10472 -3.69156e-15 0)
(1.1042 7.62315e-15 0)
(1.10369 -2.6348e-15 0)
(1.10316 -3.26235e-15 0)
(1.10263 1.08954e-14 0)
(1.10207 -1.37089e-14 0)
(1.10148 9.17315e-15 0)
(1.10087 -2.03637e-15 0)
(1.10035 5.96033e-15 0)
(1.11322 1.50684e-15 0)
(1.11278 1.70308e-15 0)
(1.11234 -4.12727e-15 0)
(1.1119 3.02728e-15 0)
(1.11145 -1.46761e-15 0)
(1.11099 -3.00095e-15 0)
(1.11054 2.98431e-15 0)
(1.11008 -1.79006e-15 0)
(1.10961 1.28089e-15 0)
(1.10914 -3.99291e-16 0)
(1.10867 4.61538e-15 0)
(1.10819 -7.50591e-15 0)
(1.10771 2.09174e-15 0)
(1.10722 -1.021e-15 0)
(1.10673 3.6839e-15 0)
(1.10624 -4.17269e-15 0)
(1.10574 2.23929e-15 0)
(1.10523 5.98254e-15 0)
(1.10472 -3.08287e-15 0)
(1.1042 7.41131e-15 0)
(1.10369 -3.60966e-15 0)
(1.10316 -1.92606e-15 0)
(1.10263 1.18118e-14 0)
(1.10207 -1.49193e-14 0)
(1.10148 1.21508e-14 0)
(1.10087 -4.76215e-15 0)
(1.10035 9.80029e-15 0)
(1.11322 2.27846e-15 0)
(1.11278 1.81877e-15 0)
(1.11234 -5.26558e-15 0)
(1.1119 3.59853e-15 0)
(1.11145 -1.32942e-15 0)
(1.11099 -3.44858e-15 0)
(1.11054 4.31934e-15 0)
(1.11008 -2.59859e-15 0)
(1.10961 9.78589e-16 0)
(1.10914 2.85572e-16 0)
(1.10867 4.221e-15 0)
(1.10819 -8.2254e-15 0)
(1.10771 2.17145e-15 0)
(1.10722 -7.0294e-16 0)
(1.10673 3.29832e-15 0)
(1.10624 -5.68575e-15 0)
(1.10574 3.40465e-15 0)
(1.10523 5.79053e-15 0)
(1.10472 -3.15845e-15 0)
(1.1042 7.6158e-15 0)
(1.10369 -5.65849e-15 0)
(1.10316 1.22598e-16 0)
(1.10263 9.89033e-15 0)
(1.10207 -1.49575e-14 0)
(1.10148 1.13224e-14 0)
(1.10087 -5.7036e-15 0)
(1.10035 1.06551e-14 0)
(1.11322 3.40331e-15 0)
(1.11278 1.23353e-15 0)
(1.11234 -6.00213e-15 0)
(1.1119 4.42678e-15 0)
(1.11145 -7.39604e-16 0)