/*--------------------------------*- C++ -*----------------------------------*\
  =========                 |
  \\      /  F ield         | OpenFOAM: The Open Source CFD Toolbox
   \\    /   O peration     | Website:  https://openfoam.org
    \\  /    A nd           | Version:  7
     \\/     M anipulation  |
\*---------------------------------------------------------------------------*/
FoamFile
{
    version     2.0;
    format      ascii;
    class       volVectorField;
    location    "0.1";
    object      U;
}
// * * * * * * * * * * * * * * * * * * * * * * * * * * * * * * * * * * * * * //

dimensions      [0 1 -1 0 0 0 0];

internalField   nonuniform List<vector> 
325
(
(1.35022 0.967608 0)
(1.40961 0.758938 0)
(0.972466 0.243209 0)
(0.904954 0.972504 0)
(1.28554 0.758893 0)
(0.973537 0.252702 0)
(0.707102 0.577416 0)
(1.17106 0.647279 0)
(0.952142 0.260374 0)
(0.493549 0.337734 0)
(0.977868 0.602305 0)
(0.900877 0.272056 0)
(0.367937 0.294435 0)
(0.750515 0.563665 0)
(0.830403 0.260619 0)
(0.276736 0.29071 0)
(0.560066 0.53078 0)
(0.763849 0.224805 0)
(0.187339 0.191343 0)
(0.419838 0.416664 0)
(0.715926 0.17372 0)
(0.134807 0.0352845 0)
(0.363756 0.271879 0)
(0.71143 0.1193 0)
(0.10166 -0.0263405 0)
(0.324665 0.156967 0)
(0.69794 0.0698577 0)
(0.101251 -0.00149742 0)
(0.339587 0.0575869 0)
(0.710608 0.0234899 0)
(0.101251 0.00149742 0)
(0.339587 -0.0575869 0)
(0.710608 -0.0234899 0)
(0.967256 -0.00615046 0)
(0.10166 0.0263405 0)
(0.324665 -0.156967 0)
(0.69794 -0.0698577 0)
(0.965668 -0.0186127 0)
(0.134807 -0.0352845 0)
(0.363756 -0.271879 0)
(0.71143 -0.1193 0)
(0.972382 -0.0294269 0)
(0.187339 -0.191343 0)
(0.419838 -0.416664 0)
(0.715926 -0.17372 0)
(1.1 -2.09327e-13 0)
(1.1 -6.85097e-13 0)
(1.1 1.25913e-13 0)
(1.1 3.53542e-10 0)
(1.1 1.24294e-12 0)
(1.1 -1.60205e-12 0)
(1.1 4.86012e-11 0)
(1.1 6.30834e-10 0)
(1.1 4.88998e-12 0)
(1.1 -1.42779e-11 0)
(1.1 7.87064e-10 0)
(1.1 -1.86217e-09 0)
(1.1 2.88232e-10 0)
(1.1 -1.56098e-10 0)
(1.1 2.32266e-09 0)
(1.1 -3.06592e-07 0)
(1.1 4.81066e-09 0)
(1.1 -4.4583e-09 0)
(1.1 -7.66717e-07 0)
(1.09994 -4.00216e-05 0)
(1.1 1.5491e-08 0)
(1.1 -2.51429e-06 0)
(1.09975 -0.000722909 0)
(1.09346 -0.006114 0)
(1.09998 -1.99244e-05 0)
(1.09885 -0.00191287 0)
(1.08145 -0.0332885 0)
(1.02696 -0.130461 0)
(1.09647 -0.00524927 0)
(1.06166 -0.0574516 0)
(0.9704 -0.202565 0)
(0.936554 -0.320667 0)
(1.03202 -0.0899286 0)
(0.918866 -0.240329 0)
(0.865045 -0.349226 0)
(0.918709 -0.369473 0)
(0.875318 -0.26542 0)
(0.822468 -0.349056 0)
(0.844234 -0.381159 0)
(0.912956 -0.381782 0)
(0.797823 -0.335452 0)
(0.793903 -0.371916 0)
(0.838671 -0.380616 0)
(0.923506 -0.375191 0)
(0.778498 -0.343569 0)
(0.792095 -0.369228 0)
(0.844449 -0.369064 0)
(0.937813 -0.365186 0)
(0.767414 -0.34172 0)
(0.794243 -0.355575 0)
(0.847993 -0.366333 0)
(0.949796 -0.366484 0)
(0.762869 -0.333299 0)
(0.788734 -0.351481 0)
(0.843829 -0.372244 0)
(0.954312 -0.375763 0)
(0.74901 -0.333362 0)
(0.774577 -0.356803 0)
(0.83307 -0.38242 0)
(0.954938 -0.385302 0)
(0.72794 -0.340987 0)
(0.757162 -0.368022 0)
(0.821289 -0.395022 0)
(0.951132 -0.396379 0)
(0.707337 -0.349956 0)
(0.741316 -0.376935 0)
(0.80575 -0.404791 0)
(0.93832 -0.408339 0)
(0.692853 -0.357953 0)
(0.728392 -0.381554 0)
(0.788529 -0.407974 0)
(0.915355 -0.414712 0)
(0.687059 -0.374771 0)
(0.720713 -0.393176 0)
(0.774706 -0.416142 0)
(0.891804 -0.432918 0)
(0.694878 -0.382032 0)
(0.724973 -0.401587 0)
(0.772258 -0.426318 0)
(0.892206 -0.448767 0)
(1.1 5.03166e-09 0)
(1.1 1.28381e-08 0)
(1.1 1.15427e-08 0)
(1.1 4.05847e-09 0)
(1.1 1.06358e-08 0)
(1.1 1.13907e-08 0)
(1.1 -8.11888e-06 0)
(1.1 -1.26551e-05 0)
(1.1 -3.57473e-06 0)
(1.09989 -0.00197278 0)
(1.09995 -0.00226641 0)
(1.10005 -0.000629888 0)
(1.09711 -0.0422448 0)
(1.09955 -0.0383796 0)
(1.10143 -0.0110178 0)
(1.08305 -0.164469 0)
(1.10271 -0.126976 0)
(1.10753 -0.0399863 0)
(1.06232 -0.261346 0)
(1.11716 -0.179161 0)
(1.1186 -0.0617788 0)
(1.06091 -0.293456 0)
(1.13555 -0.188366 0)
(1.13333 -0.0649056 0)
(1.06658 -0.308316 0)
(1.15336 -0.167443 0)
(1.14315 -0.0597906 0)
(1.08148 -0.287351 0)
(1.17348 -0.116322 0)
(1.14922 -0.0321646 0)
(1.10373 -0.259142 0)
(1.19404 -0.0647315 0)
(1.15095 0.00222174 0)
(1.13048 -0.240594 0)
(1.21148 -0.0284051 0)
(1.14757 0.0272826 0)
(1.16327 -0.224675 0)
(1.23891 0.0165679 0)
(1.14294 0.0497052 0)
(1.20533 -0.205819 0)
(1.24426 0.0504618 0)
(1.13682 0.0688096 0)
(1.25275 -0.187094 0)
(1.26282 0.115203 0)
(1.13972 0.101503 0)
(1.31205 -0.157785 0)
(1.25062 0.158641 0)
(1.13096 0.129008 0)
(1.36838 -0.125474 0)
(1.2545 0.248393 0)
(1.11249 0.172084 0)
(1.43308 -0.0574117 0)
(1.23249 0.318885 0)
(1.06161 0.189312 0)
(1.48066 0.0401121 0)
(1.21678 0.437262 0)
(0.996794 0.222129 0)
(1.50197 0.258954 0)
(1.24729 0.568048 0)
(0.952612 0.227313 0)
(1.1 2.93202e-16 0)
(1.1 -9.50654e-17 0)
(1.1 5.86709e-16 0)
(1.1 1.7886e-16 0)
(1.1 -2.45794e-16 0)
(1.1 9.71825e-16 0)
(1.1 1.3241e-16 0)
(1.1 -2.45216e-16 0)
(1.1 8.67069e-16 0)
(1.1 -4.1635e-17 0)
(1.1 -3.61167e-18 0)
(1.1 4.01987e-16 0)
(1.1 3.20463e-17 0)
(1.1 -8.37722e-17 0)
(1.1 9.79765e-17 0)
(1.1 -3.96702e-17 0)
(1.1 -1.8036e-16 0)
(1.1 5.12611e-16 0)
(1.1 -2.03215e-16 0)
(1.1 -1.04605e-16 0)
(1.1 1.09926e-16 0)
(1.1 -1.15262e-16 0)
(1.1 -1.59898e-17 0)
(1.1 -1.32752e-16 0)
(1.1 -4.64866e-16 0)
(1.1 -2.20182e-16 0)
(1.1 -5.15316e-16 0)
(1.1 -3.37738e-16 0)
(1.1 -4.05863e-16 0)
(1.1 -9.78162e-16 0)
(1.1 -1.42832e-16 0)
(1.1 -3.1836e-16 0)
(1.1 -4.67028e-18 0)
(1.1 8.97791e-17 0)
(1.1 -4.31585e-16 0)
(1.1 4.9038e-16 0)
(1.1 9.81145e-18 0)
(1.1 -2.22135e-16 0)
(1.1 1.57576e-16 0)
(1.1 -4.0198e-17 0)
(1.1 1.6863e-16 0)
(1.1 7.29377e-17 0)
(1.1 8.81381e-16 0)
(1.1 4.36703e-16 0)
(1.1 -2.7372e-16 0)
(1.1 8.31399e-16 0)
(1.1 4.01729e-16 0)
(1.1 -2.40188e-17 0)
(1.1 8.06435e-16 0)
(1.1 1.90353e-15 0)
(1.1 1.8108e-15 0)
(1.1 1.39861e-12 0)
(1.1 3.02573e-12 0)
(1.1 1.94331e-12 0)
(1.1 1.73729e-10 0)
(1.1 4.2405e-10 0)
(1.1 3.15924e-10 0)
(1.1 2.22415e-09 0)
(1.1 5.77964e-09 0)
(1.1 4.8133e-09 0)
(1.1 -1.04941e-13 0)
(1.1 -1.92749e-14 0)
(1.1 -2.69643e-15 0)
(1.1 4.26542e-16 0)
(1.1 -3.97552e-13 0)
(1.1 -6.90929e-14 0)
(1.1 -5.32472e-15 0)
(1.1 5.16618e-16 0)
(1.1 -2.35749e-13 0)
(1.1 -3.97103e-14 0)
(1.1 -1.85004e-15 0)
(1.1 2.33009e-16 0)
(1.1 -1.17132e-13 0)
(1.1 -1.36494e-14 0)
(1.1 -1.90759e-15 0)
(1.1 -6.30441e-16 0)
(1.1 -1.27178e-13 0)
(1.1 -1.46769e-14 0)
(1.1 -2.15818e-15 0)
(1.1 -4.9887e-16 0)
(1.1 -2.72333e-14 0)
(1.1 -5.19572e-15 0)
(1.1 5.25402e-16 0)
(1.1 3.15672e-16 0)
(1.1 2.87899e-14 0)
(1.1 1.48586e-15 0)
(1.1 1.16313e-15 0)
(1.1 2.06292e-16 0)
(1.1 6.95628e-14 0)
(1.1 6.79039e-15 0)
(1.1 1.77748e-15 0)
(1.1 -2.51677e-16 0)
(1.1 1.99926e-13 0)
(1.1 2.31833e-14 0)
(1.1 6.3562e-15 0)
(1.1 -7.55139e-17 0)
(1.1 3.43344e-13 0)
(1.1 4.51316e-14 0)
(1.1 8.17476e-15 0)
(1.1 3.95722e-17 0)
(1.1 5.2478e-14 0)
(1.1 4.8283e-15 0)
(1.1 1.42827e-15 0)
(1.1 -3.01123e-17 0)
(1.1 -2.78349e-13 0)
(1.1 -3.89593e-14 0)
(1.1 -3.80364e-15 0)
(1.1 -1.11289e-16 0)
(1.1 -3.85874e-13 0)
(1.1 -5.53203e-14 0)
(1.1 -5.69493e-15 0)
(1.1 -4.46167e-16 0)
(1.1 -1.6792e-13 0)
(1.1 -2.337e-14 0)
(1.1 -2.7808e-15 0)
(1.1 -5.06419e-17 0)
(1.1 1.07152e-13 0)
(1.1 1.42145e-14 0)
(1.1 9.37447e-16 0)
(1.1 1.13115e-15 0)
(1.1 7.24737e-13 0)
(1.1 1.13353e-13 0)
(1.1 1.0881e-14 0)
(1.1 1.59063e-15 0)
(1.1 1.00563e-12 0)
(1.1 1.60412e-13 0)
(1.1 2.09811e-14 0)
(1.1 1.13439e-15 0)
(1.1 5.85752e-13 0)
(1.1 8.75376e-14 0)
(1.1 1.82764e-14 0)
(1.1 -2.73688e-15 0)
(1.1 -9.02424e-14 0)
(1.1 -2.39149e-14 0)
(1.1 9.9405e-15 0)
(1.1 6.50218e-14 0)
(1.1 -5.89099e-13 0)
(1.1 -1.95913e-13 0)
(1.1 -6.72349e-15 0)
(1.1 2.84051e-11 0)
)
;

boundaryField
{
    inlet
    {
        type            fixedValue;
        value           nonuniform 0();
    }
    outlet
    {
        type            inletOutlet;
        inletValue      nonuniform 0();
        value           nonuniform 0();
    }
    triangle
    {
        type            slip;
    }
    top
    {
        type            symmetryPlane;
    }
    bottom
    {
        type            symmetryPlane;
    }
    defaultFaces
    {
        type            empty;
    }
    procBoundary2to1
    {
        type            processor;
        value           nonuniform List<vector> 
40
(
(1.1 -1.88447e-12 0)
(1.1 -2.0893e-12 0)
(1.1 -2.55011e-12 0)
(1.1 -8.93841e-12 0)
(1.1 8.55054e-10 0)
(1.1 9.75511e-09 0)
(1.1 1.12622e-07 0)
(1.09991 -0.00011548 0)
(1.09052 -0.0123219 0)
(0.990897 -0.125894 0)
(0.83417 -0.277629 0)
(0.768064 -0.323251 0)
(0.749969 -0.328093 0)
(0.74099 -0.322308 0)
(0.730385 -0.314611 0)
(0.710641 -0.314845 0)
(0.686419 -0.321459 0)
(0.666219 -0.329478 0)
(0.659003 -0.352236 0)
(0.668545 -0.357899 0)
(1.1 -5.68861e-13 0)
(1.1 -1.96015e-12 0)
(1.1 -1.18784e-12 0)
(1.1 -5.33841e-13 0)
(1.1 -5.72548e-13 0)
(1.1 -1.30391e-13 0)
(1.1 1.24948e-13 0)
(1.1 3.25112e-13 0)
(1.1 9.28171e-13 0)
(1.1 1.57627e-12 0)
(1.1 2.21626e-13 0)
(1.1 -1.30721e-12 0)
(1.1 -1.78256e-12 0)
(1.1 -8.28886e-13 0)
(1.1 4.95154e-13 0)
(1.1 3.44191e-12 0)
(1.1 4.69506e-12 0)
(1.1 2.82631e-12 0)
(1.1 -1.55263e-13 0)
(1.1 -1.66283e-12 0)
)
;
    }
    procBoundary2to3
    {
        type            processor;
        value           nonuniform List<vector> 
47
(
(1.03935 0.0558952 0)
(1.03839 0.0612418 0)
(1.02804 0.0655551 0)
(1.01216 0.0661835 0)
(0.997005 0.061321 0)
(0.985205 0.053113 0)
(0.976409 0.0416778 0)
(1.1 5.35887e-09 0)
(1.1 5.90571e-09 0)
(1.1 -1.00326e-07 0)
(1.10001 -2.48268e-05 0)
(1.10016 -0.000607139 0)
(1.10103 -0.00312259 0)
(1.10291 -0.00642771 0)
(1.10567 -0.00808347 0)
(1.10853 -0.00796179 0)
(1.11 -0.00527963 0)
(1.10953 0.00326922 0)
(1.10791 0.0122023 0)
(1.10575 0.0210214 0)
(1.10064 0.0294427 0)
(1.09355 0.0386174 0)
(1.08263 0.0439719 0)
(1.07075 0.051433 0)
(1.05467 0.0539758 0)
(1.04043 0.0576184 0)
(1.03611 0.0540494 0)
(1.1 7.41466e-16 0)
(1.1 7.65548e-16 0)
(1.1 1.60056e-16 0)
(1.1 -9.89399e-18 0)
(1.1 3.49925e-16 0)
(1.1 8.44244e-16 0)
(1.1 1.29071e-15 0)
(1.1 7.0118e-16 0)
(1.1 -1.50561e-16 0)
(1.1 -4.12144e-16 0)
(1.1 -3.37912e-16 0)
(1.1 -4.25482e-17 0)
(1.1 -2.50509e-16 0)
(1.1 -6.81504e-16 0)
(1.1 7.01106e-16 0)
(1.1 1.08194e-15 0)
(1.1 3.33105e-16 0)
(1.1 3.00058e-13 0)
(1.1 7.80225e-11 0)
(1.1 1.7483e-09 0)
)
;
    }
    procBoundary2to6
    {
        type            processor;
        value           nonuniform List<vector> 5((0.976409 -0.0416778 0) (0.276736 -0.29071 0) (0.560066 -0.53078 0) (0.976409 -0.0416778 0) (0.763849 -0.224805 0));
    }
    procBoundary2to7
    {
        type            processor;
        value           nonuniform List<vector> 7((0.972382 0.0294269 0) (0.965668 0.0186127 0) (0.967256 0.00615046 0) (0.967256 0.00615046 0) (1.0789 -0.000865727 0) (1.07938 -0.0027046 0) (1.08049 -0.0041625 0));
    }
}


// ************************************************************************* //
