/*--------------------------------*- C++ -*----------------------------------*\
  =========                 |
  \\      /  F ield         | OpenFOAM: The Open Source CFD Toolbox
   \\    /   O peration     | Website:  https://openfoam.org
    \\  /    A nd           | Version:  8
     \\/     M anipulation  |
\*---------------------------------------------------------------------------*/
FoamFile
{
    version     2.0;
    format      ascii;
    class       volScalarField;
    location    "4.3";
    object      T;
}
// * * * * * * * * * * * * * * * * * * * * * * * * * * * * * * * * * * * * * //

dimensions      [0 0 0 1 0 0 0];

internalField   nonuniform List<scalar> 
2600
(
1.71768
1.60175
1.31913
1.36323
1.53465
1.74948
1.81727
1.69384
1.58002
1.51333
1.7333
1.60632
1.32817
1.38963
1.55698
1.80569
1.87882
1.73987
1.59322
1.52899
1.73489
1.60152
1.34524
1.42523
1.59185
1.86415
1.9133
1.7741
1.60597
1.54825
1.72919
1.60381
1.37887
1.46661
1.64239
1.90809
1.92707
1.78977
1.61739
1.56957
1.71772
1.61255
1.43101
1.5173
1.70306
1.9343
1.93
1.79414
1.62881
1.59133
1.70975
1.62391
1.50239
1.57776
1.76058
1.94567
1.92534
1.79493
1.64293
1.61244
1.70534
1.63723
1.56507
1.64357
1.8017
1.94848
1.90861
1.79673
1.66212
1.63278
1.70419
1.64647
1.61482
1.70546
1.82636
1.945
1.89399
1.803
1.68842
1.65113
1.70327
1.64961
1.64525
1.74549
1.83034
1.9269
1.87246
1.81387
1.71935
1.66876
1.70368
1.64806
1.65971
1.76745
1.83462
1.9118
1.84778
1.82265
1.75292
1.68411
1.7013
1.65376
1.67277
1.78015
1.83081
1.89376
1.81759
1.82755
1.77744
1.69487
1.69761
1.65747
1.69211
1.79851
1.83601
1.87296
1.78667
1.82084
1.79079
1.70186
1.69162
1.65913
1.71478
1.81308
1.84756
1.84787
1.75268
1.81129
1.79487
1.70254
1.68221
1.65847
1.7315
1.83707
1.85517
1.81583
1.71688
1.793
1.79575
1.70357
1.67217
1.65569
1.74324
1.85296
1.85628
1.77689
1.68295
1.7694
1.79286
1.69961
1.65798
1.65518
1.74751
1.86029
1.84234
1.73675
1.65314
1.74221
1.78708
1.69065
1.64653
1.65959
1.74844
1.84891
1.79989
1.69707
1.62903
1.71412
1.77446
1.67696
1.63732
1.66381
1.7411
1.81866
1.72802
1.65278
1.61069
1.68801
1.75587
1.65703
1.63026
1.65157
1.71284
1.76686
1.65075
1.61101
1.59655
1.66384
1.72656
1.62992
1.61357
1.59604
1.65606
1.6978
1.5872
1.57659
1.58305
1.64256
1.69083
1.59823
1.60008
1.50121
1.57528
1.6153
1.52609
1.54092
1.56882
1.62108
1.64821
1.56155
1.57501
1.43709
1.49979
1.5431
1.47568
1.50981
1.55648
1.59888
1.60658
1.52691
1.56615
1.40735
1.45448
1.48675
1.44636
1.49028
1.54629
1.57899
1.57439
1.50028
1.56248
1.39759
1.43247
1.44603
1.42306
1.47265
1.53515
1.56392
1.55267
1.48333
1.56384
1.39972
1.41905
1.41902
1.40028
1.45626
1.52183
1.5495
1.53629
1.47263
1.56635
1.41004
1.40793
1.4043
1.37892
1.43928
1.50529
1.53426
1.52254
1.46558
1.57055
1.42813
1.40006
1.39454
1.35787
1.4151
1.48528
1.5198
1.51191
1.46143
1.57559
1.44565
1.3985
1.38844
1.34302
1.38763
1.46492
1.50576
1.50312
1.45854
1.58159
1.45987
1.40185
1.38496
1.33762
1.37041
1.44869
1.49312
1.49574
1.45613
1.58773
1.47296
1.40846
1.38415
1.33352
1.36098
1.43801
1.48231
1.4891
1.45339
1.59352
1.48635
1.41748
1.38415
1.32856
1.35236
1.4301
1.47367
1.48304
1.45042
1.59861
1.49982
1.42769
1.38427
1.32345
1.34347
1.4227
1.46634
1.47757
1.44722
1.60296
1.51281
1.43805
1.38479
1.31866
1.33363
1.41326
1.45913
1.47274
1.44405
1.60649
1.52433
1.44757
1.38615
1.31546
1.32155
1.3995
1.45043
1.46868
1.44061
1.60887
1.53372
1.4562
1.38846
1.31486
1.31239
1.38275
1.44008
1.46553
1.43752
1.60947
1.54047
1.46311
1.39158
1.31794
1.30621
1.36537
1.42899
1.46297
1.43464
1.60829
1.54395
1.46838
1.39592
1.32277
1.30287
1.34956
1.41847
1.4603
1.43206
1.60465
1.54464
1.47148
1.39982
1.32688
1.30236
1.33632
1.4091
1.45684
1.42963
1.59898
1.54252
1.47245
1.40383
1.33157
1.30339
1.32615
1.3996
1.45183
1.42682
1.59229
1.53793
1.47215
1.40701
1.33654
1.30434
1.31868
1.39173
1.44678
1.42314
2.19636
2.16379
2.1354
2.10513
2.07476
2.04464
2.01329
1.97855
1.9327
1.88442
2.1325
2.10181
2.081
2.05812
2.03548
2.01097
1.98317
1.94925
1.90307
1.8331
2.08268
2.05951
2.04271
2.02247
2.00266
1.98063
1.95504
1.92296
1.87849
1.80392
2.03103
2.01428
2.00043
1.98283
1.96558
1.94512
1.92121
1.89116
1.84966
1.77251
1.98482
1.97321
1.96152
1.94557
1.92964
1.9103
1.88812
1.85988
1.82096
1.74804
1.94173
1.93432
1.92364
1.90985
1.89584
1.87822
1.85826
1.83163
1.7951
1.72879
1.90033
1.89765
1.88819
1.87704
1.86505
1.84947
1.83175
1.80704
1.77314
1.71399
1.85827
1.86357
1.85393
1.84554
1.83549
1.82235
1.8076
1.78548
1.75476
1.70268
1.81728
1.83026
1.82087
1.81557
1.80769
1.79764
1.7859
1.76663
1.7393
1.6933
1.77545
1.79597
1.78844
1.78569
1.78039
1.77491
1.76582
1.74959
1.72563
1.68496
1.73019
1.7605
1.75593
1.7563
1.75541
1.75387
1.74761
1.73417
1.71295
1.67701
1.67841
1.72224
1.72403
1.72871
1.7343
1.73421
1.72989
1.71874
1.70033
1.66931
1.6185
1.67996
1.6936
1.70602
1.71445
1.71592
1.7118
1.70252
1.68753
1.66185
1.52905
1.63687
1.66712
1.68264
1.69203
1.69539
1.69262
1.68573
1.67466
1.65446
1.41512
1.586
1.64249
1.65666
1.66714
1.67275
1.67238
1.66886
1.66188
1.64695
1.30604
1.4895
1.60721
1.6379
1.64548
1.65034
1.65284
1.65209
1.64901
1.63884
1.22487
1.34528
1.55372
1.61718
1.62457
1.628
1.63174
1.63532
1.63635
1.63056
1.17287
1.21903
1.47028
1.59653
1.61451
1.61312
1.6161
1.62188
1.6254
1.62173
1.1388
1.15572
1.30945
1.55358
1.60363
1.60517
1.60763
1.61244
1.61674
1.61423
1.11301
1.12304
1.1695
1.46701
1.59983
1.61082
1.60993
1.61406
1.61298
1.60888
1.00061
1.00189
1.00331
1.00489
1.00663
1.00857
1.01072
1.01336
1.01534
1.66605
1.00061
1.00189
1.00331
1.00489
1.00663
1.00857
1.01072
1.01336
1.01535
1.65243
1.00061
1.00189
1.00331
1.00489
1.00663
1.00857
1.01072
1.01336
1.01535
1.62657
1.00061
1.00189
1.00331
1.00488
1.00663
1.00857
1.01072
1.01336
1.01536
1.59458
1.00061
1.00189
1.00331
1.00488
1.00663
1.00857
1.01072
1.01335
1.01538
1.56129
1.00061
1.00189
1.00331
1.00488
1.00663
1.00857
1.01071
1.01335
1.01539
1.52819
1.00061
1.00189
1.00331
1.00488
1.00663
1.00858
1.01071
1.01335
1.0154
1.49544
1.00061
1.00189
1.00331
1.00488
1.00663
1.00858
1.01071
1.01335
1.01539
1.46242
1.00061
1.00189
1.00331
1.00488
1.00663
1.00858
1.01071
1.01335
1.01537
1.42881
1.00061
1.00189
1.00331
1.00488
1.00663
1.00858
1.01071
1.01335
1.01536
1.39392
1.00061
1.00189
1.00331
1.00488
1.00663
1.00858
1.01071
1.01336
1.01535
1.35684
1.00061
1.00189
1.00331
1.00488
1.00663
1.00858
1.01071
1.01336
1.01534
1.31592
1.00061
1.00189
1.00331
1.00488
1.00663
1.00858
1.01071
1.01336
1.01533
1.26938
1.00061
1.00189
1.00331
1.00488
1.00663
1.00858
1.01071
1.01336
1.01533
1.22436
1.00061
1.00189
1.00331
1.00488
1.00663
1.00858
1.01071
1.01336
1.01533
1.18349
1.00061
1.00189
1.00331
1.00488
1.00663
1.00858
1.01071
1.01336
1.01534
1.14947
1.00061
1.00189
1.00331
1.00488
1.00663
1.00858
1.01071
1.01336
1.01534
1.12325
1.00061
1.00189
1.00331
1.00488
1.00663
1.00858
1.01071
1.01336
1.01535
1.10191
1.00061
1.00189
1.00331
1.00488
1.00663
1.00858
1.01071
1.01336
1.01535
1.08467
1.00061
1.00189
1.00331
1.00488
1.00663
1.00858
1.01071
1.01336
1.01536
1.0716
1.00061
1.00189
1.00331
1.00488
1.00663
1.00858
1.01071
1.01336
1.01536
1.07171
1.00061
1.00189
1.00331
1.00488
1.00663
1.00858
1.01071
1.01336
1.01535
1.08481
1.00061
1.00189
1.00331
1.00488
1.00663
1.00858
1.01071
1.01336
1.01535
1.10209
1.00061
1.00189
1.00331
1.00488
1.00663
1.00858
1.01071
1.01336
1.01534
1.12348
1.00061
1.00189
1.00331
1.00488
1.00663
1.00858
1.01071
1.01336
1.01534
1.14976
1.00061
1.00189
1.00331
1.00488
1.00663
1.00858
1.01071
1.01336
1.01533
1.18385
1.00061
1.00189
1.00331
1.00488
1.00663
1.00858
1.01071
1.01336
1.01533
1.22475
1.00061
1.00189
1.00331
1.00488
1.00663
1.00858
1.01071
1.01336
1.01533
1.26974
1.00061
1.00189
1.00331
1.00488
1.00663
1.00858
1.01071
1.01336
1.01534
1.3162
1.00061
1.00189
1.00331
1.00488
1.00663
1.00858
1.01071
1.01336
1.01535
1.35703
1.00061
1.00189
1.00331
1.00488
1.00663
1.00858
1.01071
1.01335
1.01536
1.39403
1.00061
1.00189
1.00331
1.00488
1.00663
1.00858
1.01071
1.01335
1.01537
1.42888
1.00061
1.00189
1.00331
1.00488
1.00663
1.00858
1.01071
1.01335
1.01539
1.46246
1.00061
1.00189
1.00331
1.00488
1.00663
1.00858
1.01071
1.01335
1.0154
1.49546
1.00061
1.00189
1.00331
1.00488
1.00663
1.00857
1.01071
1.01335
1.01539
1.5282
1.00061
1.00189
1.00331
1.00488
1.00663
1.00857
1.01072
1.01335
1.01538
1.5613
1.00061
1.00189
1.00331
1.00488
1.00663
1.00857
1.01072
1.01336
1.01536
1.5946
1.00061
1.00189
1.00331
1.00489
1.00663
1.00857
1.01071
1.01336
1.01535
1.6266
1.00061
1.00189
1.00331
1.00489
1.00663
1.00857
1.01071
1.01336
1.01535
1.65245
1.00061
1.00189
1.00331
1.00489
1.00663
1.00857
1.01072
1.01336
1.01534
1.66606
1.11323
1.1233
1.17042
1.4677
1.59987
1.61066
1.60971
1.61364
1.61234
1.60769
1.13909
1.15616
1.31111
1.55355
1.60372
1.60483
1.60728
1.61204
1.6158
1.61301
1.17328
1.21998
1.47126
1.59657
1.61426
1.61282
1.6158
1.62155
1.62417
1.62044
1.2255
1.3467
1.55414
1.61726
1.62452
1.62779
1.63134
1.63502
1.63493
1.6293
1.30693
1.49033
1.60735
1.63772
1.64543
1.6502
1.65235
1.65153
1.64781
1.63764
1.41614
1.58642
1.64261
1.65673
1.66712
1.67256
1.67191
1.66829
1.66072
1.64578
1.52996
1.63702
1.66711
1.68266
1.69186
1.69518
1.69206
1.68518
1.67357
1.65334
1.61889
1.68019
1.69351
1.70594
1.71406
1.71574
1.71123
1.70197
1.68654
1.66085
1.67862
1.72243
1.72392
1.72851
1.73383
1.73398
1.72941
1.71822
1.69941
1.66847
1.73024
1.76048
1.7558
1.75613
1.7551
1.75352
1.74717
1.73374
1.71213
1.67635
1.77537
1.79587
1.78828
1.78548
1.78014
1.77457
1.7654
1.74927
1.72497
1.68453
1.81714
1.83009
1.82066
1.81533
1.80744
1.79734
1.78552
1.76642
1.73883
1.69319
1.85813
1.86337
1.85369
1.84527
1.83521
1.82208
1.80727
1.78534
1.75449
1.70308
1.90018
1.89744
1.88795
1.87677
1.86477
1.84921
1.83147
1.80694
1.77309
1.71516
1.94157
1.93411
1.92342
1.9096
1.89558
1.87799
1.85806
1.83157
1.79528
1.73086
1.98468
1.97302
1.96132
1.94535
1.92941
1.91007
1.88794
1.85988
1.82139
1.75102
2.03093
2.01413
2.00026
1.98264
1.96538
1.94493
1.92107
1.89123
1.85033
1.77576
2.08262
2.0594
2.04259
2.02232
2.0025
1.98048
1.95493
1.92309
1.87924
1.80714
2.13247
2.10174
2.08092
2.05802
2.03536
2.01083
1.98305
1.94936
1.90368
1.83612
2.19639
2.16379
2.13539
2.10511
2.07471
2.04456
2.0132
1.97861
1.93309
1.88704
1.59051
1.53273
1.46461
1.39431
1.33846
1.32455
1.34527
1.40373
1.44708
1.42852
1.59741
1.5377
1.46532
1.38972
1.33955
1.32897
1.35688
1.41239
1.45262
1.43297
1.60348
1.54044
1.46428
1.38437
1.34149
1.33395
1.36872
1.42006
1.45674
1.43678
1.60758
1.5404
1.46067
1.37924
1.34158
1.34489
1.3821
1.42779
1.45852
1.44012
1.60927
1.53745
1.45448
1.37461
1.34121
1.35441
1.39627
1.43651
1.45905
1.44225
1.60949
1.53099
1.446
1.36809
1.34221
1.36451
1.41022
1.44572
1.45985
1.44398
1.60813
1.52121
1.43559
1.35875
1.34475
1.37642
1.42299
1.45433
1.46121
1.44521
1.60554
1.50847
1.42332
1.34854
1.34787
1.39162
1.43462
1.46159
1.46381
1.44673
1.60189
1.49346
1.40881
1.33901
1.3494
1.41084
1.44614
1.46802
1.4674
1.44863
1.59745
1.47658
1.39389
1.32955
1.35096
1.43184
1.45824
1.47428
1.47225
1.45077
1.59202
1.45871
1.37843
1.31942
1.35344
1.45281
1.47111
1.4815
1.47769
1.45327
1.58555
1.44114
1.36232
1.3107
1.36005
1.47339
1.48496
1.49029
1.48448
1.45584
1.57831
1.42422
1.34336
1.30357
1.37205
1.49385
1.50075
1.49953
1.49145
1.45845
1.57005
1.41092
1.31999
1.30567
1.39085
1.51497
1.51739
1.51103
1.49855
1.46101
1.56125
1.40283
1.29832
1.30776
1.4147
1.53814
1.53494
1.52431
1.50637
1.46373
1.5536
1.40144
1.28901
1.30973
1.44065
1.56084
1.55532
1.54
1.51497
1.46722
1.54889
1.40734
1.28884
1.31496
1.46446
1.58404
1.58147
1.55876
1.52344
1.4716
1.55588
1.43009
1.29261
1.32223
1.48336
1.6116
1.61756
1.57879
1.53289
1.47758
1.58016
1.48139
1.30407
1.33206
1.50043
1.64765
1.66879
1.60421
1.54618
1.48687
1.6584
1.5501
1.31208
1.34376
1.51715
1.69623
1.73994
1.64467
1.56374
1.49963
1.78692
1.74903
1.7014
1.64429
1.57182
1.48933
1.40092
1.31724
1.20965
1.17672
1.78695
1.74845
1.70069
1.64185
1.57092
1.48817
1.39958
1.31556
1.20967
1.18031
1.78695
1.74733
1.69931
1.64086
1.56928
1.48534
1.39665
1.31242
1.20987
1.1841
1.78653
1.74551
1.69693
1.63749
1.5657
1.4806
1.3918
1.30779
1.21009
1.19066
1.78555
1.74317
1.69362
1.63263
1.56016
1.47368
1.3849
1.30202
1.21064
1.19988
1.78402
1.74047
1.68892
1.62585
1.5517
1.46429
1.3758
1.29473
1.21087
1.21139
1.78257
1.73732
1.68234
1.61708
1.5406
1.45279
1.36528
1.28672
1.21463
1.22387
1.78154
1.73299
1.67374
1.60602
1.52681
1.43935
1.35379
1.27789
1.22186
1.23844
1.77926
1.72697
1.66345
1.59212
1.51044
1.42475
1.34202
1.26822
1.23158
1.25519
1.77341
1.71944
1.65112
1.57481
1.49205
1.40947
1.33048
1.25871
1.24381
1.27422
1.76708
1.70932
1.6356
1.5541
1.47255
1.39419
1.31946
1.25236
1.25296
1.29582
1.75954
1.69339
1.61477
1.5303
1.45275
1.37951
1.30941
1.25297
1.26009
1.31803
1.74838
1.66922
1.58585
1.50537
1.43305
1.36602
1.3
1.25953
1.27156
1.33768
1.72631
1.63751
1.55242
1.4771
1.41448
1.35358
1.29284
1.27034
1.29112
1.35446
1.68878
1.60194
1.52155
1.45534
1.4001
1.34226
1.28821
1.28036
1.31911
1.37119
1.64782
1.56908
1.49537
1.43736
1.38661
1.33263
1.289
1.28984
1.34962
1.38602
1.61496
1.54373
1.47875
1.42474
1.37515
1.32273
1.29523
1.30661
1.38405
1.39677
1.59392
1.52862
1.46857
1.41565
1.36394
1.31648
1.30241
1.33048
1.41027
1.40462
1.58381
1.52295
1.463
1.40833
1.35161
1.31684
1.31486
1.35969
1.42734
1.4129
1.58542
1.52627
1.46328
1.40044
1.34285
1.31997
1.32977
1.38723
1.43919
1.42165
1.58713
1.53157
1.47099
1.41108
1.34513
1.30598
1.31049
1.37667
1.43764
1.41651
1.58529
1.52756
1.47088
1.41596
1.35486
1.30759
1.3068
1.35323
1.42387
1.40727
1.59506
1.53258
1.47495
1.42163
1.36533
1.31123
1.30191
1.32905
1.4078
1.39782
1.6157
1.54688
1.48381
1.42947
1.37522
1.32056
1.29647
1.30865
1.38665
1.38884
1.6483
1.57072
1.49839
1.44051
1.3866
1.33018
1.29188
1.29643
1.35712
1.38035
1.689
1.60283
1.52556
1.45746
1.39973
1.34007
1.29017
1.28915
1.32937
1.36929
1.72639
1.63798
1.55422
1.48208
1.41533
1.35143
1.29332
1.28228
1.30684
1.35588
1.74822
1.66943
1.58693
1.50474
1.43333
1.36385
1.29948
1.27368
1.28763
1.34309
1.7592
1.69359
1.61524
1.531
1.4525
1.37809
1.30803
1.26352
1.27433
1.3293
1.76664
1.70941
1.63616
1.55529
1.47426
1.3939
1.318
1.25925
1.26361
1.31178
1.7729
1.71945
1.65155
1.57607
1.49283
1.40954
1.32896
1.26064
1.2511
1.29017
1.77879
1.72692
1.66367
1.59284
1.51091
1.42552
1.34105
1.26707
1.23669
1.26709
1.78117
1.73292
1.67377
1.60626
1.52678
1.43908
1.35276
1.27497
1.22375
1.24668
1.7823
1.73722
1.68225
1.61691
1.53994
1.45209
1.36454
1.28357
1.21504
1.22872
1.78386
1.74034
1.68867
1.62537
1.55064
1.4631
1.37452
1.29183
1.2107
1.21345
1.78551
1.74301
1.69319
1.63191
1.55884
1.47206
1.38335
1.29977
1.21026
1.19945
1.78662
1.74531
1.69633
1.63658
1.56417
1.4787
1.38991
1.30649
1.21073
1.18817
1.78715
1.74709
1.69862
1.63976
1.56773
1.48327
1.39456
1.31179
1.21186
1.17886
1.78722
1.74818
1.69994
1.6408
1.56918
1.48609
1.3974
1.31534
1.21331
1.17361
1.78721
1.74875
1.70063
1.64305
1.57005
1.48721
1.39869
1.31727
1.21444
1.16948
1.08973
1.09772
1.10936
1.24127
1.5319
1.62621
1.62376
1.62279
1.62047
1.61158
1.06875
1.0747
1.08141
1.09952
1.32855
1.65448
1.65934
1.65258
1.63831
1.61875
1.05283
1.05705
1.06319
1.06811
1.11564
1.61199
1.71917
1.69762
1.67052
1.64135
1.0427
1.04549
1.04922
1.05375
1.05894
1.49083
1.76865
1.74105
1.70929
1.67588
1.03591
1.03777
1.03997
1.04368
1.04589
1.30933
1.75477
1.76533
1.74425
1.71168
1.03129
1.03264
1.03419
1.03659
1.03838
1.10088
1.70282
1.7925
1.77044
1.74731
1.02808
1.02911
1.03038
1.03197
1.03351
1.03867
1.61598
1.80815
1.78738
1.77242
1.02577
1.02657
1.02766
1.02874
1.03039
1.0312
1.48675
1.80991
1.798
1.78301
1.02413
1.0248
1.02566
1.02659
1.02787
1.02865
1.33987
1.78838
1.804
1.79104
1.02295
1.0235
1.02419
1.02496
1.02603
1.02676
1.19013
1.73397
1.80829
1.79703
1.02223
1.02265
1.0232
1.02381
1.02466
1.02531
1.05858
1.68029
1.81552
1.80396
1.02176
1.02215
1.02259
1.0231
1.02376
1.02432
1.02707
1.63175
1.81679
1.80547
1.02142
1.02177
1.02217
1.02262
1.02316
1.02377
1.02411
1.57123
1.81791
1.8048
1.0212
1.02152
1.02187
1.02228
1.02274
1.02334
1.02367
1.50127
1.81809
1.80596
1.02106
1.02135
1.02168
1.02205
1.02246
1.02301
1.02337
1.43682
1.81167
1.80791
1.02095
1.02123
1.02154
1.0219
1.02227
1.02278
1.02313
1.37928
1.80209
1.80763
1.02088
1.02115
1.02145
1.02179
1.02215
1.02261
1.02296
1.3295
1.78944
1.80827
1.02083
1.0211
1.02139
1.02171
1.02206
1.0225
1.02283
1.28967
1.77677
1.80907
1.02081
1.02107
1.02135
1.02167
1.02201
1.02244
1.02276
1.26156
1.76693
1.80958
1.02079
1.02104
1.02132
1.02164
1.02198
1.0224
1.02272
1.24995
1.76226
1.80956
1.00061
1.00189
1.00331
1.00488
1.00663
1.00858
1.01071
1.01336
1.01537
1.05916
1.00061
1.00189
1.00331
1.00488
1.00663
1.00858
1.01071
1.01335
1.01539
1.04603
1.00061
1.00189
1.00331
1.00488
1.00663
1.00858
1.01071
1.01334
1.01541
1.03701
1.00061
1.00189
1.00331
1.00488
1.00663
1.00858
1.01071
1.01333
1.01544
1.03186
1.00061
1.00189
1.00331
1.00488
1.00663
1.00858
1.01071
1.01332
1.01547
1.02795
1.00061
1.00189
1.00331
1.00488
1.00663
1.00858
1.01071
1.01331
1.0155
1.02512
1.00061
1.00189
1.00331
1.00488
1.00663
1.00858
1.01072
1.0133
1.01555
1.02314
1.00061
1.00189
1.00331
1.00489
1.00663
1.00858
1.01072
1.01329
1.01559
1.02175
1.00061
1.00189
1.00331
1.00489
1.00663
1.00858
1.01072
1.01328
1.01564
1.02081
1.00061
1.00189
1.00331
1.00489
1.00663
1.00858
1.01072
1.01327
1.01569
1.02019
1.00061
1.00189
1.00331
1.00489
1.00663
1.00858
1.01072
1.01326
1.01573
1.0198
1.00061
1.00189
1.00331
1.00489
1.00663
1.00858
1.01072
1.01325
1.01577
1.01953
1.00061
1.00189
1.00331
1.00489
1.00663
1.00858
1.01072
1.01324
1.0158
1.01935
1.00061
1.00189
1.00331
1.00489
1.00663
1.00858
1.01072
1.01324
1.01583
1.01924
1.00061
1.00189
1.00331
1.00489
1.00663
1.00858
1.01072
1.01323
1.01586
1.01917
1.00061
1.00189
1.00331
1.00489
1.00662
1.00858
1.01072
1.01324
1.01588
1.01911
1.00061
1.00189
1.00331
1.00489
1.00662
1.00859
1.01072
1.01324
1.01589
1.01908
1.00061
1.00189
1.00331
1.00489
1.00662
1.00859
1.01072
1.01324
1.01591
1.01905
1.00061
1.00189
1.00331
1.00489
1.00662
1.00859
1.01072
1.01324
1.01591
1.01904
1.00061
1.00189
1.00331
1.00489
1.00662
1.00859
1.01072
1.01325
1.01591
1.01904
1.00061
1.00189
1.00331
1.00489
1.00662
1.00859
1.01072
1.01325
1.01591
1.01904
1.00061
1.00189
1.00331
1.00489
1.00662
1.00859
1.01072
1.01324
1.01591
1.01904
1.00061
1.00189
1.00331
1.00489
1.00662
1.00859
1.01072
1.01324
1.01591
1.01905
1.00061
1.00189
1.00331
1.00489
1.00662
1.00859
1.01072
1.01324
1.01589
1.01908
1.00061
1.00189
1.00331
1.00489
1.00662
1.00858
1.01072
1.01324
1.01588
1.01911
1.00061
1.00189
1.00331
1.00489
1.00663
1.00858
1.01072
1.01323
1.01586
1.01917
1.00061
1.00189
1.00331
1.00489
1.00663
1.00858
1.01072
1.01324
1.01583
1.01924
1.00061
1.00189
1.00331
1.00489
1.00663
1.00858
1.01072
1.01324
1.0158
1.01935
1.00061
1.00189
1.00331
1.00489
1.00663
1.00858
1.01072
1.01325
1.01577
1.01953
1.00061
1.00189
1.00331
1.00489
1.00663
1.00858
1.01072
1.01326
1.01573
1.0198
1.00061
1.00189
1.00331
1.00489
1.00663
1.00858
1.01072
1.01327
1.01569
1.02019
1.00061
1.00189
1.00331
1.00489
1.00663
1.00858
1.01072
1.01328
1.01564
1.0208
1.00061
1.00189
1.00331
1.00489
1.00663
1.00858
1.01072
1.01329
1.01559
1.02175
1.00061
1.00189
1.00331
1.00488
1.00663
1.00858
1.01072
1.0133
1.01555
1.02314
1.00061
1.00189
1.00331
1.00488
1.00663
1.00858
1.01071
1.01331
1.0155
1.02512
1.00061
1.00189
1.00331
1.00488
1.00663
1.00858
1.01071
1.01332
1.01547
1.02796
1.00061
1.00189
1.00331
1.00488
1.00663
1.00858
1.01071
1.01333
1.01544
1.03187
1.00061
1.00189
1.00331
1.00488
1.00663
1.00858
1.01071
1.01334
1.01541
1.03704
1.00061
1.00189
1.00331
1.00488
1.00663
1.00858
1.01071
1.01335
1.01539
1.04609
1.00061
1.00189
1.00331
1.00488
1.00663
1.00858
1.01071
1.01336
1.01537
1.05925
1.02079
1.02104
1.02132
1.02164
1.02198
1.0224
1.02272
1.24841
1.761
1.80885
1.02081
1.02107
1.02135
1.02167
1.02201
1.02244
1.02276
1.2603
1.76588
1.80897
1.02083
1.0211
1.02139
1.02171
1.02206
1.0225
1.02283
1.28891
1.77612
1.80862
1.02088
1.02115
1.02145
1.02179
1.02215
1.02261
1.02296
1.32929
1.78921
1.80807
1.02095
1.02123
1.02154
1.0219
1.02227
1.02278
1.02313
1.37956
1.80224
1.80768
1.02106
1.02135
1.02168
1.02205
1.02246
1.02301
1.02337
1.43745
1.81213
1.80822
1.0212
1.02151
1.02187
1.02228
1.02274
1.02334
1.02367
1.5022
1.81876
1.80644
1.02142
1.02177
1.02216
1.02262
1.02316
1.02376
1.02411
1.5724
1.81863
1.80541
1.02176
1.02214
1.02259
1.0231
1.02376
1.02432
1.02713
1.63294
1.81752
1.80616
1.02223
1.02265
1.02319
1.02381
1.02466
1.0253
1.05927
1.68147
1.8162
1.80463
1.02295
1.0235
1.02418
1.02496
1.02602
1.02675
1.19193
1.73519
1.80889
1.79764
1.02412
1.02479
1.02565
1.02659
1.02787
1.02864
1.34226
1.78939
1.80443
1.79143
1.02577
1.02657
1.02765
1.02874
1.03038
1.03119
1.48941
1.81046
1.79836
1.78334
1.02807
1.02911
1.03038
1.03196
1.03349
1.03897
1.61794
1.80829
1.78758
1.77261
1.03129
1.03264
1.03419
1.0366
1.03838
1.10482
1.70414
1.79246
1.77039
1.74724
1.03592
1.03779
1.03999
1.04371
1.04591
1.31385
1.75603
1.76553
1.74429
1.71151
1.04272
1.04553
1.04927
1.05379
1.05904
1.49397
1.76893
1.74095
1.70919
1.67571
1.05289
1.05712
1.06328
1.06821
1.11653
1.61331
1.71909
1.69733
1.67019
1.64081
1.06886
1.07482
1.08153
1.09985
1.33061
1.65499
1.65932
1.65232
1.63783
1.61786
1.0899
1.09789
1.10963
1.2425
1.53231
1.62622
1.62369
1.62247
1.61991
1.61049
)
;

boundaryField
{
    inlet
    {
        type            fixedValue;
        value           uniform 1;
    }
    outlet
    {
        type            inletOutlet;
        inletValue      uniform 1;
        value           nonuniform List<scalar> 
100
(
1.41661
1.40736
1.39786
1.38888
1.38044
1.36939
1.35599
1.34319
1.32939
1.31187
1.29027
1.26718
1.24675
1.22878
1.2135
1.1995
1.18821
1.17888
1.17362
1.16951
1.56092
1.52633
1.49976
1.48286
1.47219
1.46517
1.46107
1.45823
1.45587
1.45321
1.45032
1.44718
1.44404
1.4406
1.43751
1.43464
1.43208
1.42968
1.42689
1.42323
1.51331
1.52901
1.54832
1.56973
1.59157
1.61274
1.63309
1.65136
1.66891
1.6841
1.69482
1.7017
1.70218
1.70315
1.69924
1.69017
1.67641
1.65646
1.62932
1.5976
1.42857
1.43301
1.43683
1.44017
1.44231
1.44405
1.44526
1.44676
1.44864
1.45076
1.45322
1.45575
1.45832
1.46086
1.46358
1.46707
1.47143
1.47735
1.48663
1.49947
1.17676
1.18035
1.18415
1.19072
1.19995
1.21148
1.224
1.23859
1.25535
1.27436
1.29589
1.31802
1.33763
1.35444
1.37119
1.38605
1.39683
1.4047
1.41298
1.42172
)
;
    }
    triangle
    {
        type            zeroGradient;
    }
    top
    {
        type            symmetryPlane;
    }
    bottom
    {
        type            symmetryPlane;
    }
    defaultFaces
    {
        type            empty;
    }
}


// ************************************************************************* //
