/*--------------------------------*- C++ -*----------------------------------*\
  =========                 |
  \\      /  F ield         | OpenFOAM: The Open Source CFD Toolbox
   \\    /   O peration     | Website:  https://openfoam.org
    \\  /    A nd           | Version:  8
     \\/     M anipulation  |
\*---------------------------------------------------------------------------*/
FoamFile
{
    version     2.0;
    format      ascii;
    class       volVectorField;
    location    "4.3";
    object      U;
}
// * * * * * * * * * * * * * * * * * * * * * * * * * * * * * * * * * * * * * //

dimensions      [0 1 -1 0 0 0 0];

internalField   nonuniform List<vector> 
2600
(
(0.61027 -0.0862752 0)
(1.25112 0.00717299 0)
(1.74355 0.449825 0)
(1.86334 0.581209 0)
(1.35385 0.267049 0)
(1.21369 0.0184645 0)
(1.26445 -0.0833001 0)
(1.47699 0.0609839 0)
(1.49802 0.0985318 0)
(1.47001 0.0542534 0)
(0.169366 -0.206884 0)
(0.771831 -0.0433866 0)
(1.52614 0.401575 0)
(1.83871 0.565533 0)
(1.32265 0.262708 0)
(1.10572 0.0205628 0)
(1.09424 -0.0866598 0)
(1.38939 0.0461205 0)
(1.46972 0.1042 0)
(1.44357 0.0585107 0)
(0.0256855 -0.232996 0)
(0.432116 -0.12507 0)
(1.2546 0.3088 0)
(1.8081 0.51931 0)
(1.27017 0.265619 0)
(0.950438 0.0374481 0)
(0.888071 -0.098699 0)
(1.26725 0.0255586 0)
(1.43266 0.106502 0)
(1.41248 0.0614362 0)
(-0.0299609 -0.271376 0)
(0.218329 -0.179109 0)
(0.972005 0.208022 0)
(1.72954 0.480306 0)
(1.18623 0.276458 0)
(0.758883 0.0484411 0)
(0.69462 -0.0961879 0)
(1.13374 -0.00767473 0)
(1.38713 0.103391 0)
(1.37632 0.0637277 0)
(-0.0941712 -0.284515 0)
(0.0661948 -0.233082 0)
(0.715662 0.0965512 0)
(1.59269 0.432702 0)
(1.06307 0.303678 0)
(0.562134 0.0795253 0)
(0.553895 -0.106393 0)
(1.01401 -0.0385287 0)
(1.33489 0.0987481 0)
(1.33497 0.0668417 0)
(-0.156197 -0.288163 0)
(-0.0782145 -0.263584 0)
(0.470911 0.0174781 0)
(1.38171 0.39263 0)
(0.891189 0.342788 0)
(0.389822 0.0940546 0)
(0.475163 -0.112258 0)
(0.918168 -0.0776022 0)
(1.27674 0.0899412 0)
(1.28791 0.0687562 0)
(-0.209811 -0.273176 0)
(-0.218313 -0.280738 0)
(0.228404 -0.102296 0)
(1.08191 0.352347 0)
(0.674807 0.386322 0)
(0.26842 0.117063 0)
(0.452641 -0.144796 0)
(0.831625 -0.102755 0)
(1.212 0.0808567 0)
(1.23494 0.073105 0)
(-0.253844 -0.251413 0)
(-0.344785 -0.282667 0)
(-0.0636929 -0.134899 0)
(0.702653 0.335184 0)
(0.428866 0.439166 0)
(0.208422 0.124583 0)
(0.478425 -0.179763 0)
(0.766789 -0.129908 0)
(1.14072 0.0703809 0)
(1.17838 0.0721142 0)
(-0.281501 -0.215151 0)
(-0.437935 -0.285838 0)
(-0.340785 -0.20655 0)
(0.308824 0.301528 0)
(0.170968 0.441843 0)
(0.202906 0.110895 0)
(0.559803 -0.197878 0)
(0.732616 -0.143118 0)
(1.06246 0.0575658 0)
(1.12642 0.0757858 0)
(-0.29279 -0.172705 0)
(-0.494083 -0.281412 0)
(-0.549356 -0.205393 0)
(-0.041299 0.302955 0)
(-0.027514 0.471721 0)
(0.261841 0.085057 0)
(0.676992 -0.223747 0)
(0.727975 -0.155665 0)
(0.980927 0.0534125 0)
(1.08798 0.0742564 0)
(-0.279798 -0.126871 0)
(-0.524025 -0.266863 0)
(-0.647757 -0.206791 0)
(-0.304503 0.265728 0)
(-0.108049 0.463243 0)
(0.41405 0.0424338 0)
(0.8049 -0.232672 0)
(0.744963 -0.165385 0)
(0.917159 0.0351836 0)
(1.06466 0.0737985 0)
(-0.271794 -0.0821733 0)
(-0.52549 -0.239044 0)
(-0.668533 -0.187932 0)
(-0.452127 0.247044 0)
(-0.105928 0.438564 0)
(0.620408 -0.00223934 0)
(0.924219 -0.241243 0)
(0.788287 -0.154768 0)
(0.887241 0.031682 0)
(1.05489 0.0765991 0)
(-0.270708 -0.0354281 0)
(-0.49951 -0.211177 0)
(-0.648262 -0.163494 0)
(-0.481603 0.21109 0)
(-0.0565855 0.389721 0)
(0.830415 -0.0557903 0)
(1.02932 -0.242775 0)
(0.852183 -0.154077 0)
(0.885977 0.0257723 0)
(1.05404 0.0706209 0)
(-0.254694 0.00678062 0)
(-0.442213 -0.18279 0)
(-0.58867 -0.145907 0)
(-0.450099 0.173691 0)
(0.0670847 0.326638 0)
(1.0302 -0.108496 0)
(1.11809 -0.238958 0)
(0.926417 -0.143592 0)
(0.897715 0.0223641 0)
(1.06166 0.0635987 0)
(-0.254114 0.0513984 0)
(-0.349111 -0.151374 0)
(-0.465767 -0.133028 0)
(-0.344402 0.152251 0)
(0.284649 0.24056 0)
(1.21512 -0.155327 0)
(1.19093 -0.236191 0)
(1.00219 -0.130106 0)
(0.926211 0.0282168 0)
(1.09296 0.0607168 0)
(-0.222204 0.0871043 0)
(-0.214269 -0.123568 0)
(-0.265803 -0.116676 0)
(-0.137319 0.114269 0)
(0.594467 0.148922 0)
(1.37338 -0.181955 0)
(1.24873 -0.229571 0)
(1.0748 -0.121058 0)
(0.975367 0.026148 0)
(1.15011 0.058235 0)
(-0.1583 0.118219 0)
(-0.0169055 -0.111194 0)
(0.0312674 -0.111473 0)
(0.177691 0.0791665 0)
(0.945489 0.062199 0)
(1.49235 -0.193128 0)
(1.2933 -0.220871 0)
(1.13984 -0.105928 0)
(1.04566 0.035251 0)
(1.22545 0.0524647 0)
(-0.0360613 0.114796 0)
(0.300951 -0.118404 0)
(0.429265 -0.109767 0)
(0.574504 0.0414294 0)
(1.26119 -0.0338455 0)
(1.56912 -0.213575 0)
(1.32699 -0.206781 0)
(1.1962 -0.09417 0)
(1.13145 0.0335265 0)
(1.30843 0.047398 0)
(0.233621 0.125507 0)
(0.776385 -0.149521 0)
(0.884544 -0.122302 0)
(0.989406 0.00604909 0)
(1.49821 -0.108283 0)
(1.61551 -0.225356 0)
(1.35084 -0.19144 0)
(1.24186 -0.0817011 0)
(1.21955 0.0370391 0)
(1.38677 0.0413663 0)
(0.821812 -0.0410892 0)
(1.28392 -0.167226 0)
(1.28839 -0.122277 0)
(1.34036 -0.0241138 0)
(1.64553 -0.15881 0)
(1.63994 -0.230373 0)
(1.36745 -0.179776 0)
(1.27802 -0.0735047 0)
(1.29704 0.0412331 0)
(1.44933 0.0380732 0)
(1.52308 0.00946058 0)
(1.63903 -0.172175 0)
(1.56998 -0.136671 0)
(1.58356 -0.06242 0)
(1.72549 -0.220169 0)
(1.65066 -0.243856 0)
(1.38231 -0.174282 0)
(1.30866 -0.0676795 0)
(1.36195 0.0392889 0)
(1.49607 0.0303083 0)
(1.65886 0.200316 0)
(1.80262 -0.145829 0)
(1.7132 -0.143002 0)
(1.70858 -0.0781347 0)
(1.77014 -0.252314 0)
(1.66024 -0.247064 0)
(1.39789 -0.169115 0)
(1.33556 -0.0652121 0)
(1.41312 0.0426619 0)
(1.53059 0.0305608 0)
(1.66545 0.222897 0)
(1.83843 -0.123745 0)
(1.75542 -0.160371 0)
(1.74959 -0.125259 0)
(1.785 -0.26039 0)
(1.66836 -0.240221 0)
(1.41189 -0.166456 0)
(1.35772 -0.0653979 0)
(1.45088 0.0369819 0)
(1.55428 0.0236845 0)
(1.61479 0.275275 0)
(1.82071 -0.086022 0)
(1.76022 -0.163483 0)
(1.76488 -0.173547 0)
(1.79253 -0.276844 0)
(1.67598 -0.245121 0)
(1.42449 -0.167396 0)
(1.37714 -0.0599613 0)
(1.4807 0.0382823 0)
(1.57399 0.0248819 0)
(1.58129 0.284551 0)
(1.77923 -0.0471336 0)
(1.75415 -0.175386 0)
(1.77125 -0.210542 0)
(1.7913 -0.306144 0)
(1.68623 -0.254427 0)
(1.43706 -0.173902 0)
(1.3966 -0.0635116 0)
(1.50327 0.0297889 0)
(1.59007 0.0186921 0)
(1.54479 0.304717 0)
(1.74295 -0.0258384 0)
(1.74398 -0.175082 0)
(1.7793 -0.225632 0)
(1.79283 -0.333071 0)
(1.70107 -0.273215 0)
(1.44749 -0.185224 0)
(1.42017 -0.06842 0)
(1.52371 0.0219678 0)
(1.60552 0.0158354 0)
(1.51705 0.309696 0)
(1.71018 0.000124092 0)
(1.72755 -0.175572 0)
(1.77281 -0.242088 0)
(1.7929 -0.365375 0)
(1.71403 -0.310172 0)
(1.46084 -0.202465 0)
(1.44725 -0.079649 0)
(1.54407 0.0119917 0)
(1.6212 0.0116396 0)
(1.48955 0.316814 0)
(1.6754 0.0213998 0)
(1.71191 -0.163266 0)
(1.77159 -0.248955 0)
(1.79329 -0.386932 0)
(1.72335 -0.350603 0)
(1.47633 -0.223971 0)
(1.47484 -0.0916296 0)
(1.5656 0.00286384 0)
(1.63759 0.00933946 0)
(1.4644 0.318317 0)
(1.64003 0.0414036 0)
(1.69557 -0.154174 0)
(1.76337 -0.256715 0)
(1.78938 -0.392786 0)
(1.73159 -0.373808 0)
(1.49153 -0.239484 0)
(1.4959 -0.104071 0)
(1.58531 -0.00695684 0)
(1.65248 0.00729744 0)
(1.43846 0.319462 0)
(1.60979 0.0572918 0)
(1.67595 -0.139869 0)
(1.75378 -0.255397 0)
(1.78447 -0.389404 0)
(1.73832 -0.383617 0)
(1.50777 -0.247595 0)
(1.50968 -0.114986 0)
(1.60059 -0.0166755 0)
(1.665 0.00566548 0)
(1.41226 0.317882 0)
(1.58296 0.0729171 0)
(1.65688 -0.129566 0)
(1.74133 -0.257041 0)
(1.77936 -0.389057 0)
(1.74298 -0.391759 0)
(1.52644 -0.251568 0)
(1.51779 -0.123655 0)
(1.61087 -0.0255063 0)
(1.67479 0.00503838 0)
(1.38631 0.315035 0)
(1.55736 0.0847619 0)
(1.63697 -0.11593 0)
(1.73084 -0.253162 0)
(1.77324 -0.390669 0)
(1.74444 -0.401831 0)
(1.54957 -0.257031 0)
(1.51988 -0.13046 0)
(1.61681 -0.0334226 0)
(1.68202 0.00473372 0)
(1.3617 0.310273 0)
(1.53008 0.0963654 0)
(1.61932 -0.105763 0)
(1.71969 -0.252965 0)
(1.76327 -0.3934 0)
(1.746 -0.418559 0)
(1.57875 -0.266403 0)
(1.51837 -0.135004 0)
(1.61964 -0.0408109 0)
(1.68752 0.00537891 0)
(1.33918 0.304455 0)
(1.50356 0.104158 0)
(1.60136 -0.0916267 0)
(1.70727 -0.246297 0)
(1.75149 -0.394004 0)
(1.74424 -0.436446 0)
(1.61237 -0.282325 0)
(1.5169 -0.140073 0)
(1.62091 -0.0475798 0)
(1.69179 0.00597525 0)
(1.31979 0.298162 0)
(1.47714 0.112923 0)
(1.58517 -0.0794534 0)
(1.69261 -0.241562 0)
(1.74157 -0.391727 0)
(1.74193 -0.446254 0)
(1.64126 -0.303589 0)
(1.51244 -0.144905 0)
(1.6204 -0.0537234 0)
(1.69388 0.00580584 0)
(1.3049 0.292921 0)
(1.45406 0.119792 0)
(1.56894 -0.0643103 0)
(1.67404 -0.227502 0)
(1.73671 -0.382192 0)
(1.73307 -0.448601 0)
(1.65951 -0.324189 0)
(1.51019 -0.15216 0)
(1.61906 -0.059381 0)
(1.69399 0.00633644 0)
(1.29697 0.291212 0)
(1.43424 0.128764 0)
(1.55341 -0.0491929 0)
(1.65712 -0.217257 0)
(1.7349 -0.37266 0)
(1.72157 -0.444002 0)
(1.67258 -0.343453 0)
(1.51264 -0.160481 0)
(1.61676 -0.0645672 0)
(1.69304 0.00640039 0)
(1.29996 0.293942 0)
(1.42072 0.137079 0)
(1.5397 -0.0340892 0)
(1.64025 -0.199279 0)
(1.72698 -0.352761 0)
(1.71681 -0.435805 0)
(1.68117 -0.356718 0)
(1.52474 -0.172565 0)
(1.61497 -0.0702115 0)
(1.69208 0.00729524 0)
(1.3192 0.304073 0)
(1.41551 0.147768 0)
(1.52971 -0.019122 0)
(1.62861 -0.183944 0)
(1.71823 -0.337687 0)
(1.71499 -0.428569 0)
(1.68815 -0.364982 0)
(1.54305 -0.185048 0)
(1.6148 -0.0758451 0)
(1.69114 0.00777862 0)
(1.35855 0.313204 0)
(1.42438 0.15847 0)
(1.5278 -0.00510773 0)
(1.62237 -0.166011 0)
(1.71028 -0.317104 0)
(1.7111 -0.41831 0)
(1.69433 -0.370028 0)
(1.57188 -0.198579 0)
(1.62057 -0.0823212 0)
(1.69027 0.00822313 0)
(0.498198 0.172733 0)
(0.582304 0.216022 0)
(0.634662 0.283937 0)
(0.689929 0.336152 0)
(0.738199 0.379053 0)
(0.785584 0.414129 0)
(0.835512 0.446665 0)
(0.895116 0.479143 0)
(0.975592 0.520268 0)
(1.12174 0.557624 0)
(0.534483 0.211169 0)
(0.593174 0.242292 0)
(0.628549 0.296683 0)
(0.67929 0.342385 0)
(0.727126 0.383684 0)
(0.776781 0.418584 0)
(0.829278 0.451727 0)
(0.89099 0.485196 0)
(0.975755 0.526655 0)
(1.12276 0.559598 0)
(0.602948 0.212817 0)
(0.642329 0.234722 0)
(0.662363 0.276366 0)
(0.701769 0.317338 0)
(0.740868 0.359376 0)
(0.786971 0.397155 0)
(0.838564 0.434072 0)
(0.901205 0.470385 0)
(0.990178 0.50936 0)
(1.14329 0.5305 0)
(0.671108 0.241207 0)
(0.698337 0.262672 0)
(0.710855 0.29676 0)
(0.743123 0.327309 0)
(0.773303 0.361853 0)
(0.813835 0.395108 0)
(0.86093 0.42925 0)
(0.921328 0.461946 0)
(1.01155 0.499706 0)
(1.15805 0.505515 0)
(0.732673 0.255432 0)
(0.753241 0.274458 0)
(0.764762 0.304726 0)
(0.792511 0.33348 0)
(0.8155 0.366001 0)
(0.850282 0.396686 0)
(0.89134 0.428656 0)
(0.948098 0.456357 0)
(1.03368 0.487267 0)
(1.1786 0.492278 0)
(0.785954 0.269228 0)
(0.797819 0.291432 0)
(0.809753 0.321361 0)
(0.8335 0.349526 0)
(0.853455 0.379445 0)
(0.885366 0.406205 0)
(0.922943 0.43365 0)
(0.976736 0.456107 0)
(1.05713 0.478955 0)
(1.19182 0.478845 0)
(0.839182 0.281947 0)
(0.836148 0.305022 0)
(0.850954 0.331744 0)
(0.869776 0.35785 0)
(0.888104 0.385108 0)
(0.917031 0.409732 0)
(0.95152 0.434274 0)
(1.00262 0.453099 0)
(1.07733 0.46929 0)
(1.19889 0.465263 0)
(0.887355 0.302685 0)
(0.870054 0.325132 0)
(0.888871 0.346579 0)
(0.901018 0.36979 0)
(0.917866 0.393812 0)
(0.942967 0.414872 0)
(0.974852 0.435981 0)
(1.02352 0.450589 0)
(1.0929 0.460585 0)
(1.20224 0.453509 0)
(0.932682 0.325001 0)
(0.907662 0.34379 0)
(0.925573 0.362187 0)
(0.931823 0.381423 0)
(0.945398 0.401432 0)
(0.965302 0.419095 0)
(0.994298 0.434062 0)
(1.03948 0.444197 0)
(1.10331 0.449292 0)
(1.20164 0.440381 0)
(0.981343 0.350884 0)
(0.947827 0.365968 0)
(0.95809 0.382042 0)
(0.961115 0.396562 0)
(0.969376 0.411361 0)
(0.984801 0.423133 0)
(1.01021 0.431872 0)
(1.05184 0.437842 0)
(1.11102 0.439423 0)
(1.20018 0.429803 0)
(1.03918 0.383482 0)
(0.992191 0.397211 0)
(0.99065 0.403115 0)
(0.988744 0.414748 0)
(0.990892 0.4223 0)
(1.00122 0.424947 0)
(1.02396 0.428552 0)
(1.06247 0.430339 0)
(1.11707 0.429095 0)
(1.19726 0.418596 0)
(1.12013 0.427628 0)
(1.04309 0.436618 0)
(1.0313 0.433735 0)
(1.01776 0.436759 0)
(1.0154 0.430362 0)
(1.01925 0.426131 0)
(1.03853 0.424571 0)
(1.07349 0.424594 0)
(1.12307 0.42208 0)
(1.19458 0.410298 0)
(1.24276 0.491816 0)
(1.11244 0.488218 0)
(1.08784 0.474817 0)
(1.06334 0.458003 0)
(1.05074 0.443202 0)
(1.04758 0.433477 0)
(1.05966 0.427641 0)
(1.08733 0.423094 0)
(1.12939 0.416318 0)
(1.19163 0.401438 0)
(1.44882 0.536383 0)
(1.20261 0.547443 0)
(1.16161 0.5203 0)
(1.13066 0.495177 0)
(1.10694 0.470673 0)
(1.09326 0.452415 0)
(1.09331 0.439384 0)
(1.10778 0.428622 0)
(1.13844 0.415248 0)
(1.19008 0.395263 0)
(1.69487 0.50816 0)
(1.34469 0.598618 0)
(1.23675 0.561316 0)
(1.21018 0.537656 0)
(1.17779 0.514047 0)
(1.15323 0.490085 0)
(1.14009 0.466174 0)
(1.13975 0.443188 0)
(1.15515 0.41865 0)
(1.19267 0.390683 0)
(1.9076 0.430843 0)
(1.59694 0.582241 0)
(1.29071 0.603751 0)
(1.2684 0.591434 0)
(1.24613 0.566535 0)
(1.22434 0.533296 0)
(1.20374 0.497738 0)
(1.18557 0.466645 0)
(1.18282 0.431441 0)
(1.20252 0.392784 0)
(2.04085 0.346607 0)
(1.8844 0.471258 0)
(1.4096 0.62788 0)
(1.3207 0.602775 0)
(1.31011 0.587327 0)
(1.29202 0.565463 0)
(1.26544 0.536856 0)
(1.23897 0.497832 0)
(1.22338 0.449828 0)
(1.22421 0.400059 0)
(2.12257 0.275066 0)
(2.0687 0.330481 0)
(1.63258 0.570214 0)
(1.34201 0.621533 0)
(1.33078 0.617786 0)
(1.32472 0.60273 0)
(1.31117 0.57429 0)
(1.29129 0.529784 0)
(1.27231 0.474283 0)
(1.2601 0.413938 0)
(2.1798 0.214134 0)
(2.15279 0.243772 0)
(1.95139 0.421435 0)
(1.42414 0.633411 0)
(1.33811 0.618303 0)
(1.34299 0.606698 0)
(1.34588 0.582845 0)
(1.33816 0.5419 0)
(1.32214 0.493401 0)
(1.30783 0.434006 0)
(2.21844 0.166338 0)
(2.19921 0.190013 0)
(2.1583 0.242854 0)
(1.64604 0.563245 0)
(1.3596 0.624715 0)
(1.34352 0.601491 0)
(1.35515 0.580585 0)
(1.3568 0.551696 0)
(1.35815 0.507369 0)
(1.35983 0.445473 0)
(2.45794 8.72996e-08 0)
(2.45011 -2.95703e-07 0)
(2.44157 4.30575e-07 0)
(2.43222 -1.62414e-07 0)
(2.42199 -1.03854e-06 0)
(2.41073 3.57876e-06 0)
(2.39863 -3.6406e-06 0)
(2.38383 2.51464e-06 0)
(2.37382 2.12992e-06 0)
(1.02896 0.0307352 0)
(2.45794 2.3045e-07 0)
(2.45011 -7.56175e-07 0)
(2.44157 1.0709e-06 0)
(2.43222 -4.382e-08 0)
(2.42199 -3.68269e-06 0)
(2.41073 1.11248e-05 0)
(2.39863 -1.40693e-05 0)
(2.38382 7.72819e-06 0)
(2.37383 -1.12313e-06 0)
(1.06764 0.0965214 0)
(2.45794 3.70353e-07 0)
(2.45011 -1.18787e-06 0)
(2.44157 1.61477e-06 0)
(2.43222 2.84628e-07 0)
(2.42199 -6.52643e-06 0)
(2.41073 1.90686e-05 0)
(2.39864 -2.66342e-05 0)
(2.38382 1.76261e-05 0)
(2.37384 -1.08585e-05 0)
(1.13418 0.144569 0)
(2.45794 4.99389e-07 0)
(2.45011 -1.55172e-06 0)
(2.44157 1.99163e-06 0)
(2.43222 8.88489e-07 0)
(2.42199 -1.02597e-05 0)
(2.41073 2.87079e-05 0)
(2.39865 -4.36238e-05 0)
(2.38382 3.43718e-05 0)
(2.37387 -2.26601e-05 0)
(1.20422 0.188073 0)
(2.45794 6.13404e-07 0)
(2.45011 -1.83581e-06 0)
(2.44156 2.18775e-06 0)
(2.43222 1.7473e-06 0)
(2.422 -1.4655e-05 0)
(2.41073 3.85672e-05 0)
(2.39866 -6.36837e-05 0)
(2.38383 5.47746e-05 0)
(2.37392 -4.87352e-05 0)
(1.27583 0.222324 0)
(2.45794 7.0855e-07 0)
(2.45011 -2.0361e-06 0)
(2.44156 2.21492e-06 0)
(2.43222 2.87501e-06 0)
(2.422 -1.90049e-05 0)
(2.41073 4.84434e-05 0)
(2.39867 -8.31201e-05 0)
(2.38384 7.50235e-05 0)
(2.37396 -7.46396e-05 0)
(1.34661 0.252472 0)
(2.45794 7.8166e-07 0)
(2.45011 -2.14986e-06 0)
(2.44156 2.08608e-06 0)
(2.43222 4.12568e-06 0)
(2.422 -2.29783e-05 0)
(2.41073 5.69658e-05 0)
(2.39867 -9.91498e-05 0)
(2.38385 9.52299e-05 0)
(2.37394 -0.000162175 0)
(1.41954 0.276688 0)
(2.45794 8.30776e-07 0)
(2.45011 -2.17316e-06 0)
(2.44156 1.81302e-06 0)
(2.43222 5.37844e-06 0)
(2.422 -2.64329e-05 0)
(2.41074 6.36295e-05 0)
(2.39868 -0.000111236 0)
(2.38386 0.000111943 0)
(2.37387 -0.00022552 0)
(1.49607 0.295431 0)
(2.45794 8.56682e-07 0)
(2.45011 -2.12226e-06 0)
(2.44156 1.46789e-06 0)
(2.43222 6.51888e-06 0)
(2.422 -2.91854e-05 0)
(2.41074 6.82842e-05 0)
(2.39868 -0.000119601 0)
(2.38387 0.00012633 0)
(2.37377 -0.000257954 0)
(1.57644 0.310117 0)
(2.45794 8.6016e-07 0)
(2.45011 -2.01041e-06 0)
(2.44156 1.06675e-06 0)
(2.43222 7.50886e-06 0)
(2.422 -3.13999e-05 0)
(2.41074 7.09564e-05 0)
(2.39868 -0.000124238 0)
(2.38388 0.000138677 0)
(2.37369 -0.000302492 0)
(1.6616 0.319823 0)
(2.45794 8.41533e-07 0)
(2.45011 -1.84991e-06 0)
(2.44156 6.25855e-07 0)
(2.43222 8.34563e-06 0)
(2.422 -3.31603e-05 0)
(2.41074 7.24733e-05 0)
(2.39868 -0.000126884 0)
(2.38389 0.000148937 0)
(2.37361 -0.000321424 0)
(1.75309 0.324863 0)
(2.45794 8.01564e-07 0)
(2.45011 -1.64543e-06 0)
(2.44156 1.51961e-07 0)
(2.43222 9.04195e-06 0)
(2.422 -3.45501e-05 0)
(2.41074 7.27839e-05 0)
(2.39868 -0.00012851 0)
(2.38389 0.000159405 0)
(2.37354 -0.000335885 0)
(1.85323 0.324041 0)
(2.45794 7.40705e-07 0)
(2.45011 -1.39439e-06 0)
(2.44156 -3.77323e-07 0)
(2.43222 9.60041e-06 0)
(2.422 -3.55785e-05 0)
(2.41074 7.21892e-05 0)
(2.39868 -0.000130358 0)
(2.3839 0.000170998 0)
(2.37346 -0.000343888 0)
(1.95983 0.311242 0)
(2.45794 6.59768e-07 0)
(2.45011 -1.10088e-06 0)
(2.44156 -9.68828e-07 0)
(2.43222 1.00993e-05 0)
(2.422 -3.61477e-05 0)
(2.41074 7.15034e-05 0)
(2.39868 -0.000131601 0)
(2.38391 0.000181223 0)
(2.37339 -0.000343753 0)
(2.05143 0.281421 0)
(2.45793 5.5876e-07 0)
(2.45011 -7.6253e-07 0)
(2.44156 -1.65073e-06 0)
(2.43223 1.06356e-05 0)
(2.422 -3.65525e-05 0)
(2.41074 7.11554e-05 0)
(2.39868 -0.000132725 0)
(2.38392 0.000192442 0)
(2.37334 -0.000343106 0)
(2.12219 0.247464 0)
(2.45793 4.3844e-07 0)
(2.45011 -3.83288e-07 0)
(2.44156 -2.40753e-06 0)
(2.43223 1.12851e-05 0)
(2.422 -3.71786e-05 0)
(2.41074 7.13578e-05 0)
(2.39868 -0.000134018 0)
(2.38393 0.000202662 0)
(2.3733 -0.000339907 0)
(2.17016 0.216396 0)
(2.45793 2.9909e-07 0)
(2.45011 4.21248e-08 0)
(2.44156 -3.27698e-06 0)
(2.43223 1.21192e-05 0)
(2.422 -3.76188e-05 0)
(2.41074 7.18607e-05 0)
(2.39868 -0.000135025 0)
(2.38394 0.000212313 0)
(2.37327 -0.000333784 0)
(2.20776 0.182329 0)
(2.45793 1.43179e-07 0)
(2.45011 5.06983e-07 0)
(2.44156 -4.25244e-06 0)
(2.43223 1.32049e-05 0)
(2.422 -3.84022e-05 0)
(2.41074 7.26524e-05 0)
(2.39867 -0.000134872 0)
(2.38395 0.00021981 0)
(2.37324 -0.000329807 0)
(2.23904 0.150512 0)
(2.45793 -2.62072e-08 0)
(2.45011 1.02575e-06 0)
(2.44156 -5.35181e-06 0)
(2.43223 1.43323e-05 0)
(2.422 -3.92922e-05 0)
(2.41074 7.34096e-05 0)
(2.39867 -0.000135187 0)
(2.38396 0.000227506 0)
(2.37321 -0.000329681 0)
(2.26061 0.125559 0)
(2.45793 -2.02061e-07 0)
(2.45011 1.57008e-06 0)
(2.44156 -6.4898e-06 0)
(2.43223 1.56595e-05 0)
(2.422 -4.01475e-05 0)
(2.41074 7.42382e-05 0)
(2.39867 -0.000135105 0)
(2.38398 0.000233694 0)
(2.37317 -0.000332932 0)
(2.27736 0.101559 0)
(2.45793 2.02463e-07 0)
(2.45011 -1.57212e-06 0)
(2.44156 6.49508e-06 0)
(2.43223 -1.56657e-05 0)
(2.422 4.01517e-05 0)
(2.41074 -7.42338e-05 0)
(2.39867 0.000135101 0)
(2.38398 -0.000233651 0)
(2.37317 0.00033309 0)
(2.27724 -0.101814 0)
(2.45793 2.67619e-08 0)
(2.45011 -1.0281e-06 0)
(2.44156 5.35817e-06 0)
(2.43223 -1.43421e-05 0)
(2.422 3.93002e-05 0)
(2.41074 -7.34053e-05 0)
(2.39867 0.000135173 0)
(2.38396 -0.000227428 0)
(2.37321 0.000329874 0)
(2.26049 -0.12582 0)
(2.45793 -1.42347e-07 0)
(2.45011 -5.10646e-07 0)
(2.44156 4.2624e-06 0)
(2.43223 -1.3221e-05 0)
(2.422 3.84114e-05 0)
(2.41074 -7.26447e-05 0)
(2.39867 0.000134851 0)
(2.38395 -0.000219708 0)
(2.37324 0.000329987 0)
(2.23886 -0.150811 0)
(2.45793 -2.97892e-07 0)
(2.45011 -4.71876e-08 0)
(2.44156 3.29052e-06 0)
(2.43223 -1.21375e-05 0)
(2.422 3.76379e-05 0)
(2.41074 -7.18565e-05 0)
(2.39868 0.000135 0)
(2.38394 -0.00021221 0)
(2.37327 0.000333983 0)
(2.20747 -0.182696 0)
(2.45793 -4.36806e-07 0)
(2.45011 3.7657e-07 0)
(2.44156 2.42566e-06 0)
(2.43223 -1.13126e-05 0)
(2.422 3.72002e-05 0)
(2.41074 -7.13425e-05 0)
(2.39868 0.00013398 0)
(2.38393 -0.000202558 0)
(2.3733 0.000340086 0)
(2.16976 -0.216715 0)
(2.45793 -5.56707e-07 0)
(2.45011 7.54346e-07 0)
(2.44156 1.67181e-06 0)
(2.43223 -1.06662e-05 0)
(2.422 3.6574e-05 0)
(2.41074 -7.11377e-05 0)
(2.39868 0.000132689 0)
(2.38392 -0.000192342 0)
(2.37334 0.000343156 0)
(2.12157 -0.24776 0)
(2.45794 -6.57382e-07 0)
(2.45011 1.09168e-06 0)
(2.44156 9.91268e-07 0)
(2.43222 -1.01291e-05 0)
(2.422 3.61635e-05 0)
(2.41074 -7.14866e-05 0)
(2.39868 0.000131559 0)
(2.38391 -0.000181117 0)
(2.37339 0.000343955 0)
(2.05055 -0.281678 0)
(2.45794 -7.38103e-07 0)
(2.45011 1.38475e-06 0)
(2.44156 3.99044e-07 0)
(2.43222 -9.62606e-06 0)
(2.422 3.55849e-05 0)
(2.41074 -7.21768e-05 0)
(2.39868 0.000130341 0)
(2.3839 -0.000170891 0)
(2.37346 0.000343868 0)
(1.95885 -0.311307 0)
(2.45794 -7.98837e-07 0)
(2.45011 1.63572e-06 0)
(2.44156 -1.31659e-07 0)
(2.43222 -9.06351e-06 0)
(2.422 3.45504e-05 0)
(2.41074 -7.27712e-05 0)
(2.39868 0.000128509 0)
(2.38389 -0.000159358 0)
(2.37354 0.000335901 0)
(1.85237 -0.323886 0)
(2.45794 -8.3875e-07 0)
(2.45011 1.84029e-06 0)
(2.44156 -6.06869e-07 0)
(2.43222 -8.36482e-06 0)
(2.422 3.31634e-05 0)
(2.41074 -7.24702e-05 0)
(2.39868 0.000126911 0)
(2.38389 -0.000148984 0)
(2.37362 0.000321246 0)
(1.75246 -0.324696 0)
(2.45794 -8.57393e-07 0)
(2.45011 2.00124e-06 0)
(2.44156 -1.05003e-06 0)
(2.43222 -7.52519e-06 0)
(2.422 3.1407e-05 0)
(2.41074 -7.09652e-05 0)
(2.39868 0.000124314 0)
(2.38388 -0.00013895 0)
(2.37369 0.000302039 0)
(1.66116 -0.31959 0)
(2.45794 -8.53951e-07 0)
(2.45011 2.1137e-06 0)
(2.44156 -1.45384e-06 0)
(2.43222 -6.53305e-06 0)
(2.422 2.92028e-05 0)
(2.41074 -6.82589e-05 0)
(2.39868 0.000119532 0)
(2.38387 -0.000126665 0)
(2.37377 0.000257333 0)
(1.57613 -0.309869 0)
(2.45794 -8.27956e-07 0)
(2.45011 2.16446e-06 0)
(2.44156 -1.79996e-06 0)
(2.43222 -5.39307e-06 0)
(2.422 2.64549e-05 0)
(2.41074 -6.35265e-05 0)
(2.39868 0.000110664 0)
(2.38386 -0.000112219 0)
(2.37387 0.000225514 0)
(1.49587 -0.295185 0)
(2.45794 -7.78619e-07 0)
(2.45011 2.14011e-06 0)
(2.44156 -2.07004e-06 0)
(2.43222 -4.14452e-06 0)
(2.422 2.29917e-05 0)
(2.41073 -5.68155e-05 0)
(2.39867 9.77342e-05 0)
(2.38385 -9.54396e-05 0)
(2.37394 0.000161607 0)
(1.41942 -0.27644 0)
(2.45794 -7.05166e-07 0)
(2.45011 2.02424e-06 0)
(2.44156 -2.19233e-06 0)
(2.43222 -2.89964e-06 0)
(2.422 1.89895e-05 0)
(2.41073 -4.83828e-05 0)
(2.39866 8.13353e-05 0)
(2.38384 -7.48074e-05 0)
(2.37396 7.47964e-05 0)
(1.34656 -0.252233 0)
(2.45794 -6.09758e-07 0)
(2.45011 1.82262e-06 0)
(2.44156 -2.16319e-06 0)
(2.43222 -1.77098e-06 0)
(2.422 1.46415e-05 0)
(2.41073 -3.87041e-05 0)
(2.39866 6.29067e-05 0)
(2.38383 -5.41117e-05 0)
(2.37392 5.07701e-05 0)
(1.27579 -0.222098 0)
(2.45794 -4.95629e-07 0)
(2.45011 1.53764e-06 0)
(2.44157 -1.96485e-06 0)
(2.43222 -9.02881e-07 0)
(2.42199 1.01821e-05 0)
(2.41073 -2.8662e-05 0)
(2.39865 4.30947e-05 0)
(2.38382 -3.31331e-05 0)
(2.37387 2.04233e-05 0)
(1.20416 -0.187874 0)
(2.45794 -3.66594e-07 0)
(2.45011 1.17317e-06 0)
(2.44157 -1.58501e-06 0)
(2.43222 -3.26706e-07 0)
(2.42199 6.5287e-06 0)
(2.41073 -1.9282e-05 0)
(2.39864 2.8838e-05 0)
(2.38382 -1.67561e-05 0)
(2.37384 1.30728e-05 0)
(1.1341 -0.144373 0)
(2.45794 -2.26864e-07 0)
(2.45011 7.42798e-07 0)
(2.44157 -1.04763e-06 0)
(2.43222 2.17305e-08 0)
(2.42199 3.69526e-06 0)
(2.41073 -1.08732e-05 0)
(2.39864 1.43709e-05 0)
(2.38383 -9.65353e-06 0)
(2.37382 1.70661e-07 0)
(1.06754 -0.0963384 0)
(2.45794 -8.38202e-08 0)
(2.45011 2.82627e-07 0)
(2.44157 -4.04466e-07 0)
(2.43222 9.43719e-08 0)
(2.42199 1.18781e-06 0)
(2.41073 -3.66444e-06 0)
(2.39863 5.72451e-06 0)
(2.38383 -2.03242e-06 0)
(2.37382 -1.48668e-06 0)
(1.02889 -0.0305358 0)
(2.2182 -0.166787 0)
(2.19893 -0.1905 0)
(2.15727 -0.24418 0)
(1.64437 -0.564196 0)
(1.35976 -0.624377 0)
(1.34445 -0.601282 0)
(1.35592 -0.580218 0)
(1.35791 -0.55109 0)
(1.35945 -0.506468 0)
(1.36255 -0.443896 0)
(2.17938 -0.214789 0)
(2.15224 -0.244537 0)
(1.94874 -0.423477 0)
(1.42316 -0.634091 0)
(1.33862 -0.618023 0)
(1.34406 -0.606269 0)
(1.34672 -0.5823 0)
(1.33937 -0.541117 0)
(1.32341 -0.492445 0)
(1.31066 -0.43239 0)
(2.12199 -0.275771 0)
(2.06742 -0.331731 0)
(1.63026 -0.570976 0)
(1.34194 -0.621698 0)
(1.33092 -0.617671 0)
(1.3252 -0.602409 0)
(1.31154 -0.573738 0)
(1.29247 -0.528858 0)
(1.27365 -0.473284 0)
(1.26308 -0.412351 0)
(2.03994 -0.347374 0)
(1.88185 -0.472663 0)
(1.40827 -0.627567 0)
(1.32147 -0.602393 0)
(1.31039 -0.586994 0)
(1.29218 -0.564992 0)
(1.26548 -0.536398 0)
(1.24006 -0.496905 0)
(1.22475 -0.449101 0)
(1.22732 -0.398653 0)
(1.90605 -0.431596 0)
(1.59483 -0.58271 0)
(1.2905 -0.603233 0)
(1.26847 -0.590818 0)
(1.2461 -0.565864 0)
(1.22458 -0.53238 0)
(1.20396 -0.497178 0)
(1.18663 -0.465757 0)
(1.1845 -0.430815 0)
(1.20569 -0.391802 0)
(1.69258 -0.5086 0)
(1.34333 -0.598024 0)
(1.23639 -0.560903 0)
(1.20984 -0.537216 0)
(1.17748 -0.513632 0)
(1.15328 -0.489494 0)
(1.14053 -0.465684 0)
(1.14104 -0.442402 0)
(1.157 -0.418107 0)
(1.19589 -0.390156 0)
(1.44678 -0.536167 0)
(1.20194 -0.546693 0)
(1.16136 -0.519705 0)
(1.13063 -0.494441 0)
(1.10689 -0.470093 0)
(1.09357 -0.451816 0)
(1.09388 -0.439067 0)
(1.10926 -0.428159 0)
(1.14032 -0.414876 0)
(1.1933 -0.395192 0)
(1.24164 -0.491051 0)
(1.11205 -0.487525 0)
(1.08774 -0.474312 0)
(1.06355 -0.457446 0)
(1.05092 -0.442918 0)
(1.04816 -0.433119 0)
(1.0604 -0.427368 0)
(1.08901 -0.423002 0)
(1.13115 -0.416133 0)
(1.19482 -0.401737 0)
(1.1196 -0.426978 0)
(1.04307 -0.436048 0)
(1.03147 -0.43332 0)
(1.01817 -0.436339 0)
(1.01584 -0.430243 0)
(1.02005 -0.425938 0)
(1.0394 -0.424258 0)
(1.07523 -0.424867 0)
(1.12459 -0.422103 0)
(1.19784 -0.410849 0)
(1.03908 -0.383017 0)
(0.992337 -0.396834 0)
(0.990993 -0.402688 0)
(0.989259 -0.414379 0)
(0.991539 -0.422149 0)
(1.00209 -0.424907 0)
(1.02486 -0.428336 0)
(1.06408 -0.430766 0)
(1.11825 -0.429228 0)
(1.20062 -0.41934 0)
(0.981455 -0.350554 0)
(0.948094 -0.365669 0)
(0.958474 -0.381728 0)
(0.9617 -0.396273 0)
(0.97009 -0.411127 0)
(0.985725 -0.423109 0)
(1.01106 -0.431761 0)
(1.05315 -0.438396 0)
(1.11184 -0.439685 0)
(1.20363 -0.430609 0)
(0.932912 -0.324761 0)
(0.907998 -0.343547 0)
(0.925972 -0.361917 0)
(0.932452 -0.381215 0)
(0.946052 -0.40135 0)
(0.966128 -0.419037 0)
(0.995086 -0.433999 0)
(1.04057 -0.444851 0)
(1.10376 -0.449727 0)
(1.20485 -0.441283 0)
(0.887646 -0.302473 0)
(0.870445 -0.324921 0)
(0.889292 -0.346383 0)
(0.901653 -0.369635 0)
(0.918524 -0.393738 0)
(0.943733 -0.414872 0)
(0.975581 -0.436061 0)
(1.02436 -0.451244 0)
(1.09295 -0.461038 0)
(1.20458 -0.454287 0)
(0.839435 -0.281772 0)
(0.836609 -0.304833 0)
(0.851407 -0.331614 0)
(0.870373 -0.357768 0)
(0.888742 -0.385106 0)
(0.91777 -0.409735 0)
(0.952172 -0.434343 0)
(1.00321 -0.453697 0)
(1.07702 -0.469834 0)
(1.19981 -0.466063 0)
(0.786197 -0.269166 0)
(0.798242 -0.291317 0)
(0.81021 -0.321259 0)
(0.83406 -0.349469 0)
(0.854073 -0.379464 0)
(0.88603 -0.406293 0)
(0.923547 -0.433798 0)
(0.977166 -0.4566 0)
(1.05651 -0.479446 0)
(1.19043 -0.479381 0)
(0.732929 -0.255353 0)
(0.7536 -0.27437 0)
(0.765174 -0.304674 0)
(0.793014 -0.333475 0)
(0.816069 -0.366073 0)
(0.850894 -0.396806 0)
(0.891901 -0.428814 0)
(0.948426 -0.456801 0)
(1.03282 -0.487709 0)
(1.17461 -0.492383 0)
(0.671305 -0.241127 0)
(0.698642 -0.262612 0)
(0.711222 -0.296744 0)
(0.743574 -0.327345 0)
(0.773827 -0.361936 0)
(0.814417 -0.395206 0)
(0.861472 -0.42937 0)
(0.92157 -0.462305 0)
(1.01037 -0.499976 0)
(1.152 -0.505584 0)
(0.603068 -0.212739 0)
(0.642572 -0.234659 0)
(0.662664 -0.276357 0)
(0.702168 -0.317382 0)
(0.741315 -0.359519 0)
(0.787493 -0.39734 0)
(0.83908 -0.434281 0)
(0.901427 -0.470744 0)
(0.988526 -0.50932 0)
(1.13781 -0.531525 0)
(0.534554 -0.211119 0)
(0.593368 -0.242271 0)
(0.628807 -0.296728 0)
(0.679655 -0.34248 0)
(0.72756 -0.383857 0)
(0.777286 -0.418799 0)
(0.829765 -0.451969 0)
(0.891232 -0.485415 0)
(0.974273 -0.526381 0)
(1.11704 -0.560659 0)
(0.498264 -0.17266 0)
(0.582489 -0.215983 0)
(0.634918 -0.283972 0)
(0.690296 -0.336238 0)
(0.738652 -0.379218 0)
(0.786116 -0.414343 0)
(0.836034 -0.446933 0)
(0.89545 -0.47938 0)
(0.974426 -0.520147 0)
(1.11523 -0.558215 0)
(1.36139 -0.312506 0)
(1.43625 -0.156045 0)
(1.54634 0.0181789 0)
(1.6298 0.201754 0)
(1.66438 0.32778 0)
(1.69854 0.358766 0)
(1.69397 0.307335 0)
(1.62778 0.163706 0)
(1.63439 0.0901791 0)
(1.67162 -0.00736897 0)
(1.32127 -0.30404 0)
(1.42674 -0.147469 0)
(1.55074 0.0332788 0)
(1.63601 0.222527 0)
(1.66613 0.3363 0)
(1.69085 0.354562 0)
(1.68769 0.290052 0)
(1.61448 0.151262 0)
(1.63415 0.0871715 0)
(1.67189 -0.00701143 0)
(1.30109 -0.29465 0)
(1.43131 -0.137167 0)
(1.56389 0.0463785 0)
(1.64532 0.243564 0)
(1.67125 0.346845 0)
(1.68406 0.347169 0)
(1.68025 0.27008 0)
(1.59653 0.136539 0)
(1.63214 0.0841232 0)
(1.67103 -0.00450379 0)
(1.2972 -0.293062 0)
(1.44276 -0.132133 0)
(1.58514 0.0633884 0)
(1.65523 0.264846 0)
(1.67521 0.353585 0)
(1.68221 0.336623 0)
(1.67623 0.251494 0)
(1.5881 0.125011 0)
(1.6277 0.0817075 0)
(1.66945 -0.00270883 0)
(1.30412 -0.294901 0)
(1.46094 -0.125894 0)
(1.60876 0.0796581 0)
(1.66496 0.287038 0)
(1.67868 0.360376 0)
(1.67171 0.325677 0)
(1.67016 0.230777 0)
(1.59042 0.115981 0)
(1.62373 0.0803425 0)
(1.66612 0.000131823 0)
(1.31726 -0.301655 0)
(1.48324 -0.12319 0)
(1.63535 0.099296 0)
(1.67508 0.307731 0)
(1.68175 0.367816 0)
(1.66455 0.312604 0)
(1.66488 0.209776 0)
(1.60283 0.111631 0)
(1.62354 0.0804923 0)
(1.66334 0.0031248 0)
(1.33429 -0.308247 0)
(1.51013 -0.119522 0)
(1.66101 0.118299 0)
(1.68947 0.329713 0)
(1.68268 0.374786 0)
(1.65069 0.293845 0)
(1.65919 0.189732 0)
(1.61834 0.108859 0)
(1.62782 0.0825125 0)
(1.65906 0.00617615 0)
(1.35355 -0.315107 0)
(1.54034 -0.116435 0)
(1.68826 0.141447 0)
(1.7082 0.357398 0)
(1.68272 0.382018 0)
(1.62887 0.269456 0)
(1.6513 0.169363 0)
(1.62873 0.106827 0)
(1.6343 0.0847425 0)
(1.65605 0.00955898 0)
(1.37421 -0.320829 0)
(1.57448 -0.108587 0)
(1.71588 0.161765 0)
(1.72154 0.381901 0)
(1.68105 0.391132 0)
(1.60263 0.240325 0)
(1.64376 0.149929 0)
(1.63388 0.105124 0)
(1.63831 0.0872329 0)
(1.65212 0.0132237 0)
(1.39589 -0.325231 0)
(1.60983 -0.100553 0)
(1.75066 0.192118 0)
(1.73216 0.408893 0)
(1.67423 0.3979 0)
(1.57202 0.209435 0)
(1.63483 0.128876 0)
(1.63589 0.101622 0)
(1.63879 0.0883292 0)
(1.64644 0.0168282 0)
(1.41826 -0.329233 0)
(1.64946 -0.0871014 0)