/*--------------------------------*- C++ -*----------------------------------*\
  =========                 |
  \\      /  F ield         | OpenFOAM: The Open Source CFD Toolbox
   \\    /   O peration     | Website:  https://openfoam.org
    \\  /    A nd           | Version:  8
     \\/     M anipulation  |
\*---------------------------------------------------------------------------*/
FoamFile
{
    version     2.0;
    format      ascii;
    class       volScalarField;
    location    "0.2";
    object      p;
}
// * * * * * * * * * * * * * * * * * * * * * * * * * * * * * * * * * * * * * //

dimensions      [1 -1 -2 0 0 0 0];

internalField   nonuniform List<scalar> 
325
(
0.932668
0.232277
0.42314
0.739571
0.924762
0.241568
0.418417
0.728706
0.922133
0.251385
0.410207
0.72598
0.927335
0.256095
0.385783
0.738935
0.937484
0.269201
0.386651
0.742349
0.934975
0.262236
0.397473
0.756991
0.933744
0.387683
0.37014
0.711595
0.926112
0.530546
0.342864
0.631691
0.884539
0.658774
0.3561
0.506318
0.80518
0.762234
0.431232
0.484323
0.708923
0.844189
0.511807
0.5004
0.666124
0.912438
0.576177
0.548836
0.660132
0.96829
0.636297
0.593636
0.6728
1.01445
0.696112
0.637252
0.694129
1.05844
0.749856
0.679598
0.719794
1.09993
0.803786
0.718616
0.742212
1.13696
0.853803
0.755601
0.769705
1.17089
0.8992
0.788508
0.794352
1.20069
0.940904
0.82186
0.818867
1.22759
0.979961
0.852326
0.842618
1.25182
1.01638
0.882164
0.865706
1.27415
1.04884
0.911204
0.887461
1.29536
1.07931
0.939882
0.908078
1.31644
1.10861
0.968302
0.929363
1.33564
1.1374
0.996325
0.950146
1.3499
1.16186
1.02338
0.97047
1.68115
1.68675
1.62135
1.52796
1.6883
1.68147
1.57772
1.43018
1.69116
1.66757
1.57614
1.43163
1.69327
1.65735
1.56521
1.413
1.69626
1.6522
1.55658
1.40039
1.70054
1.64623
1.5502
1.38871
1.70402
1.64102
1.54461
1.38104
1.70376
1.63293
1.53623
1.37991
1.6958
1.6228
1.52648
1.38262
1.68296
1.61024
1.51771
1.3884
1.65166
1.59315
1.51044
1.39619
1.62783
1.57686
1.50295
1.40375
1.60608
1.56192
1.49709
1.41123
1.58358
1.5487
1.4937
1.41984
1.56437
1.53997
1.4929
1.42975
1.55462
1.5344
1.49491
1.43944
1.5413
1.5311
1.49874
1.44965
1.53169
1.53306
1.50424
1.45931
1.46449
1.53207
1.51604
1.46987
1.49592
1.52478
1.48211
1.37899
1.204
1.06514
0.999533
1.392
1.27052
1.13741
1.06485
1.34214
1.28888
1.21524
1.14432
1.2154
1.2787
1.22963
1.15867
1.06699
1.20232
1.19612
1.13739
1.00351
1.074
1.09254
1.06368
0.997362
1.00798
1.01359
1.00864
0.997561
1.00007
1.00033
1.00018
0.997633
0.999931
1
1
0.997636
0.999931
0.999999
1
0.997636
0.999931
0.999999
1
0.997635
0.999931
0.999999
1
0.997634
0.999931
0.999999
1
0.997634
0.999931
0.999999
1
0.997634
0.999931
0.999999
1
0.997633
0.999931
0.999999
1
0.997633
0.999931
0.999999
1
0.997633
0.999931
0.999999
1
0.997632
0.99993
0.999999
1
0.997632
0.99993
0.999999
1
0.996584
1.26725
1.45271
1.48395
0.992261
1.19329
1.37996
0.939387
0.995281
1.14468
0.939378
0.964547
1.00249
0.939503
0.964952
0.983891
0.939501
0.96518
0.98422
0.939579
0.964925
0.985412
0.939619
0.964819
0.985598
0.939625
0.964814
0.985597
0.939627
0.964815
0.985597
0.939626
0.964813
0.985596
0.939625
0.964812
0.985594
0.939625
0.964811
0.985593
0.939624
0.96481
0.985591
0.939624
0.96481
0.985591
0.939625
0.964811
0.985592
0.939627
0.964813
0.985592
0.939629
0.964814
0.985592
0.93963
0.964815
0.985592
0.939631
0.964815
0.985591
)
;

boundaryField
{
    inlet
    {
        type            fixedValue;
        value           nonuniform List<scalar> 0();
    }
    outlet
    {
        type            zeroGradient;
    }
    triangle
    {
        type            zeroGradient;
    }
    top
    {
        type            symmetryPlane;
    }
    bottom
    {
        type            symmetryPlane;
    }
    defaultFaces
    {
        type            empty;
    }
    procBoundary6to2
    {
        type            processor;
        value           nonuniform List<scalar> 5(0.94604 0.22433 0.421735 0.748208 0.748208);
    }
    procBoundary6to5
    {
        type            processor;
        value           nonuniform List<scalar> 
43
(
1.65373
1.67363
1.68109
1.68844
1.69938
1.71483
1.73195
1.74258
1.74331
1.73243
1.69383
1.66911
1.64231
1.61056
1.57591
1.54973
1.51841
1.42469
1.19507
1.27513
1.27513
1.27513
0.885549
0.911167
0.911167
0.909775
0.910173
0.910273
0.910284
0.910268
0.910258
0.910259
0.91026
0.910259
0.910259
0.910259
0.910259
0.910259
0.91026
0.910262
0.910264
0.910266
0.910268
)
;
    }
    procBoundary6to7
    {
        type            processor;
        value           nonuniform List<scalar> 
47
(
0.912971
0.913573
0.913421
0.913677
0.912125
0.909965
0.902219
0.892155
0.880571
0.865501
0.845602
0.825947
0.815277
0.809729
0.808829
0.815777
0.823739
0.837718
0.852184
0.867083
0.882533
0.897403
0.91358
0.93004
0.946648
0.963091
0.978322
1.00057
1.04899
1.08247
1.08072
1.05636
1.0177
1.00142
1.00002
1
1
1
1
1
1
1
1
1
1
1
1
)
;
    }
}


// ************************************************************************* //
