/*--------------------------------*- C++ -*----------------------------------*\
  =========                 |
  \\      /  F ield         | OpenFOAM: The Open Source CFD Toolbox
   \\    /   O peration     | Website:  https://openfoam.org
    \\  /    A nd           | Version:  7
     \\/     M anipulation  |
\*---------------------------------------------------------------------------*/
FoamFile
{
    version     2.0;
    format      ascii;
    class       volScalarField;
    location    "0.2";
    object      T;
}
// * * * * * * * * * * * * * * * * * * * * * * * * * * * * * * * * * * * * * //

dimensions      [0 0 0 1 0 0 0];

internalField   nonuniform List<scalar> 
3225
(
1.14789
1.14607
1.14358
1.14097
1.1386
1.13658
1.14739
1.14542
1.14328
1.1409
1.13837
1.13591
1.14698
1.14482
1.14298
1.14086
1.13822
1.13541
1.14661
1.14442
1.1427
1.14082
1.13801
1.135
1.14634
1.14427
1.14244
1.14042
1.13767
1.13471
1.14613
1.14404
1.14194
1.13976
1.13726
1.1345
1.14578
1.14364
1.14126
1.13898
1.13679
1.13438
1.14531
1.14303
1.14059
1.13833
1.13631
1.13412
1.14475
1.14261
1.14013
1.13784
1.13581
1.13366
1.14433
1.14221
1.13984
1.13744
1.13524
1.13303
1.14404
1.14185
1.13956
1.13708
1.13467
1.13235
1.1437
1.14149
1.1392
1.1367
1.13414
1.13171
1.14329
1.14105
1.13875
1.13627
1.13367
1.13115
1.14279
1.14057
1.13823
1.13581
1.13325
1.13068
1.14235
1.14008
1.13775
1.13534
1.13287
1.13032
1.14204
1.13971
1.13742
1.13496
1.1325
1.12997
1.14185
1.13948
1.13716
1.13469
1.13217
1.12964
1.14172
1.13929
1.13692
1.13441
1.1318
1.12921
1.14163
1.1391
1.13668
1.1341
1.13139
1.1287
1.14147
1.13889
1.1364
1.13379
1.13099
1.12819
1.13437
1.13184
1.12927
1.12677
1.12417
1.12133
1.11839
1.11574
1.11336
1.11084
1.10769
1.10411
1.10073
1.09762
1.09452
1.09152
1.08857
1.13359
1.13133
1.12895
1.12643
1.12374
1.12085
1.11785
1.11505
1.11256
1.1101
1.10711
1.10359
1.10014
1.09692
1.09371
1.0906
1.08758
1.13291
1.13076
1.12856
1.12598
1.12324
1.12042
1.11742
1.11443
1.11176
1.10925
1.10642
1.10306
1.0996
1.0963
1.09301
1.08979
1.08666
1.13239
1.13022
1.12801
1.12539
1.1227
1.12001
1.11705
1.11385
1.11095
1.10837
1.10566
1.10246
1.09904
1.0957
1.09236
1.08904
1.08579
1.13207
1.12975
1.12737
1.12473
1.12216
1.11964
1.11673
1.11331
1.11017
1.10751
1.10489
1.1018
1.09844
1.09509
1.09172
1.08834
1.08499
1.13188
1.12933
1.12673
1.12408
1.12164
1.11926
1.11627
1.11275
1.10943
1.10671
1.10414
1.10105
1.0977
1.09438
1.09104
1.08763
1.08418
1.1317
1.1289
1.12616
1.12355
1.12116
1.11869
1.11569
1.11221
1.10883
1.10607
1.1034
1.1002
1.09682
1.09356
1.09028
1.08684
1.08331
1.1314
1.12849
1.12575
1.12316
1.12062
1.11793
1.11498
1.11167
1.10835
1.1055
1.10263
1.09929
1.09588
1.09266
1.08941
1.0859
1.08233
1.13098
1.12812
1.12546
1.12282
1.11996
1.11706
1.11419
1.11116
1.10794
1.1049
1.10179
1.09839
1.09499
1.09181
1.08851
1.08489
1.08126
1.13048
1.12777
1.12517
1.12235
1.11922
1.11623
1.11348
1.11066
1.10746
1.10414
1.10087
1.09751
1.09421
1.09104
1.08765
1.08388
1.08017
1.1299
1.1273
1.12468
1.12173
1.11853
1.11553
1.11292
1.11017
1.1067
1.10318
1.09991
1.0967
1.09352
1.09034
1.0868
1.08291
1.07911
1.12926
1.12664
1.12396
1.121
1.11789
1.11499
1.11245
1.10947
1.10582
1.10216
1.09899
1.09598
1.09292
1.0896
1.08591
1.08195
1.07809
1.12862
1.12589
1.12313
1.12026
1.11728
1.11443
1.11177
1.10867
1.10499
1.10127
1.09813
1.0953
1.09212
1.08864
1.08492
1.08099
1.07713
1.12807
1.12522
1.1224
1.11958
1.11664
1.11369
1.11089
1.10784
1.10429
1.1006
1.09741
1.09439
1.09103
1.08748
1.08385
1.08004
1.07623
1.12768
1.12475
1.12185
1.11898
1.11596
1.11287
1.10996
1.10705
1.10371
1.10015
1.09673
1.09327
1.08969
1.08619
1.08272
1.0791
1.07541
1.12736
1.12445
1.12151
1.11854
1.11536
1.11212
1.10916
1.10638
1.10325
1.0997
1.09597
1.09216
1.08837
1.0849
1.0816
1.07822
1.07459
1.12709
1.12424
1.12133
1.11831
1.11499
1.11153
1.10851
1.10581
1.1027
1.09899
1.09512
1.09121
1.08731
1.0838
1.08064
1.07735
1.07354
1.12667
1.12392
1.12108
1.11809
1.11476
1.11118
1.10798
1.10516
1.10198
1.09819
1.0943
1.09045
1.08656
1.08306
1.07987
1.07633
1.07227
1.12613
1.12343
1.12063
1.11768
1.11445
1.11086
1.1075
1.10453
1.10128
1.09746
1.09358
1.08983
1.08607
1.08252
1.07899
1.07512
1.07092
1.12554
1.1228
1.12
1.1171
1.11396
1.11043
1.10695
1.10383
1.10054
1.09683
1.09302
1.08931
1.08553
1.08171
1.07786
1.07387
1.06966
1.12497
1.12212
1.11925
1.11637
1.11333
1
1
1
1
1
1
1
1
1
1
1
1
1
1
1
1
1
1
1
1
1
1
1
1
1
1
1
1
1
1
1
1
1
1
1
1
1
1
1
1
1
1
1
1
1
1
1
1
1
1
1
1
1
1
1
1
1
1
1
1
1
1
1
1
1
1
1
1
1
1
1
1
1
1
1
1
1
1
1
1
1
1
1
1
1
1
1
1
1
1
1
1
1
1
1
1
1
1
1
1
1
1
1
1
1
1
1
1
1
1
1
1
1
1
1
1
1
1
1
1
1
1
1
1
1
1
1
1
1
1
1
1
1
1
1
1
1
1
1
1
1
1
1
1
1
1
1
1
1
1
1
1
1
1
1
1
1
1
1
1
1
1
1
1
1
1
1
1
1
1
1
1
1
1
1
1
1
1
1
1
1
1
1
1
1
1
1
1
1
1
1
1
1
1
1
1
1
1
1
1
1
1
1
1
1
1
1
1
1
1
1
1
1
1
1
1
1
1
1
1
1
1
1
1
1
1
1
1
1
1
1
1
1
1
1
1
1
1
1
1
1
1
1
1
1
1
1
1
1
1
1
1
1
1
1
1
1
1
1
1
1
1
1
1
1
1
1
1
1
1
1
1
1
1
1
1
1
1
1
1
1
1
1
1
1
1
1
1
1
1
1
1
1
1
1
1
1
1
1
1
1
1
1
1
1
1
1
1
1
1
1
1
1
1
1
1
1
1
1
1
1
1
1
1
1
1
1
1
1
1
1
1
1
1
1
1
1
1
1
1
1
1
1
1
1
1
1
1
1
1
1
1
1
1
1
1
1
1
1
1
1
1
1
1
1
1
1
1
1
1
1
1
1
1
1
1
1
1
1
1
1
1
1
1
1
1
1
1
1
1
1
1
1
1
1
1
1
1
1
1
1
1
1
1
1
1
1
1
1
1
1
1
1
1
1
1
1
1
1
1
1
1
1
1
1
1
1
1
1
1
1
1
1
1
1
1
1
1
1
1
1
1
1
1
1
1
1
1
1
1
1
1
1
1
1
1
1
1
1
1
1
1
1
1
1
1
1
1
1
1
1
1
1
1
1
1
1
1
1
1
1
1
1
1
1
1
1
1
1
1
1
1
1
1
1
1
1
1
1
1
1
1
1
1
1
1
1
1
1
1
1
1
1
1
1
1
1
1
1
1
1
1
1
1
1
1
1
1
1
1
1
1
1
1
1
1
1
1
1
1
1
1
1
1
1
1
1
1
1
1
1
1
1
1
1
1
1
1
1
1
1
1
1
1
1
1
1
1
1
1
1
1
1
1
1
1
1
1
1
1
1
1
1
1
1
1
1
1
1
1
1
1
1
1
1
1
1
1
1
1
1
1
1
1
1
1
1
1
1
1
1
1
1
1
1
1
1
1
1
1
1
1
1
1
1
1
1
1
1
1
1
1
1
1
1
1
1
1
1
1
1
1
1
1
1
1
1
1
1
1
1
1
1
1
1
1
1
1
1
1
1
1
1
1
1
1
1
1
1
1
1
1
1
1
1
1
1
1
1
1
1
1
1
1
1
1
1
1
1
1
1
1
1
1
1
1
1
1
1
1
1
1
1
1
1
1
1
1
1
1
1
1
1
1
1
1
1
1
1
1
1
1
1
1
1
1
1
1
1
1
1
1
1
1
1
1
1
1
1
1
1
1
1
1
1
1
1
1
1
1
1
1
1
1
1
1
1
1
1
1
1
1
1
1
1
1
1
1
1
1
1
1
1
1
1
1
1
1
1
1
1
1
1
1
1
1
1
1
1
1
1
1
1
1
1
1
1
1
1
1
1
1
1
1
1
1
1
1
1
1
1
1
1
1
1
1
1
1
1
1
1
1
1
1
1
1
1
1
1
1
1
1
1
1
1
1
1
1
1
1
1
1
1
1
1
1
1
1
1
1
1
1
1
1
1
1
1
1
1
1
1
1
1
1
1
1
1
1
1
1
1
1
1
1
1
1
1
1
1
1
1
1
1
1
1
1
1
1
1
1
1
1
1
1
1
1
1
1
1
1
1
1
1
1
1
1
1
1
1
1
1
1
1
1
1
1
1
1
1
1
1
1
1
1
1
1
1
1
1
1
1
1
1
1
1
1
1
1
1
1
1
1
1
1
1
1
1
1
1
1
1
1
1
1
1
1
1
1
1
1
1
1
1
1
1
1
1
1
1
1
1
1
1
1
1
1
1
1
1
1
1
1
1
1
1
1
1
1
1
1
1
1
1
1
1
1
1
1
1
1
1
1
1
1
1
1
1
1
1
1
1
1
1
1
1
1
1
1
1
1
1
1
1
1
1
1
1
1
1
1
1
1
1
1
1
1
1
1
1
1
1
1
1
1
1
1
1
1
1
1
1
1
1
1
1
1
1
1
1
1
1
1
1
1
1
1
1
1
1
1
1
1
1
1
1
1
1
1
1
1
1
1
1
1
1
1
1
1
1
1
1
1
1
1
1
1
1
1
1
1
1
1
1
1
1
1
1
1
1
1
1
1
1
1
1
1
1
1
1
1
1
1
1
1
1
1
1
1
1
1
1
1
1
1
1
1
1
1
1
1
1
1
1
1
1
1
1
1
1
1
1
1
1
1
1
1
1
1
1
1
1
1
1
1
1
1
1
1
1
1
1
1
1
1
1
1
1
1
1
1
1
1
1
1
1
1
1
1
1
1
1
1
1
1
1
1
1
1
1
1
1
1
1
1
1
1
1
1
1
1
1
1
1
1
1
1
1
1
1
1
1
1
1
1
1
1
1
1
1
1
1
1
1
1
1
1
1
1
1
1
1
1
1
1
1
1
1
1
1
1
1
1
1
1
1
1
1
1
1
1
1
1
1
1
1
1
1
1
1
1
1
1
1
1
1
1
1
1
1
1
1
1
1
1
1
1
1
1
1
1
1
1
1
1
1
1
1
1
1
1
1
1
1
1
1
1
1
1
1
1
1
1
1
1
1
1
1
1
1
1
1
1
1
1
1
1
1
1
1
1
1
1
1
1
1
1
1
1
1
1
1
1
1
1
1
1
1
1
1
1
1
1
1
1
1
1
1
1
1
1
1
1
1
1
1
1
1
1
1
1
1
1
1
1
1
1
1
1
1
1
1
1
1
1
1
1
1
1
1
1
1
1
1
1
1
1
1
1
1
1
1
1
1
1
1
1
1
1
1
1
1
1
1
1
1
1
1
1
1
1
1
1
1
1
1
1
1
1
1
1
1
1
1
1
1
1
1
1
1
1
1
1
1
1
1
1
1
1
1
1
1
1
1
1
1
1
1
1
1
1
1
1
1
1
1
1
1
1
1
1
1
1
1
1
1
1
1
1
1
1
1
1
1
1
1
1
1
1
1
1
1
1
1
1
1
1
1
1
1
1
1
1
1
1
1
1
1
1
1
1
1
1
1
1
1
1
1
1
1
1
1
1
1
1
1
1
1
1
1
1
1
1
1
1
1
1
1
1
1
1
1
1
1
1
1
1
1
1
1
1
1
1
1
1
1
1
1
1
1
1
1
1
1
1
1
1
1
1
1
1
1
1
1
1
1
1
1
1
1
1
1
1
1
1
1
1
1
1
1
1
1
1
1
1
1
1
1.00001
1.00009
1
1
1
1
1
1
1
1
1
1
1
1
1
1
1.00007
1.00064
1.00368
1
1
1
1
1
1
1
1
1
1
1
1
1.00004
1.00047
1.00307
1.01208
1.031
1
1
1
1
1
1
1
1
1
1
1.00002
1.0003
1.00228
1.01014
1.02837
1.05532
1.08071
1
1
1
1
1
1
1
1
1.00001
1.00016
1.0015
1.00782
1.02486
1.0516
1.07932
1.10083
1.11257
1
1
1
1
1
1
1
1.00007
1.00084
1.00533
1.01982
1.04608
1.07705
1.09911
1.11503
1.11821
1.12042
1
1
1
1
1
1.00002
1.0004
1.00327
1.01444
1.03915
1.07089
1.09627
1.11504
1.12175
1.1231
1.1231
1.12379
1
1
1
1.00001
1.00015
1.00166
1.00938
1.03061
1.06282
1.09361
1.11226
1.12347
1.1254
1.12549
1.12589
1.1254
1.12368
1
1
1.00005
1.00071
1.00541
1.02165
1.05214
1.08656
1.10901
1.12406
1.12889
1.12803
1.12748
1.12769
1.12662
1.12458
1.12179
1.00001
1.00025
1.00257
1.0135
1.04047
1.07669
1.1055
1.1214
1.1301
1.13177
1.13019
1.12971
1.12894
1.12768
1.12509
1.12209
1.11907
1.001
1.00733
1.02805
1.06286
1.09846
1.1188
1.13059
1.13429
1.1329
1.13187
1.13128
1.13056
1.12825
1.12536
1.12239
1.11971
1.11748
1.0167
1.04806
1.08747
1.11377
1.12891
1.13614
1.13673
1.13448
1.13343
1.13263
1.13154
1.12897
1.12573
1.12268
1.12051
1.11848
1.1157
1.07059
1.10726
1.12617
1.13574
1.13935
1.13762
1.13642
1.13496
1.13411
1.1319
1.12927
1.1263
1.12341
1.12113
1.11921
1.11663
1.11371
1.12035
1.13514
1.14111
1.14062
1.13883
1.13749
1.13673
1.13525
1.13264
1.12954
1.12678
1.1244
1.12234
1.11978
1.11723
1.11466
1.11209
1.14113
1.14387
1.14169
1.14054
1.13894
1.13795
1.1358
1.13321
1.13034
1.12754
1.1253
1.12349
1.12094
1.11804
1.11538
1.11315
1.11068
1.14433
1.14321
1.14171
1.14067
1.13896
1.13659
1.13365
1.13102
1.12862
1.12661
1.12432
1.12193
1.11927
1.11654
1.11414
1.11177
1.10901
1.14498
1.14413
1.14204
1.13938
1.13704
1.13476
1.13207
1.12979
1.12784
1.12557
1.1229
1.12029
1.11794
1.11554
1.11289
1.11017
1.10744
1.14515
1.14357
1.14082
1.13768
1.13528
1.13346
1.13147
1.12895
1.12658
1.12419
1.12164
1.11922
1.11691
1.11433
1.11154
1.10881
1.10617
1.14363
1.14185
1.13946
1.13667
1.13455
1.13286
1.1306
1.12786
1.12535
1.12317
1.12083
1.11815
1.11557
1.113
1.11042
1.10772
1.10484
1.14211
1.14033
1.1387
1.1364
1.13397
1.13181
1.12949
1.12689
1.12452
1.12239
1.11984
1.11688
1.11411
1.11171
1.10928
1.10643
1.10332
1.14158
1.13982
1.13798
1.13565
1.13311
1.13075
1.1285
1.12602
1.12355
1.12122
1.11862
1.11565
1.11275
1.1102
1.10768
1.1048
1.10167
1.14152
1.1391
1.13678
1.13457
1.13222
1.12988
1.12745
1.12473
1.12205
1.11964
1.11717
1.11436
1.11132
1.10837
1.10562
1.10283
1.09981
1.14062
1.13803
1.13551
1.13333
1.13132
1.12881
1.12605
1.12312
1.12025
1.11781
1.11548
1.11275
1.10967
1.10652
1.10354
1.10065
1.09761
1.1392
1.13678
1.1344
1.13197
1.12961
1.12713
1.12442
1.12161
1.11867
1.11575
1.11315
1.11066
1.10794
1.10487
1.10161
1.09843
1.09535
1.13781
1.1356
1.13308
1.13036
1.12773
1.12533
1.12293
1.12023
1.11723
1.11403
1.11098
1.10846
1.10605
1.10317
1.09984
1.09648
1.09328
1.13652
1.13388
1.13131
1.12876
1.12625
1.12373
1.12119
1.11861
1.11587
1.11281
1.10948
1.10648
1.10392
1.10115
1.098
1.09475
1.09159
1.13537
1.13261
1.12994
1.12747
1.12498
1.12228
1.11951
1.11694
1.1145
1.11176
1.10845
1.10495
1.10191
1.09905
1.09603
1.09299
1.08994
1
1
1
1
1
1
1
1
1
1
1
1
1
1
1
1
1
1
1
1
1
1
1
1
1
1
1
1
1
1
1
1
1
1
1
1
1
1
1
1
1
1
1
1
1
1
1
1
1
1
1
1
1
1
1
1
1
1
1
1
1
1
1
1
1
1
1
1
1
1
1
1
1
1
1
1
1
1
1
1
1
1
1
1
1
1
1
1
1
1
1
1
1
1
1
1
1
1
1
1
1
1
1
1
1
1
1
1
1
1
1
1
1
1
1
1
1
1
1
1
1
1
1
1
1
1
1
1
1
1
1
1
1
1
1
1
1
1
1
1
1
1
1
1
1
1
1
1
1
1
1
1
1
1
1
1
1
1
1
1
1
1
1
1
1
1
1
1
1
1
1
1
1
1
1
1
1
1
1
1
1
1
1
1
1
1
1
1
1
1
1
1
1
1
1
1
1
1
1
1
1
1
1
1
1
1
1
1
1
1
1
1
1
1
1
1
1
1
1
1
1
1
1
1
1
1
1
1
1
1
1
1
1
1
1
1
1
1
1
1
1
1
1
1
1
1
1
1
1
1
1
1
1
1
1
1
1
1
1
1
1
1
1
1
1
1
1
1
1
1
1
1
1
1
1
1
1
1
1
1
1
1
1
1
1
1
1
1
1
1
1
1
1
1
1
1
1
1
1
1
1
1
1
1
1
1
1
1
1
1
1
1
1
1
1
1
1
1
1
1
1
1
1
1
1
1
1
1
1
1
1
1
1
1
1
1
1
1
1
1
1
1
1
1
1
1
1
1
1
1
1
1
1
1
1
1
1
1
1
1
1
1
1
1
1
1
1
1
1
1
1
1
1
1
1
1
1
1
1
1
1
1
1
1
1
1
1
1
1
1
1
1
1
1
1
1
1
1
1
1
1
1
1
1
1
1
1
1
1
1
1
1
1
1
1
1
1
1
1
1
1
1
1
1
1
1
1
1
1
1
1
1
1
1
1
1
1
1
1
1
1
1
1
1
1
1
1
1
1
1
1
1
1
1
1
1
1
1
1
1
1
1
1
1
1
1
1
1
1
1
1
1
1
1
1
1
1
1
1
1
1
1
1
1
1
1
1
1
1
1
1
1
1
1
1
1
1
1
1
1
1
1
1
1
1
1
1
1
1
1
1
1
1
1
1
1
1
1
1
1
1
1
1
1
1
1
1
1
1
1
1
1
1
1
1
1
1
1
1
1
1
1
1
1
1
1
1
1
1
1
1
1
1
1
1
1
1
1
1
1
1
1
1
1
1
1
1
1
1
1
1
1
1
1
1
1
1
1
1
1
1
1
1
1
1
1
1
1
1
1
1
1
1
1
1
1
1
1
1
1
1
1
1
1
1
1
1
1
1
1
1
1
1
1
1
1
1
1
1
1
1
1
1
1.00007
1
1
1
1.00001
1.0003
1.00324
1
1
1.00007
1.00111
1.00831
1.03236
1.00001
1.00028
1.00332
1.018
1.05222
1.09472
1.00102
1.00807
1.0332
1.07413
1.11271
1.13217
1.01774
1.05283
1.09746
1.12451
1.14045
1.1449
1.07569
1.11477
1.13795
1.14593
1.14622
1.14516
1.12722
1.14454
1.15064
1.14787
1.14686
1.14543
1.14759
1.1493
1.15089
1.1499
1.14806
1.14554
1.15084
1.15072
1.15126
1.15019
1.14768
1.14457
1.15329
1.1519
1.15034
1.14863
1.14638
1.14389
1.15449
1.15177
1.14905
1.14699
1.14531
1.14367
1.15345
1.15095
1.14842
1.14642
1.14489
1.14303
1.15172
1.14975
1.14783
1.14612
1.14402
1.14161
1.15064
1.1487
1.14689
1.14496
1.14269
1.14015
1.14982
1.14752
1.14515
1.14306
1.14129
1.13911
1.14897
1.14673
1.14408
1.14156
1.13959
1.13781
)
;

boundaryField
{
    inlet
    {
        type            fixedValue;
        value           nonuniform 0();
    }
    outlet
    {
        type            inletOutlet;
        inletValue      nonuniform 0();
        value           nonuniform 0();
    }
    triangle
    {
        type            zeroGradient;
    }
    top
    {
        type            symmetryPlane;
    }
    bottom
    {
        type            symmetryPlane;
    }
    defaultFaces
    {
        type            empty;
    }
    procBoundary5to4
    {
        type            processor;
        value           nonuniform List<scalar> 
119
(
1
1
1
1
1
1
1
1
1
1
1
1
1
1
1
1
1
1
1
1
1
1
1
1
1
1
1
1
1
1
1
1
1
1
1
1
1
1
1
1
1
1
1
1
1
1
1
1
1
1
1
1
1
1
1
1
1
1
1
1
1
1
1
1
1
1
1
1
1
1
1
1
1
1
1
1
1
1
1
1
1
1
1
1
1
1
1
1
1
1
1
1
1
1
1
1
1
1
1
1
1
1
1
1
1
1
1
1.00005
1.00292
1.03142
1.09683
1.14082
1.15325
1.15465
1.15635
1.1551
1.15352
1.15275
1.15189
)
;
    }
    procBoundary5to6
    {
        type            processor;
        value           nonuniform List<scalar> 
140
(
1.08543
1.08444
1.08344
1.08248
1.08158
1.0807
1.07979
1.07882
1.07781
1.07675
1.07567
1.07462
1.07363
1.07271
1.07182
1.07075
1.06944
1.06799
1.06658
1.06535
1
1
1
1
1
1
1
1
1
1
1
1
1
1
1
1
1
1
1
1
1
1
1
1
1
1
1
1
1
1
1
1
1
1
1
1
1
1
1
1
1
1
1
1
1
1
1
1
1
1
1
1
1
1
1
1
1
1
1
1
1
1
1
1
1
1
1
1
1
1
1
1
1
1
1
1
1
1
1
1
1
1
1
1
1
1
1
1
1
1
1
1
1.00001
1.00075
1.01305
1.05655
1.10105
1.11658
1.12168
1.12256
1.12136
1.11892
1.11687
1.11502
1.11288
1.11109
1.10959
1.10788
1.10617
1.10483
1.10354
1.10205
1.10046
1.09874
1.0968
1.09457
1.09241
1.09026
1.08843
1.08674
)
;
    }
    procBoundary5to12
    {
        type            processor;
        value           nonuniform List<scalar> 
21
(
1.14934
1.14938
1.14933
1.14905
1.14854
1.14808
1.14754
1.14708
1.14676
1.14652
1.14625
1.1459
1.14541
1.14497
1.14462
1.14437
1.14422
1.14417
1.14409
1.14387
1.15036
)
;
    }
    procBoundary5to13
    {
        type            processor;
        value           nonuniform List<scalar> 
25
(
1.14117
1.13864
1.13608
1.13346
1.13064
1.12775
1.12775
1.10985
1.10633
1.1031
1.09983
1.09618
1.09245
1.08868
1.08469
1.08062
1.07664
1.07269
1.06855
1.12448
1.12152
1.11853
1.11558
1.10985
1.11258
)
;
    }
}


// ************************************************************************* //
