/*--------------------------------*- C++ -*----------------------------------*\
  =========                 |
  \\      /  F ield         | OpenFOAM: The Open Source CFD Toolbox
   \\    /   O peration     | Website:  https://openfoam.org
    \\  /    A nd           | Version:  8
     \\/     M anipulation  |
\*---------------------------------------------------------------------------*/
FoamFile
{
    version     2.0;
    format      ascii;
    class       volScalarField;
    location    "3.8";
    object      p;
}
// * * * * * * * * * * * * * * * * * * * * * * * * * * * * * * * * * * * * * //

dimensions      [1 -1 -2 0 0 0 0];

internalField   nonuniform List<scalar> 
2600
(
1.24278
1.14388
1.37831
1.87337
2.12412
2.28403
2.52915
2.59117
2.50615
2.29985
1.24218
1.11135
1.41867
1.8561
2.12944
2.30112
2.55604
2.61956
2.50146
2.28921
1.23614
1.09308
1.43707
1.85089
2.17759
2.28226
2.59028
2.63858
2.51259
2.27841
1.24801
1.08252
1.42786
1.83931
2.20162
2.31189
2.61696
2.63654
2.53252
2.2915
1.2608
1.07389
1.40006
1.80214
2.19323
2.33083
2.63836
2.63399
2.54639
2.28747
1.2763
1.07667
1.37446
1.75405
2.17882
2.33198
2.65743
2.63417
2.55653
2.30006
1.28929
1.0944
1.33463
1.70419
2.16002
2.35279
2.65776
2.62421
2.56653
2.29441
1.30803
1.12889
1.30123
1.65234
2.08492
2.36501
2.657
2.62837
2.57382
2.29769
1.32845
1.16845
1.30623
1.57981
2.0618
2.37525
2.65984
2.63863
2.58185
2.30364
1.35106
1.21312
1.29245
1.52183
2.01334
2.38397
2.65816
2.65507
2.5758
2.30762
1.37173
1.24372
1.29861
1.45321
2.00658
2.43973
2.68443
2.65562
2.53434
2.30843
1.38257
1.26662
1.28835
1.39614
1.98857
2.46494
2.6772
2.6793
2.52971
2.31348
1.39745
1.27398
1.27466
1.37501
1.99566
2.52094
2.7036
2.66714
2.52939
2.30729
1.39858
1.27598
1.27183
1.37518
1.98618
2.51177
2.69315
2.68304
2.51634
2.30209
1.41142
1.28885
1.26944
1.37242
1.97364
2.51006
2.69911
2.67735
2.50994
2.28885
1.43029
1.31304
1.28475
1.36174
1.97871
2.50428
2.6878
2.68086
2.49168
2.28487
1.45303
1.32692
1.2838
1.37722
1.97688
2.49499
2.66517
2.6557
2.48433
2.29059
1.46713
1.32902
1.26962
1.3709
1.94942
2.47847
2.65008
2.65871
2.49078
2.28113
1.47095
1.33258
1.25819
1.31228
1.91116
2.4359
2.64162
2.64455
2.47868
2.26468
1.47241
1.35401
1.25688
1.24762
1.86004
2.38735
2.61998
2.6154
2.46877
2.26121
1.69281
1.40283
1.26959
1.20682
1.77895
2.3476
2.57794
2.59831
2.47992
2.2674
1.94839
1.47232
1.28357
1.19591
1.69418
2.31317
2.5534
2.57352
2.47054
2.26398
2.20653
1.54821
1.30651
1.22058
1.62198
2.27523
2.53493
2.54357
2.44997
2.25531
2.38723
1.64673
1.35291
1.2574
1.57263
2.23129
2.50805
2.51327
2.43479
2.24793
2.54383
1.75153
1.41126
1.29738
1.53775
2.187
2.48256
2.49616
2.42545
2.24386
2.66648
1.86033
1.47375
1.33209
1.51581
2.14381
2.45782
2.48706
2.41816
2.24234
2.76918
1.97282
1.53998
1.36121
1.50255
2.09572
2.43411
2.47911
2.40949
2.23278
2.85722
2.07784
1.62227
1.38913
1.49572
2.03771
2.40754
2.47125
2.40019
2.22312
2.94229
2.18123
1.70796
1.42482
1.50522
1.96836
2.37275
2.46611
2.39231
2.21563
3.02711
2.28213
1.78766
1.47605
1.51342
1.89307
2.32712
2.46067
2.38649
2.21193
3.10899
2.38278
1.87101
1.53684
1.52081
1.81963
2.2721
2.45292
2.38042
2.21021
3.18416
2.47824
1.95511
1.59849
1.53141
1.75325
2.20907
2.4384
2.37381
2.20898
3.25155
2.56954
2.03729
1.66635
1.55313
1.70155
2.14156
2.41608
2.36596
2.20651
3.31423
2.65269
2.12245
1.72827
1.57999
1.66588
2.06712
2.38413
2.35346
2.2022
3.37182
2.73064
2.2038
1.7944
1.61108
1.63925
1.98894
2.34282
2.33901
2.19575
3.42591
2.80279
2.28233
1.86326
1.64117
1.63769
1.91076
2.29562
2.32372
2.1859
3.4816
2.86918
2.35846
1.93177
1.6752
1.64185
1.84069
2.2436
2.3085
2.17415
3.53153
2.93234
2.42959
2.00206
1.72045
1.64882
1.78042
2.19032
2.29467
2.15954
3.57265
2.98897
2.50147
2.06733
1.76984
1.65885
1.73134
2.13144
2.28191
2.14811
3.61568
3.04498
2.57109
2.13324
1.82115
1.67273
1.69296
2.06662
2.26958
2.13857
5.92363
5.65294
5.45625
5.26267
5.07976
4.91291
4.7487
4.58452
4.31426
4.09551
5.51796
5.2748
5.15908
5.02323
4.89607
4.76562
4.61907
4.43474
4.15849
3.80347
5.40693
5.21886
5.12194
5.00435
4.90278
4.79176
4.65528
4.4685
4.17118
3.80645
5.23811
5.09709
5.02866
4.93794
4.85792
4.75411
4.62043
4.42383
4.11769
3.7382
5.08245
4.99417
4.96018
4.88468
4.81869
4.72089
4.58814
4.38381
4.08065
3.69056
4.95307
4.904
4.89231
4.83323
4.77856
4.67893
4.54395
4.33851
4.04736
3.65871
4.86479
4.8438
4.84416
4.79745
4.74429
4.64062
4.50592
4.30057
4.02222
3.64844
4.82197
4.81485
4.81302
4.76804
4.7118
4.59787
4.46028
4.2625
4.00192
3.65177
4.81501
4.80903
4.79635
4.74328
4.67829
4.57075
4.44104
4.23977
3.99101
3.66902
4.83676
4.82259
4.79604
4.73632
4.65901
4.55012
4.4117
4.22343
3.98969
3.69661
4.87237
4.83973
4.8004
4.73581
4.64996
4.53429
4.39298
4.21315
3.98934
3.72603
4.90219
4.84709
4.79679
4.72539
4.63151
4.5166
4.38132
4.20617
3.99543
3.75269
4.86517
4.80181
4.75408
4.68104
4.58829
4.47933
4.3529
4.19335
3.99987
3.77824
4.83384
4.7556
4.70065
4.62336
4.53933
4.44482
4.33063
4.18533
4.00796
3.80585
4.81099
4.72682
4.66962
4.59522
4.50995
4.42241
4.31636
4.1839
4.02397
3.84013
4.75421
4.67575
4.62467
4.55791
4.48893
4.40747
4.31262
4.19398
4.04936
3.87828
4.70003
4.63092
4.58734
4.53515
4.47752
4.41117
4.32445
4.2163
4.08002
3.91477
4.66034
4.6015
4.56869
4.5315
4.48583
4.42548
4.3451
4.24342
4.11186
3.94886
4.63801
4.5906
4.57276
4.54677
4.50501
4.44581
4.36619
4.26566
4.13969
3.9804
4.64057
4.61263
4.60181
4.57265
4.52861
4.46537
4.38392
4.28421
4.1623
4.00576
1.00251
1.00785
1.01378
1.02044
1.0279
1.03626
1.04646
1.05463
1.57811
3.98891
1.00251
1.00785
1.01378
1.02044
1.0279
1.03626
1.04646
1.05463
1.56246
3.96742
1.00251
1.00785
1.01378
1.02044
1.0279
1.03626
1.04647
1.0546
1.54487
3.93294
1.00251
1.00785
1.01378
1.02044
1.0279
1.03625
1.04647
1.05458
1.51574
3.89069
1.00251
1.00785
1.01378
1.02044
1.0279
1.03625
1.04648
1.05456
1.47683
3.84164
1.00251
1.00785
1.01378
1.02044
1.0279
1.03624
1.04648
1.05454
1.431
3.78045
1.00251
1.00785
1.01378
1.02044
1.02791
1.03624
1.04649
1.0545
1.38276
3.71163
1.00251
1.00785
1.01378
1.02044
1.02791
1.03623
1.04649
1.05447
1.33703
3.652
1.00251
1.00785
1.01378
1.02044
1.02791
1.03623
1.0465
1.05445
1.2951
3.60291
1.00251
1.00785
1.01378
1.02043
1.02791
1.03622
1.0465
1.05446
1.26428
3.56195
1.00251
1.00785
1.01378
1.02043
1.02791
1.03622
1.0465
1.05449
1.24114
3.51603
1.00251
1.00785
1.01378
1.02043
1.02791
1.03622
1.04648
1.05455
1.21804
3.46157
1.00251
1.00785
1.01378
1.02043
1.02792
1.03621
1.04647
1.05467
1.18768
3.41662
1.00251
1.00784
1.01379
1.02043
1.02792
1.03621
1.04644
1.05482
1.1477
3.38242
1.00251
1.00784
1.01379
1.02043
1.02792
1.0362
1.04642
1.055
1.11528
3.33781
1.00251
1.00784
1.01379
1.02043
1.02792
1.03619
1.04641
1.0552
1.09458
3.28561
1.00251
1.00784
1.01379
1.02043
1.02792
1.03619
1.0464
1.05542
1.08283
3.22879
1.00251
1.00784
1.01379
1.02043
1.02792
1.0362
1.04638
1.05564
1.07619
3.16461
1.00251
1.00784
1.01379
1.02043
1.02792
1.0362
1.04635
1.05586
1.07226
3.09443
1.00251
1.00784
1.01379
1.02043
1.02792
1.03622
1.04629
1.0561
1.06976
3.02042
1.00251
1.00784
1.01379
1.02043
1.02792
1.03622
1.04629
1.0561
1.06976
3.02041
1.00251
1.00784
1.01379
1.02043
1.02792
1.0362
1.04635
1.05586
1.07226
3.09423
1.00251
1.00784
1.01379
1.02043
1.02792
1.0362
1.04638
1.05564
1.07619
3.16437
1.00251
1.00784
1.01379
1.02043
1.02792
1.03619
1.0464
1.05542
1.08281
3.22864
1.00251
1.00784
1.01379
1.02043
1.02792
1.03619
1.04641
1.0552
1.09454
3.28561
1.00251
1.00784
1.01379
1.02043
1.02792
1.0362
1.04642
1.055
1.11518
3.33779
1.00251
1.00784
1.01379
1.02043
1.02792
1.03621
1.04644
1.05482
1.14755
3.38229
1.00251
1.00785
1.01378
1.02043
1.02792
1.03621
1.04647
1.05467
1.18752
3.41611
1.00251
1.00785
1.01378
1.02043
1.02791
1.03622
1.04648
1.05455
1.21788
3.4626
1.00251
1.00785
1.01378
1.02043
1.02791
1.03622
1.0465
1.05449
1.24097
3.51639
1.00251
1.00785
1.01378
1.02043
1.02791
1.03622
1.0465
1.05446
1.26402
3.56182
1.00251
1.00785
1.01378
1.02044
1.02791
1.03623
1.0465
1.05445
1.29476
3.60267
1.00251
1.00785
1.01378
1.02044
1.02791
1.03623
1.04649
1.05447
1.33668
3.65204
1.00251
1.00785
1.01378
1.02044
1.02791
1.03624
1.04649
1.05451
1.38241
3.71182
1.00251
1.00785
1.01378
1.02044
1.0279
1.03624
1.04648
1.05454
1.43067
3.78082
1.00251
1.00785
1.01378
1.02044
1.0279
1.03625
1.04648
1.05456
1.47654
3.84207
1.00251
1.00785
1.01378
1.02044
1.0279
1.03625
1.04647
1.05458
1.51549
3.89105
1.00251
1.00785
1.01378
1.02044
1.0279
1.03626
1.04647
1.05459
1.54465
3.93325
1.00251
1.00785
1.01378
1.02044
1.0279
1.03626
1.04646
1.05462
1.56231
3.96761
1.00251
1.00785
1.01378
1.02044
1.0279
1.03626
1.04646
1.05463
1.57806
3.98894
4.63703
4.60937
4.59965
4.57235
4.52982
4.46751
4.38717
4.28854
4.16722
4.01089
4.63636
4.58895
4.57196
4.54734
4.5067
4.44836
4.37011
4.27026
4.14454
3.9852
4.65975
4.60137
4.5692
4.533
4.48805
4.42876
4.34926
4.24787
4.11641
3.95315
4.69991
4.63151
4.58891
4.53762
4.48062
4.41501
4.32875
4.22065
4.08425
3.91851
4.75444
4.6768
4.62643
4.5604
4.4922
4.41128
4.31679
4.19815
4.05341
3.88158
4.81223
4.72857
4.67183
4.59799
4.51317
4.42618
4.32032
4.18773
4.02768
3.84285
4.83554
4.75821
4.70383
4.6269
4.54303
4.44865
4.33418
4.18864
4.011
3.80745
4.8697
4.80604
4.758
4.68526
4.5921
4.48268
4.35583
4.19607
4.00224
3.77857
4.89949
4.84304
4.79848
4.72852
4.63458
4.5192
4.38369
4.20826
3.99645
3.75124
4.87115
4.83946
4.80213
4.7381
4.65228
4.53623
4.39484
4.21449
3.98875
3.72226
4.83866
4.82479
4.79908
4.73909
4.66137
4.55209
4.41333
4.22421
3.98784
3.69118
4.81766
4.81195
4.79964
4.74644
4.68114
4.5733
4.44281
4.23995
3.98864
3.66183
4.82501
4.81814
4.81665
4.77165
4.71499
4.60036
4.46211
4.26269
3.99962
3.64177
4.86773
4.84718
4.84772
4.80112
4.74783
4.64338
4.50805
4.30083
4.01967
3.63468
4.95589
4.90723
4.89581
4.8369
4.78208
4.68188
4.54623
4.3387
4.0438
3.63912
5.08516
4.99709
4.96328
4.88786
4.82172
4.72352
4.58994
4.38341
4.07544
3.66611
5.24046
5.09961
5.03135
4.94057
4.86042
4.75638
4.62176
4.42272
4.10978
3.71174
5.40879
5.22104
5.12427
5.00677
4.90499
4.79356
4.65598
4.46598
4.16131
3.77784
5.51936
5.27666
5.16106
5.02525
4.89802
4.76722
4.61974
4.43278
4.14867
3.76579
5.92425
5.65409
5.45774
5.26437
5.08155
4.91452
4.74992
4.58275
4.30773
4.06164
3.62019
3.04216
2.57462
2.16864
1.86143
1.61573
1.57164
1.90051
2.26132
2.11087
3.57663
2.98259
2.50479
2.11125
1.81376
1.59796
1.59181
1.98017
2.28662
2.12425
3.53444
2.92108
2.43404
2.05452
1.77108
1.5888
1.62755
2.05731
2.307
2.1355
3.48267
2.85541
2.3603
1.99984
1.72931
1.58421
1.67534
2.12991
2.32325
2.14512
3.42524
2.783
2.28538
1.94617
1.69317
1.58739
1.73817
2.1988
2.33865
2.15677
3.36739
2.70554
2.20895
1.89116
1.65917
1.5976
1.81841
2.26108
2.35382
2.16908
3.30553
2.62233
2.1267
1.83456
1.63448
1.61117
1.91682
2.32063
2.36639
2.18069
3.23877
2.53307
2.03989
1.78146
1.61716
1.63222
2.02599
2.36446
2.37494
2.19069
3.16839
2.43643
1.94751
1.73046
1.60823
1.66628
2.12946
2.40134
2.38095
2.19906
3.09032
2.3328
1.85854
1.68452
1.61535
1.72392
2.21467
2.43101
2.3871
2.20774
3.0046
2.22526
1.76641
1.64621
1.62845
1.79434
2.28166
2.45862
2.39409
2.21783
2.91384
2.11534
1.67273
1.62654
1.64791
1.86086
2.3334
2.47879
2.40222
2.22697
2.82201
1.99328
1.59117
1.61721
1.67505
1.92545
2.37667
2.49591
2.40973
2.2344
2.72202
1.86233
1.53521
1.61168
1.71037
1.98779
2.41272
2.50601
2.41616
2.23885
2.60475
1.72951
1.49381
1.61766
1.75692
2.05484
2.443
2.51137
2.42637
2.24312
2.46983
1.59897
1.44553
1.62971
1.82288
2.11709
2.47149
2.51507
2.44059
2.25232
2.29947
1.46934
1.40189
1.64737
1.8945
2.16169
2.49294
2.52224
2.45141
2.26404
2.10386
1.335
1.36578
1.6831
1.96848
2.19672
2.50153
2.52993
2.45461
2.26655
1.83962
1.23724
1.33288
1.74587
2.04376
2.22321
2.5039
2.5406
2.46177
2.2608
1.52697
1.1744
1.33938
1.82448
2.10029
2.24966
2.51073
2.56304
2.48472
2.27449
4.25821
3.97502
3.65319
3.30052
2.93418
2.56256
2.20897
1.88741
1.51133
1.1605
4.25543
3.97364
3.64895
3.29477
2.92896
2.55802
2.20531
1.88149
1.50535
1.16435
4.25103
3.97097
3.64123
3.28853
2.91993
2.54973
2.19847
1.8708
1.4958
1.17149
4.24471
3.96597
3.62995
3.27656
2.90668
2.53761
2.18821
1.855
1.48447
1.18362
4.23645
3.95623
3.61534
3.26175
2.88862
2.52132
2.17395
1.83276
1.47192
1.20092
4.22606
3.94227
3.59742
3.24197
2.86631
2.50146
2.15544
1.80467
1.46266
1.22572
4.21363
3.92379
3.57795
3.21797
2.83984
2.47749
2.13197
1.77033
1.45528
1.25905
4.19865
3.90033
3.5554
3.18865
2.80813
2.44769
2.10329
1.73628
1.45057
1.30397
4.18101
3.87395
3.52872
3.15392
2.77056
2.41304
2.06664
1.69183
1.44129
1.36593
4.16002
3.84014
3.4951
3.11364
2.72582
2.3744
2.02832
1.65322
1.43265
1.44276
4.13526
3.80123
3.45295
3.06447
2.67477
2.32644
1.97199
1.60772
1.43614
1.52882
4.10395
3.7577
3.40116
3.00829
2.6169
2.27382
1.91502
1.58014
1.45529
1.62203
4.06504
3.71378
3.33646
2.95097
2.55351
2.22084
1.8558
1.5649
1.49505
1.71062
4.02231
3.66318
3.27418
2.87088
2.48278
2.15385
1.79625
1.55954
1.55358
1.79295
3.98413
3.59621
3.19313
2.78661
2.41066
2.08127
1.74079
1.55512
1.6332
1.86772
3.94645
3.51469
3.10485
2.69662
2.328
2.00367
1.698
1.5572
1.73676
1.92771
3.89681
3.43514
3.00949
2.59682
2.24279
1.91439
1.65795
1.57266
1.85504
1.97908
3.83025
3.33748
2.90964
2.49063
2.14692
1.82771
1.61948
1.60281
1.98214
2.02042
3.7627
3.23362
2.79797
2.37548
2.04404
1.73774
1.59254
1.67721
2.10624
2.05521
3.68173
3.12813
2.67495
2.25703
1.94003
1.66069
1.57281
1.79027
2.20501
2.08758
3.67662
3.12719
2.67106
2.23327
1.90528
1.7002
1.6565
1.95354
2.23816
2.12689
3.75713
3.22953
2.79348
2.35656
2.01846
1.75194
1.63704
1.79864
2.17665
2.10404
3.82437
3.33017
2.9016
2.47587
2.12628
1.81928
1.63742
1.67078
2.06678
2.06327
3.89169
3.4268
2.99821
2.58439
2.22328
1.9046
1.65337
1.58446
1.9168
2.01131
3.94276
3.50666
3.09213
2.68241
2.31362
1.99191
1.68893
1.54735
1.7531
1.95246
3.98205
3.58852
3.18074
2.77474
2.39058
2.07859
1.73539
1.54213
1.61147
1.87691
4.02109
3.65771
3.26306
2.85803
2.46919
2.15069
1.79841
1.54143
1.51467
1.78343
4.06464
3.70991
3.32664
2.93504
2.54419
2.22123
1.86859
1.55371
1.45474
1.67861
4.10452
3.75486
3.39223
2.99947
2.60893
2.27185
1.92637
1.57516
1.42819
1.57137
4.13665
3.79915
3.44677
3.05667
2.67424
2.32487
1.98278
1.61154
1.41988
1.47364
4.16186
3.83918
3.49068
3.10778
2.71573
2.36802
2.03263
1.65667
1.42267
1.39313
4.18304
3.87394
3.52604
3.14901
2.76248
2.40916
2.07008
1.69977
1.43397
1.32726
4.20059
3.90062
3.55419
3.18524
2.80331
2.44484
2.10497
1.74552
1.44661
1.28016
4.21524
3.92467
3.57789
3.2166
2.8378
2.47667
2.13318
1.78003
1.45771
1.24632
4.22724
3.94344
3.59828
3.24255
2.86687
2.50244
2.15725
1.81282
1.47196
1.22292
4.23705
3.95769
3.61734
3.26399
2.8913
2.5241
2.17731
1.83847
1.47953
1.20378
4.24463
3.96764
3.63268
3.27999
2.91104
2.54228
2.19293
1.85938
1.48937
1.1895
4.25026
3.97265
3.64453
3.29312
2.92565
2.55603
2.20479
1.875
1.49555
1.1776
4.2541
3.97529
3.6526
3.30006
2.9357
2.56546
2.2131
1.88572
1.5013
1.16916
4.2565
3.9766
3.65687
3.30602
2.94155
2.57069
2.21774
1.89179
1.50503
1.1644
4.69081
4.66782
4.6472
4.60508
4.55213
4.48693
4.40534
4.30658
4.18905
4.04867
4.76419
4.73589
4.69008
4.63215
4.57148
4.50361
4.42693
4.33199
4.21698
4.09555
4.76434
4.76578
4.70716
4.65048
4.58934
4.52019
4.44284
4.3547
4.24629
4.13202
4.7386
4.77394
4.6966
4.64383
4.58737
4.52422
4.45373
4.36838
4.27403
4.15902
4.71561
4.77941
4.69934
4.65149
4.59527
4.53172
4.46253
4.37942
4.29161
4.18383
4.68819
4.7741
4.698
4.653
4.59878
4.53909
4.47364
4.39748
4.3098
4.21196
4.65799
4.76596
4.69765
4.65643
4.6044
4.54686
4.48177
4.40837
4.32186
4.23508
4.62398
4.75519
4.69406
4.65642
4.60697
4.5526
4.49002
4.42114
4.34068
4.26153
4.59095
4.7459
4.68978
4.65545
4.60921
4.55854
4.49895
4.43397
4.36116
4.28807
4.56292
4.74154
4.68823
4.65582
4.61205
4.56456
4.50933
4.44927
4.38445
4.31468
4.53964
4.74258
4.69064
4.65867
4.6165
4.57155
4.52047
4.46462
4.4052
4.33795
4.51872
4.74737
4.69634
4.66403
4.62299
4.57981
4.53189
4.47926
4.4231
4.35768
4.49936
4.75428
4.70399
4.67134
4.63122
4.58915
4.54321
4.49253
4.43766
4.37314
4.48166
4.76229
4.71268
4.67995
4.64061
4.59921
4.55425
4.50444
4.44952
4.3855
4.46609
4.77089
4.72184
4.68917
4.65034
4.60927
4.56455
4.51487
4.4593
4.39561
4.45312
4.77969
4.73086
4.69812
4.65949
4.61842
4.57353
4.5236
4.46741
4.40379
4.44279
4.78778
4.73866
4.70552
4.66682
4.62556
4.58034
4.53008
4.47347
4.40966
4.43446
4.79429
4.74468
4.71089
4.67205
4.63059
4.58515
4.53456
4.47776
4.41368
4.42777
4.79698
4.74782
4.7136
4.67469
4.6332
4.58773
4.53696
4.48031
4.41609
4.42414
4.79667
4.74863
4.71542
4.67679
4.63536
4.58979
4.53877
4.4822
4.41763
1.00251
1.00784
1.01379
1.02043
1.02792
1.03624
1.04618
1.05639
1.06795
2.92991
1.00251
1.00784
1.01379
1.02043
1.02792
1.03626
1.04603
1.0567
1.0668
2.82481
1.00251
1.00784
1.01379
1.02043
1.02792
1.03627
1.04595
1.05695
1.0663
2.73195
1.00251
1.00784
1.01379
1.02042
1.02792
1.03627
1.04593
1.05713
1.06612
2.66604
1.00251
1.00784
1.01379
1.02042
1.02792
1.03627
1.04594
1.05727
1.06609
2.59915
1.00251
1.00784
1.01379
1.02042
1.02793
1.03626
1.04595
1.05739
1.06613
2.534
1.00251
1.00784
1.01379
1.02042
1.02793
1.03627
1.04594
1.05748
1.0662
2.47013
1.00251
1.00784
1.01379
1.02042
1.02793
1.03627
1.0459
1.05755
1.06629
2.4085
1.00251
1.00784
1.01379
1.02042
1.02793
1.03628
1.04586
1.05761
1.06638
2.35174
1.00251
1.00784
1.01379
1.02042
1.02792
1.0363
1.04582
1.05764
1.06646
2.30082
1.00251
1.00784
1.01379
1.02042
1.02792
1.03631
1.04578
1.05766
1.06653
2.25485
1.00251
1.00784
1.01379
1.02042
1.02791
1.03633
1.04575
1.05768
1.06659
2.21264
1.00251
1.00784
1.01379
1.02042
1.02791
1.03635
1.04572
1.05768
1.06664
2.17413
1.00251
1.00784
1.01379
1.02043
1.0279
1.03636
1.0457
1.0577
1.06668
2.13963
1.00251
1.00784
1.01379
1.02043
1.02789
1.03638
1.04568
1.05773
1.06672
2.10951
1.00251
1.00784
1.01379
1.02043
1.02789
1.03639
1.04566
1.05776
1.06674
2.08415
1.00251
1.00784
1.01379
1.02043
1.02788
1.0364
1.04565
1.0578
1.06676
2.06365
1.00251
1.00784
1.01379
1.02043
1.02788
1.03641
1.04565
1.05783
1.06677
2.04788
1.00251
1.00784
1.01379
1.02044
1.02788
1.03641
1.04564
1.05784
1.06677
2.03709
1.00251
1.00784
1.01379
1.02044
1.02787
1.03642
1.04563
1.0579
1.06678
2.03203
1.00251
1.00784
1.01379
1.02044
1.02787
1.03642
1.04563
1.0579
1.06678
2.03174
1.00251
1.00784
1.01379
1.02044
1.02788
1.03641
1.04564
1.05784
1.06677
2.03682
1.00251
1.00784
1.01379
1.02043
1.02788
1.03641
1.04565
1.05783
1.06677
2.04767
1.00251
1.00784
1.01379
1.02043
1.02788
1.0364
1.04565
1.0578
1.06676
2.06352
1.00251
1.00784
1.01379
1.02043
1.02789
1.03639
1.04566
1.05776
1.06674
2.08411
1.00251
1.00784
1.01379
1.02043
1.02789
1.03638
1.04568
1.05773
1.06672
2.10957
1.00251
1.00784
1.01379
1.02043
1.0279
1.03636
1.0457
1.0577
1.06668
2.13979
1.00251
1.00784
1.01379
1.02042
1.02791
1.03635
1.04572
1.05768
1.06664
2.17438
1.00251
1.00784
1.01379
1.02042
1.02791
1.03633
1.04575
1.05768
1.06659
2.21298
1.00251
1.00784
1.01379
1.02042
1.02792
1.03631
1.04578
1.05766
1.06653
2.25522
1.00251
1.00784
1.01379
1.02042
1.02792
1.0363
1.04582
1.05764
1.06646
2.30114
1.00251
1.00784
1.01379
1.02042
1.02793
1.03628
1.04586
1.05761
1.06638
2.35189
1.00251
1.00784
1.01379
1.02042
1.02793
1.03627
1.0459
1.05755
1.06629
2.40842
1.00251
1.00784
1.01379
1.02042
1.02793
1.03627
1.04594
1.05748
1.0662
2.46989
1.00251
1.00784
1.01379
1.02042
1.02793
1.03626
1.04595
1.05739
1.06613
2.53365
1.00251
1.00784
1.01379
1.02042
1.02792
1.03627
1.04594
1.05727
1.06609
2.59871
1.00251
1.00784
1.01379
1.02042
1.02792
1.03627
1.04593
1.05712
1.06612
2.66545
1.00251
1.00784
1.01379
1.02043
1.02792
1.03627
1.04595
1.05695
1.06629
2.73163
1.00251
1.00784
1.01379
1.02043
1.02792
1.03626
1.04603
1.0567
1.06679
2.82485
1.00251
1.00784
1.01379
1.02043
1.02792
1.03624
1.04618
1.05639
1.06795
2.93012
4.42474
4.79811
4.75072
4.71783
4.67956
4.63836
4.59297
4.54193
4.48523
4.42028
4.42836
4.79835
4.74978
4.71584
4.67725
4.63599
4.59067
4.53989
4.48308
4.41849
4.43503
4.79551
4.74637
4.71283
4.67427
4.63304
4.58772
4.53712
4.48009
4.41564
4.44333
4.78879
4.74001
4.70707
4.66857
4.6275
4.58234
4.53206
4.47516
4.41098
4.45364
4.78049
4.73185
4.69922
4.66068
4.6197
4.57477
4.52477
4.46825
4.40427
4.46658
4.77149
4.72247
4.68979
4.65092
4.60979
4.56491
4.51507
4.45916
4.39515
4.4821
4.76267
4.71294
4.68008
4.64056
4.59893
4.5537
4.50363
4.44836
4.38409
4.49973
4.75443
4.70389
4.67097
4.63056
4.58812
4.54183
4.49079
4.43561
4.37092
4.51897
4.74727
4.69583
4.66316
4.62174
4.57815
4.52984
4.47685
4.42044
4.35496
4.53968
4.74215
4.68967
4.65732
4.61476
4.5694
4.51799
4.46185
4.40228
4.33512
4.56258
4.74066
4.68678
4.65405
4.60991
4.56207
4.50658
4.44633
4.38153
4.31196
4.59007
4.74459
4.68802
4.65344
4.60692
4.55597
4.49618
4.43108
4.35843
4.28576
4.62265
4.75357
4.69211
4.65432
4.60467
4.5501
4.48739
4.41848
4.33826
4.25967
4.65651
4.76433
4.69583
4.65451
4.60232
4.54461
4.47944
4.40612
4.31991
4.23387
4.68688
4.77272
4.69648
4.65137
4.59701
4.53723
4.47182
4.39591
4.30864
4.21177
4.71467
4.77835
4.69814
4.65008
4.59372
4.53016
4.46123
4.37862
4.29161
4.18503
4.73803
4.7729
4.69547
4.64255
4.58615
4.52329
4.45343
4.36883
4.27559
4.16158
4.76414
4.76459
4.70605
4.6492
4.58814
4.51961
4.44332
4.35645
4.24924
4.13599
4.76198
4.73328
4.68762
4.63025
4.57048
4.50381
4.42849
4.33497
4.221
4.10049
4.68654
4.66431
4.64465
4.60383
4.55208
4.48816
4.40783
4.31028
4.19381
4.05401
)
;

boundaryField
{
    inlet
    {
        type            fixedValue;
        value           uniform 1;
    }
    outlet
    {
        type            zeroGradient;
    }
    triangle
    {
        type            zeroGradient;
    }
    top
    {
        type            symmetryPlane;
    }
    bottom
    {
        type            symmetryPlane;
    }
    defaultFaces
    {
        type            empty;
    }
}


// ************************************************************************* //
