/*--------------------------------*- C++ -*----------------------------------*\
  =========                 |
  \\      /  F ield         | OpenFOAM: The Open Source CFD Toolbox
   \\    /   O peration     | Website:  https://openfoam.org
    \\  /    A nd           | Version:  8
     \\/     M anipulation  |
\*---------------------------------------------------------------------------*/
FoamFile
{
    version     2.0;
    format      ascii;
    class       volScalarField;
    location    "3.8";
    object      rho;
}
// * * * * * * * * * * * * * * * * * * * * * * * * * * * * * * * * * * * * * //

dimensions      [1 -3 0 0 0 0 0];

internalField   nonuniform List<scalar> 
2600
(
1.14405
1.18659
1.41804
1.80647
2.03107
2.223
2.46698
2.51592
2.44144
2.27666
1.13092
1.12012
1.40191
1.72971
1.95418
2.1775
2.46753
2.52862
2.41836
2.23273
1.11718
1.06508
1.35885
1.64405
1.87561
2.08261
2.46404
2.52955
2.39329
2.17519
1.11737
1.02741
1.29463
1.55509
1.7842
2.00247
2.44596
2.50906
2.36203
2.12656
1.12002
1.00527
1.23172
1.47561
1.71592
1.92833
2.4165
2.4774
2.3193
2.07
1.12644
0.998576
1.19093
1.42084
1.68831
1.88126
2.38079
2.43523
2.2734
2.03808
1.13191
1.00402
1.15554
1.38245
1.6759
1.87521
2.32696
2.37522
2.23231
2.01207
1.14107
1.02207
1.12844
1.34751
1.63752
1.87448
2.26369
2.31698
2.19877
2.00547
1.15152
1.04498
1.12739
1.30051
1.6301
1.87543
2.19846
2.2602
2.17832
2.00859
1.16407
1.07109
1.11321
1.2602
1.61273
1.87795
2.13892
2.21092
2.16163
2.02072
1.17683
1.0878
1.11134
1.21599
1.63673
1.91803
2.11652
2.16534
2.1344
2.04647
1.18471
1.10162
1.10077
1.19175
1.67935
1.96356
2.09597
2.15337
2.14036
2.08948
1.19466
1.10957
1.09543
1.20744
1.75567
2.05096
2.10757
2.13628
2.16251
2.13372
1.19522
1.11965
1.11661
1.25575
1.82301
2.11629
2.10884
2.14433
2.18685
2.17921
1.20254
1.14113
1.16197
1.31088
1.87439
2.19085
2.13423
2.15138
2.21855
2.21381
1.21326
1.16564
1.21554
1.35123
1.92244
2.25893
2.17273
2.18801
2.24689
2.24716
1.22519
1.17394
1.2337
1.40078
1.95512
2.31394
2.22803
2.24034
2.28913
2.27951
1.2326
1.17147
1.23287
1.43403
1.96456
2.34685
2.3027
2.33226
2.34392
2.29357
1.23773
1.17941
1.24816
1.43012
1.96127
2.3466
2.38181
2.41223
2.38202
2.29506
1.26118
1.23093
1.29312
1.4159
1.9417
2.33208
2.43634
2.45927
2.40916
2.30075
1.49716
1.34441
1.3602
1.41136
1.89527
2.31927
2.45681
2.49028
2.43894
2.3108
1.76993
1.47936
1.41831
1.42392
1.84466
2.30877
2.47105
2.4995
2.4473
2.31267
2.02472
1.59784
1.46813
1.4594
1.80037
2.29311
2.47494
2.49295
2.44158
2.30971
2.21503
1.71862
1.53087
1.50037
1.76912
2.27015
2.46378
2.4795
2.43546
2.30683
2.37829
1.83589
1.60136
1.53938
1.74518
2.24396
2.4481
2.47275
2.43193
2.30612
2.50809
1.9504
1.67121
1.57208
1.72978
2.21608
2.43241
2.47106
2.42935
2.30739
2.614
2.06015
1.73821
1.59935
1.7209
2.18328
2.41945
2.47042
2.42579
2.30287
2.70103
2.15474
1.81257
1.62501
1.71692
2.14381
2.40776
2.47005
2.42222
2.29837
2.77991
2.24191
1.88639
1.65673
1.72845
2.09821
2.39322
2.47106
2.42034
2.29557
2.85426
2.32415
1.95423
1.70107
1.74152
2.04877
2.37095
2.47192
2.42012
2.29541
2.92302
2.40562
2.0247
1.75377
1.75551
1.99801
2.33976
2.4714
2.41971
2.29657
2.98532
2.48423
2.09579
1.81049
1.76908
1.95074
2.30061
2.46585
2.41885
2.29814
3.03995
2.56113
2.16589
1.87338
1.78996
1.91378
2.25672
2.45419
2.41702
2.29901
3.08635
2.63291
2.23918
1.93103
1.81549
1.8896
2.20633
2.4353
2.41187
2.29892
3.12097
2.70011
2.31057
1.99181
1.84584
1.87353
2.15146
2.40953
2.40533
2.29752
3.14228
2.76
2.38034
2.05524
1.87666
1.87811
2.09512
2.37953
2.3981
2.29355
3.15261
2.80975
2.44772
2.11903
1.91257
1.88627
2.04508
2.34624
2.39075
2.28789
3.1502
2.84809
2.50897
2.18416
1.9576
1.89714
2.00248
2.31195
2.3841
2.27974
3.1388
2.87096
2.56548
2.24365
2.00503
1.91087
1.96805
2.27283
2.37798
2.27369
3.13203
2.88409
2.6116
2.29927
2.05228
1.92798
1.94119
2.2285
2.37223
2.26905
4.08495
3.95261
3.86098
3.77208
3.68851
3.61182
3.53475
3.45948
3.32869
3.16139
3.90578
3.78597
3.73334
3.67028
3.61095
3.5492
3.4784
3.38843
3.24858
3.03905
3.88989
3.7984
3.75443
3.6977
3.64777
3.59282
3.52524
3.43213
3.27973
3.09719
3.83511
3.76636
3.73655
3.69311
3.65436
3.6039
3.53964
3.44314
3.28734
3.10744
3.78323
3.73979
3.72728
3.69239
3.66267
3.61872
3.56022
3.46565
3.31592
3.13043
3.74438
3.71983
3.7182
3.6925
3.67264
3.63387
3.58116
3.4919
3.35115
3.15956
3.72282
3.71171
3.7154
3.69762
3.68729
3.65825
3.61499
3.52917
3.39185
3.1961
3.71616
3.70904
3.70967
3.69558
3.69492
3.67584
3.64339
3.5652
3.43108
3.23434
3.72
3.7083
3.70088
3.68281
3.68364
3.68082
3.66666
3.59323
3.46367
3.27381
3.73432
3.71579
3.69717
3.67113
3.6651
3.66772
3.65621
3.59778
3.48324
3.31071
3.75829
3.72884
3.69898
3.66462
3.64442
3.63828
3.62872
3.58599
3.48699
3.33961
3.78567
3.7447
3.70499
3.66003
3.62084
3.59693
3.58556
3.55495
3.4795
3.35855
3.7846
3.73976
3.69897
3.64657
3.5942
3.55263
3.52598
3.50015
3.45158
3.36462
3.79201
3.73953
3.69369
3.63558
3.5774
3.52609
3.48216
3.44696
3.41101
3.35543
3.80374
3.74921
3.70214
3.64465
3.58068
3.52052
3.46299
3.41203
3.37323
3.33575
3.79263
3.74182
3.69875
3.64568
3.58949
3.52686
3.46369
3.4017
3.35089
3.31236
3.77867
3.73319
3.69561
3.65119
3.60136
3.54523
3.47973
3.41139
3.34598
3.29223
3.77095
3.73116
3.70078
3.66549
3.62275
3.56889
3.505
3.43233
3.35446
3.28142
3.77277
3.7391
3.71858
3.69022
3.64997
3.59611
3.53163
3.45531
3.37123
3.28224
3.78736
3.76519
3.75011
3.72079
3.67974
3.62414
3.55728
3.47929
3.39209
3.2924
1.40251
1.40785
1.41376
1.42039
1.4278
1.43609
1.44616
1.45425
1.81204
3.21491
1.40251
1.40785
1.41376
1.42039
1.4278
1.43609
1.44616
1.45424
1.80467
3.21216
1.40251
1.40785
1.41376
1.42039
1.4278
1.43608
1.44616
1.45422
1.79536
3.21117
1.40251
1.40785
1.41376
1.42039
1.4278
1.43608
1.44617
1.4542
1.77924
3.21237
1.40251
1.40784
1.41376
1.42039
1.4278
1.43607
1.44617
1.45418
1.75807
3.21338
1.40251
1.40784
1.41376
1.42039
1.4278
1.43607
1.44618
1.45416
1.73333
3.20816
1.40251
1.40784
1.41376
1.42039
1.4278
1.43606
1.44618
1.45412
1.7083
3.19612
1.40251
1.40784
1.41376
1.42039
1.42781
1.43606
1.44619
1.45409
1.68748
3.18539
1.40251
1.40784
1.41376
1.42039
1.42781
1.43606
1.4462
1.45406
1.66899
3.17495
1.40251
1.40784
1.41376
1.42038
1.42781
1.43605
1.4462
1.45407
1.65155
3.16021
1.40251
1.40784
1.41376
1.42038
1.42781
1.43605
1.4462
1.4541
1.63445
3.13721
1.40251
1.40784
1.41376
1.42038
1.42781
1.43605
1.44619
1.45415
1.61405
3.1095
1.40251
1.40784
1.41376
1.42038
1.42782
1.43604
1.44617
1.45427
1.58507
3.09202
1.40251
1.40784
1.41376
1.42038
1.42782
1.43603
1.44615
1.45441
1.54607
3.08423
1.40251
1.40784
1.41377
1.42038
1.42782
1.43603
1.44613
1.45459
1.5142
3.06901
1.40251
1.40784
1.41377
1.42038
1.42782
1.43602
1.44611
1.45479
1.49376
3.04678
1.40251
1.40784
1.41377
1.42038
1.42782
1.43602
1.4461
1.455
1.48211
3.01895
1.40251
1.40784
1.41377
1.42038
1.42782
1.43602
1.44609
1.45522
1.47552
2.98407
1.40251
1.40784
1.41377
1.42038
1.42782
1.43603
1.44606
1.45544
1.47162
2.94375
1.40251
1.40784
1.41377
1.42038
1.42782
1.43605
1.446
1.45567
1.46914
2.89977
1.40251
1.40784
1.41377
1.42038
1.42782
1.43605
1.446
1.45567
1.46915
2.89985
1.40251
1.40784
1.41377
1.42038
1.42782
1.43603
1.44606
1.45544
1.47162
2.94368
1.40251
1.40784
1.41377
1.42038
1.42782
1.43602
1.44609
1.45522
1.47552
2.98393
1.40251
1.40784
1.41377
1.42038
1.42782
1.43602
1.4461
1.455
1.4821
3.01885
1.40251
1.40784
1.41377
1.42038
1.42782
1.43602
1.44611
1.45479
1.49372
3.04676
1.40251
1.40784
1.41377
1.42038
1.42782
1.43603
1.44613
1.45459
1.51411
3.06893
1.40251
1.40784
1.41376
1.42038
1.42782
1.43603
1.44615
1.45441
1.54593
3.08398
1.40251
1.40784
1.41376
1.42038
1.42782
1.43604
1.44617
1.45427
1.58491
3.09133
1.40251
1.40784
1.41376
1.42038
1.42781
1.43605
1.44619
1.45415
1.6139
3.10959
1.40251
1.40784
1.41376
1.42038
1.42781
1.43605
1.4462
1.4541
1.6343
3.13683
1.40251
1.40784
1.41376
1.42038
1.42781
1.43605
1.4462
1.45407
1.65136
3.15954
1.40251
1.40784
1.41376
1.42039
1.42781
1.43606
1.4462
1.45406
1.6688
3.1744
1.40251
1.40784
1.41376
1.42039
1.42781
1.43606
1.44619
1.45409
1.68731
3.18522
1.40251
1.40784
1.41376
1.42039
1.4278
1.43606
1.44618
1.45412
1.7081
3.19621
1.40251
1.40784
1.41376
1.42039
1.4278
1.43607
1.44618
1.45416
1.73314
3.20845
1.40251
1.40784
1.41376
1.42039
1.4278
1.43607
1.44617
1.45418
1.75791
3.21376
1.40251
1.40785
1.41376
1.42039
1.4278
1.43608
1.44617
1.4542
1.77912
3.21272
1.40251
1.40785
1.41376
1.42039
1.4278
1.43608
1.44616
1.45421
1.79527
3.21147
1.40251
1.40785
1.41376
1.42039
1.4278
1.43609
1.44616
1.45424
1.80462
3.21234
1.40251
1.40785
1.41376
1.42039
1.4278
1.43609
1.44616
1.45425
1.81203
3.21495
3.7856
3.76353
3.74901
3.72067
3.68047
3.62541
3.559
3.48175
3.395
3.29561
3.77193
3.73821
3.71817
3.69057
3.65093
3.59749
3.53366
3.45793
3.37414
3.28541
3.77058
3.73098
3.70104
3.66632
3.62393
3.57055
3.50728
3.43489
3.35734
3.28459
3.77853
3.73338
3.69644
3.65248
3.60293
3.54721
3.48212
3.41402
3.34896
3.29542
3.79269
3.7423
3.69968
3.64696
3.5911
3.52888
3.46611
3.40446
3.35417
3.31558
3.80422
3.74998
3.70321
3.64607
3.58234
3.52264
3.46547
3.41496
3.37669
3.33863
3.7925
3.74051
3.69511
3.63734
3.57942
3.52843
3.48475
3.45
3.41418
3.35726
3.78698
3.74173
3.70073
3.64869
3.59647
3.55504
3.52867
3.50303
3.4541
3.36529
3.78351
3.74165
3.70544
3.66167
3.62295
3.59944
3.58835
3.55744
3.48078
3.35782
3.75662
3.72774
3.69941
3.66585
3.64646
3.64089
3.63143
3.58789
3.48699
3.33706
3.73465
3.71638
3.69841
3.67278
3.66748
3.67062
3.65884
3.59923
3.48233
3.30688
3.72079
3.70932
3.70236
3.68483
3.68633
3.684
3.66931
3.59427
3.46242
3.26893
3.71744
3.71049
3.7115
3.69785
3.69764
3.67866
3.64582
3.56625
3.43008
3.22794
3.72431
3.71346
3.71732
3.69985
3.68987
3.66076
3.61726
3.53027
3.39094
3.18776
3.74591
3.72157
3.72012
3.6946
3.67486
3.63603
3.58316
3.49284
3.34976
3.14822
3.78472
3.74137
3.72894
3.69411
3.66441
3.6204
3.56165
3.46605
3.31362
3.11708
3.83644
3.76774
3.73796
3.69449
3.65572
3.60524
3.54061
3.44293
3.28343
3.09371
3.89095
3.79959
3.75566
3.69895
3.64894
3.59382
3.52572
3.43085
3.27423
3.08217
3.90657
3.78701
3.73445
3.67141
3.61201
3.55008
3.47877
3.38713
3.2423
3.0186
4.08533
3.95329
3.86186
3.77307
3.68953
3.61274
3.53543
3.45798
3.32318
3.14416
3.13502
2.88231
2.61412
2.32548
2.0844
1.88173
1.84102
2.10142
2.36522
2.24763
3.14156
2.86689
2.56755
2.27634
2.04001
1.86009
1.8544
2.15889
2.38063
2.25492
3.15221
2.84066
2.51161
2.22356
1.99804
1.84641
1.87947
2.21347
2.39202
2.26041
3.15342
2.80054
2.44819
2.17092
1.95634
1.83756
1.91387
2.26331
2.39988
2.26442
3.14201
2.74645
2.38138
2.11936
1.91931
1.83674
1.96025
2.30945
2.40696
2.26988
3.11825
2.68253
2.31279
2.06791
1.88397
1.84114
2.01985
2.35056
2.41409
2.27595
3.08081
2.61138
2.24018
2.0165
1.85584
1.84842
2.09265
2.39003
2.41971
2.28176
3.03166
2.53509
2.16479
1.96852
1.83582
1.8601
2.17225
2.41808
2.42282
2.28666
2.975
2.45411
2.08578
1.92228
1.82531
1.88088
2.24428
2.44044
2.4243
2.29056
2.91088
2.36918
2.00985
1.88007
1.82918
1.92098
2.29914
2.45716
2.42533
2.29489
2.84045
2.28206
1.93151
1.84408
1.8372
1.97216
2.33933
2.47235
2.42667
2.30012
2.76437
2.19237
1.85196
1.8239
1.8491
2.02127
2.36884
2.4824
2.42865
2.30421
2.68293
2.0899
1.7826
1.81108
1.86623
2.0683
2.39296
2.49019
2.42974
2.3064
2.58932
1.97357
1.73205
1.80079
1.88843
2.11239
2.41231
2.49218
2.42944
2.30597
2.47669
1.84541
1.68996
1.7982
1.9187
2.15916
2.42836
2.48998
2.43114
2.30523
2.34187
1.70886
1.63859
1.79795
1.96294
2.20188
2.44556
2.48627
2.43513
2.30759
2.16991
1.5679
1.58486
1.79798
2.00838
2.23029
2.46115
2.48528
2.43655
2.31058
1.96538
1.42718
1.52579
1.80474
2.04818
2.24652
2.46808
2.48544
2.43263
2.30526
1.70017
1.32218
1.46187
1.81845
2.07366
2.24791
2.46836
2.48843
2.43121
2.2907
1.39757
1.24946
1.42659
1.82752
2.06988
2.2385
2.46692
2.50008
2.43868
2.28351
3.63821
3.44811
3.22278
2.96264
2.68839
2.42579
2.20515
2.02288
1.77557
1.49666
3.63614
3.4469
3.21961
2.95824
2.68433
2.42239
2.20262
2.01864
1.77089
1.50038
3.63236
3.44398
3.21311
2.95207
2.67643
2.41592
2.19811
2.01146
1.76391
1.50744
3.62646
3.43828
3.20262
2.94035
2.66435
2.40649
2.19197
2.00162
1.75642
1.51946
3.61817
3.42805
3.18784
2.9246
2.64787
2.39447
2.1845
1.98865
1.7493
1.5366
3.60739
3.41379
3.16917
2.90415
2.62803
2.38105
2.17614
1.97319
1.74677
1.56083
3.59451
3.39602
3.14876
2.88088
2.60601
2.36669
2.16678
1.95469
1.74742
1.59237
3.57972
3.37515
3.12656
2.85442
2.58202
2.35109
2.15641
1.93773
1.7517
1.63274
3.56352
3.35238
3.10207
2.8251
2.55653
2.33574
2.14305
1.91336
1.7529
1.68615
3.54552
3.32467
3.07258
2.79366
2.52977
2.32175
2.13113
1.89431
1.75041
1.75228
3.52501
3.29247
3.03674
2.75846
2.5036
2.30552
2.10753
1.87011
1.75487
1.82436
3.49944
3.25484
2.99408
2.72227
2.47887
2.28992
2.08341
1.86031
1.77211
1.89982
3.4669
3.21332
2.9436
2.69078
2.45703
2.2772
2.05638
1.8579
1.80509
1.96922
3.42806
3.16503
2.8975
2.65218
2.43657
2.25537
2.02665
1.85836
1.85305
2.03289
3.3863
3.10577
2.84704
2.6206
2.41899
2.22714
1.99583
1.8551
1.91857
2.08994
3.34001
3.04196
2.80402
2.59309
2.39288
2.18961
1.96976
1.85495
2.00104
2.13293
3.28558
2.99126
2.76935
2.56179
2.35858
2.13446
1.93982
1.86298
2.0904
2.16639
3.22442
2.94556
2.74177
2.52178
2.30575
2.07162
1.90377
1.88187
2.18047
2.1919
3.17559
2.91423
2.70921
2.46419
2.23476
1.99759
1.87151
1.93699
2.26336
2.2148
3.14263
2.89665
2.66329
2.38982
2.15188
1.92712
1.84644
2.02063
2.32886
2.23422
3.13935
2.89598
2.66022
2.37211
2.12424
1.96008
1.91709
2.14906
2.3547
2.26462
3.17211
2.91151
2.70554
2.44981
2.2144
2.01005
1.90876
2.03564
2.31735
2.25276
3.2208
2.94078
2.73576
2.51046
2.28922
2.06542
1.91576
1.93905
2.24496
2.22561
3.28243
2.98594
2.76143
2.55214
2.34332
2.12655
1.9351
1.87288
2.13872
2.19134
3.33777
3.03701
2.79543
2.58235
2.38155
2.18021
1.9626
1.84735
2.01392
2.15174
3.3851
3.10105
2.83888
2.61185
2.40396
2.22504
1.99156
1.84569
1.89973
2.09563
3.42737
3.16168
2.8903
2.64329
2.4268
2.25325
2.02848
1.84529
1.81901
2.02387
3.46669
3.21099
2.93736
2.68021
2.4505
2.27768
2.06675
1.84898
1.77067
1.94298
3.49984
3.25308
2.98841
2.71662
2.47313
2.2884
2.09258
1.85621
1.74936
1.85866
3.52588
3.29115
3.03281
2.75359
2.50305
2.30424
2.1162
1.87378
1.74227
1.77839
3.54665
3.32406
3.06975
2.78999
2.52293
2.31729
2.13487
1.89752
1.74483
1.70902
3.56473
3.35232
3.10038
2.82196
2.55104
2.33313
2.14594
1.91998
1.74728
1.65306
3.58083
3.37528
3.12586
2.85212
2.57882
2.34926
2.15774
1.94507
1.74809
1.61212
3.59542
3.39651
3.1487
2.87992
2.60469
2.36625
2.16761
1.96221
1.74896
1.58102
3.60805
3.41445
3.16967
2.90454
2.62843
2.3818
2.17737
1.97944
1.75428
1.55825
3.61848
3.42893
3.18911
2.92607
2.64963
2.3964
2.18687
1.99302
1.75558
1.53917
3.62638
3.43932
3.20438
2.94258
2.66723
2.40969
2.19536
2.00494
1.76048
1.52476
3.63187
3.44505
3.21525
2.95502
2.68021
2.42019
2.20265
2.01458
1.76372
1.51301
3.63527
3.44793
3.22197
2.96165
2.68877
2.42742
2.20821
2.02175
1.76754
1.50479
3.63708
3.44909
3.22512
2.9662
2.69324
2.43126
2.21145
2.02609
1.77034
1.50027
3.83053
3.81248
3.79245
3.75746
3.71346
3.65929
3.59362
3.51578
3.42687
3.32791
3.8847
3.86562
3.83374
3.79229
3.74723
3.69596
3.63679
3.56325
3.47477
3.38097
3.8913
3.88989
3.85296
3.8156
3.77439
3.7268
3.6716
3.60613
3.52462
3.43445
3.88616
3.89883
3.85223
3.81919
3.78332
3.74221
3.69486
3.63601
3.56795
3.48119
3.88446
3.91142
3.86277
3.83184
3.79577
3.75503
3.71041
3.65633
3.59691
3.52101
3.87853
3.91926
3.87264
3.84233
3.80649
3.76753
3.72529
3.67637
3.61964
3.55491
3.86943
3.92419
3.88217
3.85404
3.81922
3.78101
3.73832
3.69066
3.63499
3.57889
3.85723
3.92591
3.88801
3.86216
3.82898
3.79257
3.75099
3.70547
3.65286
3.60146
3.84491
3.92743
3.89224
3.86819
3.83689
3.80276
3.763
3.71966
3.67128
3.62318
3.8353
3.93157
3.8978
3.87453
3.84442
3.8121
3.77502
3.73473
3.6911
3.64458
3.82862
3.9392
3.90603
3.88261
3.85306
3.82195
3.7872
3.74948
3.70917
3.66398
3.82357
3.94937
3.91654
3.89257
3.86331
3.83287
3.79968
3.76372
3.72544
3.68128
3.81941
3.96081
3.92824
3.90378
3.87476
3.84463
3.81228
3.77719
3.73962
3.6961
3.8158
3.97256
3.94022
3.91547
3.88668
3.8567
3.82466
3.78982
3.75204
3.70887
3.81279
3.98406
3.95193
3.92702
3.89834
3.86838
3.8363
3.80132
3.76294
3.71988
3.81059
3.99498
3.96292
3.93779
3.90906
3.87893
3.84658
3.81127
3.7723
3.72908
3.80916
4.0047
3.97237
3.94679
3.9178
3.88736
3.85464
3.81897
3.77956
3.73598
3.80778
4.01211
3.97933
3.95312
3.92387
3.89316
3.86019
3.82422
3.78458
3.74067
3.80519
4.01509
3.9825
3.95607
3.92678
3.89604
3.86304
3.82692
3.78734
3.74325
3.80277
4.01487
3.98304
3.95734
3.9283
3.89766
3.86461
3.82836
3.78882
3.7445
1.40251
1.40784
1.41377
1.42038
1.42782
1.43606
1.44589
1.45596
1.46735
2.84366
1.40251
1.40784
1.41377
1.42038
1.42782
1.43608
1.44575
1.45626
1.46621
2.77528
1.40251
1.40784
1.41377
1.42037
1.42782
1.43609
1.44567
1.4565
1.46572
2.71334
1.40251
1.40784
1.41377
1.42037
1.42782
1.43609
1.44565
1.45667
1.46554
2.67042
1.40251
1.40784
1.41377
1.42037
1.42782
1.43609
1.44566
1.45681
1.46551
2.62745
1.40251
1.40784
1.41377
1.42037
1.42782
1.43609
1.44567
1.45693
1.46555
2.58567
1.40251
1.40784
1.41377
1.42037
1.42783
1.43609
1.44565
1.45702
1.46562
2.54421
1.40251
1.40784
1.41377
1.42037
1.42783
1.4361
1.44562
1.45709
1.46571
2.50341
1.40251
1.40784
1.41377
1.42037
1.42783
1.43611
1.44558
1.45714
1.46579
2.46531
1.40251
1.40784
1.41377
1.42037
1.42782
1.43612
1.44554
1.45718
1.46587
2.43106
1.40251
1.40784
1.41377
1.42037
1.42782
1.43614
1.4455
1.4572
1.46594
2.40029
1.40251
1.40784
1.41377
1.42037
1.42781
1.43615
1.44547
1.45721
1.466
2.37221
1.40251
1.40784
1.41377
1.42037
1.42781
1.43617
1.44544
1.45722
1.46605
2.34667
1.40251
1.40784
1.41377
1.42037
1.4278
1.43619
1.44542
1.45724
1.46609
2.32378
1.40251
1.40784
1.41377
1.42038
1.42779
1.4362
1.4454
1.45726
1.46612
2.30377
1.40251
1.40784
1.41377
1.42038
1.42779
1.43621
1.44539
1.45729
1.46615
2.28692
1.40251
1.40784
1.41377
1.42038
1.42778
1.43622
1.44537
1.45733
1.46616
2.27336
1.40251
1.40784
1.41377
1.42038
1.42778
1.43623
1.44537
1.45737
1.46618
2.26291
1.40251
1.40784
1.41377
1.42038
1.42778
1.43623
1.44536
1.45737
1.46618
2.25529
1.40251
1.40784
1.41377
1.42039
1.42777
1.43625
1.44535
1.45743
1.46618
2.25125
1.40251
1.40784
1.41377
1.42039
1.42777
1.43625
1.44535
1.45743
1.46618
2.2511
1.40251
1.40784
1.41377
1.42038
1.42778
1.43623
1.44536
1.45737
1.46618
2.25515
1.40251
1.40784
1.41377
1.42038
1.42778
1.43623
1.44537
1.45737
1.46618
2.26281
1.40251
1.40784
1.41377
1.42038
1.42778
1.43622
1.44537
1.45733
1.46616
2.27329
1.40251
1.40784
1.41377
1.42038
1.42779
1.43621
1.44539
1.45729
1.46615
2.28691
1.40251
1.40784
1.41377
1.42038
1.42779
1.4362
1.4454
1.45726
1.46612
2.30381
1.40251
1.40784
1.41377
1.42037
1.4278
1.43619
1.44542
1.45724
1.46609
2.32387
1.40251
1.40784
1.41377
1.42037
1.42781
1.43617
1.44544
1.45722
1.46605
2.34681
1.40251
1.40784
1.41377
1.42037
1.42781
1.43615
1.44547
1.45721
1.466
2.37239
1.40251
1.40784
1.41377
1.42037
1.42782
1.43614
1.4455
1.4572
1.46594
2.40048
1.40251
1.40784
1.41377
1.42037
1.42782
1.43612
1.44554
1.45718
1.46587
2.43121
1.40251
1.40784
1.41377
1.42037
1.42783
1.43611
1.44558
1.45714
1.46579
2.46534
1.40251
1.40784
1.41377
1.42037
1.42783
1.4361
1.44562
1.45709
1.46571
2.50328
1.40251
1.40784
1.41377
1.42037
1.42783
1.43609
1.44565
1.45702
1.46562
2.54396
1.40251
1.40784
1.41377
1.42037
1.42782
1.43609
1.44567
1.45693
1.46555
2.58538
1.40251
1.40784
1.41377
1.42037
1.42782
1.43609
1.44566
1.45681
1.46551
2.62711
1.40251
1.40784
1.41377
1.42037
1.42782
1.43609
1.44565
1.45667
1.46554
2.67
1.40251
1.40784
1.41377
1.42037
1.42782
1.43609
1.44567
1.4565
1.46572
2.71316
1.40251
1.40784
1.41377
1.42038
1.42782
1.43608
1.44575
1.45626
1.46621
2.77542
1.40251
1.40784
1.41377
1.42038
1.42782
1.43606
1.44589
1.45596
1.46735
2.84392
3.80329
4.0159
3.98448
3.95897
3.93016
3.89965
3.86671
3.83043
3.79081
3.74624
3.80569
4.01607
3.98384
3.95758
3.92849
3.89789
3.86497
3.82884
3.78914
3.74482
3.80824
4.01297
3.98048
3.95443
3.92534
3.89477
3.86186
3.82588
3.78608
3.74194
3.80956
4.00538
3.97327
3.94781
3.91895
3.88863
3.85594
3.82025
3.78066
3.73686
3.81092
3.99549
3.96354
3.93848
3.90982
3.87976
3.84739
3.81205
3.77287
3.72944
3.81305
3.98438
3.95228
3.92737
3.89869
3.8687
3.83654
3.80148
3.76289
3.71964
3.81599
3.9727
3.9403
3.91549
3.8866
3.8565
3.82431
3.78933
3.75135
3.70804
3.81951
3.96078
3.92805
3.90345
3.87427
3.84394
3.81139
3.77611
3.73836
3.69476
3.82357
3.94916
3.91608
3.89192
3.86244
3.83176
3.79836
3.7622
3.72379
3.67962
3.82847
3.93877
3.90527
3.88165
3.85187
3.82053
3.78559
3.74771
3.70735
3.66222
3.83491
3.93086
3.89675
3.87329
3.84297
3.81046
3.77322
3.73283
3.68923
3.64285
3.84422
3.92646
3.891
3.8668
3.83533
3.80104
3.76117
3.71778
3.66949
3.62166
3.85629
3.92478
3.88668
3.86074
3.82743
3.7909
3.74924
3.7037
3.65124
3.60022
3.86845
3.9231
3.88095
3.85275
3.81782
3.77951
3.73677
3.68916
3.63368
3.57808
3.87769
3.91834
3.87163
3.84125
3.80531
3.7663
3.72409
3.67533
3.61886
3.55477
3.88385
3.91075
3.86201
3.83096
3.7948
3.75405
3.7096
3.65584
3.59691
3.52177
3.88574
3.89827
3.8516
3.81848
3.78265
3.74172
3.69475
3.63636
3.56895
3.48277
3.89129
3.88939
3.85241
3.81497
3.77382
3.72662
3.67206
3.60732
3.52647
3.43688
3.88373
3.86438
3.83251
3.79133
3.74681
3.69629
3.63791
3.56513
3.47719
3.38398
3.82849
3.81073
3.79112
3.75683
3.71354
3.6601
3.59518
3.51795
3.42965
3.33116
)
;

boundaryField
{
    inlet
    {
        type            calculated;
        value           uniform 1.40001;
    }
    outlet
    {
        type            calculated;
        value           nonuniform List<scalar> 
100
(
2.26445
2.25282
2.22575
2.19158
2.15194
2.09578
2.02405
1.94324
1.85897
1.77864
1.70919
1.65316
1.61222
1.58116
1.55843
1.5394
1.52504
1.51331
1.50511
1.50059
2.31083
2.313
2.30998
2.30691
2.30612
2.30748
2.3031
2.29859
2.29567
2.29538
2.29649
2.29808
2.29901
2.29896
2.29759
2.29363
2.28802
2.27984
2.27374
2.26901
2.27716
2.23202
2.17515
2.12661
2.0699
2.03809
2.01231
2.00552
2.00868
2.02082
2.04686
2.09002
2.13441
2.18018
2.21479
2.24768
2.28015
2.29463
2.29579
2.30081
2.24777
2.25501
2.26039
2.26453
2.27003
2.27612
2.28194
2.2868
2.2907
2.29513
2.30044
2.30445
2.30659
2.30607
2.30547
2.30806
2.31097
2.30528
2.29085
2.28443
1.49698
1.5007
1.50775
1.51977
1.5369
1.5611
1.59262
1.63297
1.68636
1.75251
1.82453
1.89988
1.96917
2.03277
2.08981
2.13284
2.16636
2.19193
2.2149
2.23434
)
;
    }
    triangle
    {
        type            calculated;
        value           nonuniform List<scalar> 
40
(
4.08495
3.95261
3.86098
3.77208
3.68851
3.61182
3.53475
3.45948
3.32869
3.16139
1.14405
1.13092
1.11718
1.11737
1.12002
1.12644
1.13191
1.14107
1.15152
1.16407
1.17683
1.18471
1.19466
1.19522
1.20254
1.21326
1.22519
1.2326
1.23773
1.26118
4.08533
3.95329
3.86186
3.77307
3.68953
3.61274
3.53543
3.45798
3.32318
3.14416
)
;
    }
    top
    {
        type            symmetryPlane;
    }
    bottom
    {
        type            symmetryPlane;
    }
    defaultFaces
    {
        type            empty;
    }
}


// ************************************************************************* //
