/*--------------------------------*- C++ -*----------------------------------*\
  =========                 |
  \\      /  F ield         | OpenFOAM: The Open Source CFD Toolbox
   \\    /   O peration     | Website:  https://openfoam.org
    \\  /    A nd           | Version:  8
     \\/     M anipulation  |
\*---------------------------------------------------------------------------*/
FoamFile
{
    version     2.0;
    format      ascii;
    class       volScalarField;
    location    "3.8";
    object      T;
}
// * * * * * * * * * * * * * * * * * * * * * * * * * * * * * * * * * * * * * //

dimensions      [0 0 0 1 0 0 0];

internalField   nonuniform List<scalar> 
2600
(
1.52083
1.34961
1.36077
1.45185
1.46414
1.43844
1.43528
1.44188
1.43711
1.41427
1.53773
1.38905
1.41675
1.50231
1.52556
1.47948
1.45023
1.45036
1.44811
1.43542
1.54908
1.43681
1.48059
1.57614
1.62541
1.53422
1.47173
1.46034
1.46979
1.46644
1.56369
1.47509
1.54408
1.65588
1.72754
1.61634
1.49788
1.47114
1.50106
1.5086
1.57598
1.49557
1.59134
1.7098
1.78943
1.69223
1.52854
1.48849
1.53708
1.54709
1.58626
1.50949
1.61576
1.72833
1.80676
1.73543
1.56268
1.51437
1.57436
1.57997
1.59466
1.52604
1.61699
1.72583
1.80443
1.75656
1.59903
1.54676
1.60961
1.59646
1.60486
1.54633
1.61439
1.71671
1.78252
1.76637
1.64325
1.58815
1.63881
1.604
1.61512
1.56543
1.62209
1.70067
1.77076
1.77313
1.69382
1.63441
1.65936
1.60566
1.6249
1.58565
1.62543
1.69066
1.74777
1.77724
1.73987
1.68125
1.66825
1.59877
1.63186
1.60067
1.63592
1.67312
1.71637
1.78081
1.77565
1.717
1.66234
1.57921
1.63383
1.6097
1.63858
1.64011
1.65779
1.75749
1.78824
1.74194
1.65467
1.55009
1.63765
1.60745
1.62907
1.59429
1.59138
1.72082
1.79593
1.7479
1.63752
1.51389
1.6382
1.59548
1.59461
1.53315
1.52531
1.66163
1.78792
1.75172
1.61094
1.47895
1.64319
1.58124
1.52948
1.46573
1.47414
1.60398
1.77055
1.74228
1.58388
1.44746
1.65043
1.57704
1.47972
1.41089
1.44098
1.55206
1.7319
1.71535
1.55253
1.4235
1.66035
1.58245
1.45686
1.37646
1.41558
1.50954
1.67468
1.65957
1.51938
1.40681
1.66639
1.58829
1.44175
1.33837
1.38922
1.47852
1.61121
1.59597
1.48773
1.39241
1.66381
1.58182
1.41126
1.28465
1.36423
1.45328
1.55272
1.53484
1.45681
1.38147
1.63448
1.53999
1.36076
1.23361
1.34113
1.43319
1.50553
1.48889
1.43465
1.37594
1.58296
1.46084
1.30675
1.19711
1.31408
1.41711
1.46903
1.46074
1.42353
1.37371
1.54117
1.39334
1.26701
1.17582
1.2858
1.40267
1.44666
1.44147
1.4133
1.37053
1.52571
1.35652
1.24589
1.17091
1.26129
1.38909
1.43394
1.42843
1.40481
1.36703
1.50885
1.34144
1.23726
1.17329
1.24451
1.37603
1.42516
1.41907
1.39962
1.36426
1.49745
1.33568
1.23381
1.17991
1.2336
1.36447
1.41971
1.41326
1.39627
1.3622
1.48842
1.33535
1.23459
1.18629
1.22683
1.35435
1.41463
1.40907
1.39355
1.36054
1.48312
1.34066
1.24035
1.19154
1.22237
1.34385
1.40849
1.40493
1.3906
1.35739
1.48096
1.35004
1.25302
1.19678
1.21963
1.33071
1.39988
1.40068
1.38727
1.35417
1.48178
1.36211
1.26758
1.20404
1.21919
1.31337
1.38803
1.3972
1.38379
1.35125
1.48479
1.37469
1.28068
1.21482
1.21664
1.29361
1.37412
1.39364
1.38055
1.3491
1.48907
1.38671
1.29374
1.22683
1.21283
1.27501
1.35952
1.38954
1.37727
1.34736
1.49325
1.39663
1.30604
1.23607
1.21192
1.25827
1.3443
1.38442
1.37394
1.34569
1.49745
1.4046
1.31688
1.24529
1.21476
1.24475
1.32856
1.37826
1.37043
1.34367
1.50337
1.41052
1.32702
1.25301
1.2184
1.23425
1.31167
1.37059
1.3661
1.3411
1.51253
1.41583
1.33531
1.26125
1.22195
1.22494
1.29425
1.36125
1.3614
1.33799
1.52637
1.42171
1.34236
1.26923
1.22433
1.22079
1.27681
1.35064
1.35659
1.33429
1.54611
1.42961
1.34895
1.27628
1.22625
1.2186
1.26009
1.33876
1.35184
1.33041
1.56948
1.44142
1.35571
1.28328
1.2304
1.21676
1.24476
1.32635
1.34749
1.32619
1.59351
1.45755
1.36508
1.28999
1.23578
1.21536
1.23161
1.31291
1.34345
1.32268
1.61619
1.4781
1.37829
1.29891
1.24234
1.21466
1.22098
1.2983
1.33943
1.3195
2.03016
2.00225
1.97846
1.95324
1.92806
1.90433
1.88081
1.85529
1.81452
1.81368
1.97788
1.95056
1.93466
1.91608
1.89826
1.87983
1.85911
1.83231
1.79214
1.75215
1.946
1.92356
1.90994
1.89472
1.88167
1.86719
1.84879
1.82275
1.78053
1.72061
1.91217
1.89466
1.88413
1.8719
1.86109
1.84682
1.82748
1.79876
1.75363
1.68418
1.88079
1.86959
1.8631
1.85207
1.84187
1.82641
1.80422
1.77091
1.72288
1.65051
1.85193
1.84568
1.84209
1.83251
1.82158
1.80263
1.7764
1.73944
1.69086
1.62118
1.82945
1.82701
1.82534
1.81642
1.80133
1.77595
1.74504
1.70602
1.6602
1.59814
1.8166
1.8174
1.8164
1.80629
1.7853
1.75117
1.7139
1.67383
1.63293
1.58069
1.81211
1.81557
1.81441
1.80314
1.77803
1.73849
1.69568
1.65191
1.61315
1.56901
1.81331
1.81701
1.81611
1.80622
1.77966
1.73682
1.68929
1.64346
1.60356
1.56319
1.81501
1.8171
1.81687
1.80923
1.78628
1.74479
1.69487
1.64485
1.6017
1.562
1.81291
1.81215
1.81256
1.80752
1.79078
1.75796
1.71071
1.65647
1.60759
1.5643
1.79973
1.79759
1.79935
1.79716
1.78722
1.76519
1.72834
1.67728
1.6224
1.57211
1.78464
1.7804
1.78167
1.78039
1.77645
1.76478
1.74113
1.6999
1.64502
1.58794
1.77073
1.76506
1.76587
1.76514
1.76334
1.75866
1.745
1.71671
1.67008
1.61169
1.75496
1.74944
1.75047
1.75032
1.75081
1.74956
1.74314
1.72608
1.69183
1.6392
1.74137
1.73667
1.73782
1.73895
1.74061
1.74196
1.73986
1.73033
1.70714
1.66474
1.7302
1.72657
1.72834
1.73077
1.73354
1.73603
1.73557
1.73084
1.71611
1.68476
1.72108
1.71883
1.7216
1.72497
1.72797
1.7308
1.73084
1.72834
1.71913
1.6978
1.7154
1.71511
1.71797
1.72053
1.72297
1.72497
1.72534
1.72389
1.71789
1.70334
1.00072
1.00224
1.00392
1.0058
1.00789
1.01022
1.01307
1.01529
1.21926
1.73706
1.00072
1.00224
1.00392
1.0058
1.00789
1.01022
1.01307
1.01529
1.2121
1.72918
1.00072
1.00224
1.00392
1.0058
1.00789
1.01022
1.01307
1.01528
1.20467
1.71468
1.00072
1.00224
1.00392
1.0058
1.00789
1.01022
1.01307
1.01528
1.19267
1.69563
1.00072
1.00224
1.00392
1.0058
1.00789
1.01022
1.01307
1.01527
1.17604
1.67373
1.00072
1.00223
1.00392
1.0058
1.00789
1.01022
1.01307
1.01527
1.15581
1.64975
1.00072
1.00223
1.00392
1.0058
1.00789
1.01022
1.01307
1.01526
1.13322
1.62581
1.00072
1.00223
1.00392
1.0058
1.00789
1.01022
1.01307
1.01525
1.10926
1.60509
1.00072
1.00223
1.00392
1.00579
1.00789
1.01021
1.01307
1.01525
1.08638
1.58872
1.00072
1.00223
1.00392
1.00579
1.00789
1.01021
1.01307
1.01525
1.07172
1.57798
1.00072
1.00223
1.00392
1.00579
1.00789
1.01021
1.01307
1.01527
1.06311
1.56905
1.00072
1.00223
1.00392
1.00579
1.0079
1.01021
1.01307
1.01528
1.05651
1.55852
1.00072
1.00223
1.00392
1.00579
1.0079
1.01021
1.01306
1.01532
1.04902
1.54698
1.00072
1.00223
1.00392
1.00579
1.0079
1.01021
1.01305
1.01536
1.03927
1.53536
1.00072
1.00223
1.00392
1.00579
1.0079
1.01021
1.01305
1.01541
1.03117
1.52262
1.00072
1.00223
1.00392
1.00579
1.0079
1.01021
1.01304
1.01547
1.02588
1.50975
1.00072
1.00223
1.00392
1.00579
1.0079
1.01021
1.01304
1.01553
1.02284
1.49731
1.00072
1.00223
1.00392
1.00579
1.0079
1.01021
1.01304
1.01559
1.02111
1.48471
1.00072
1.00223
1.00392
1.00579
1.0079
1.01021
1.01303
1.01565
1.02008
1.47166
1.00072
1.00223
1.00392
1.00579
1.0079
1.01021
1.01301
1.01571
1.01942
1.45825
1.00072
1.00223
1.00392
1.00579
1.0079
1.01021
1.01301
1.01571
1.01942
1.45821
1.00072
1.00223
1.00392
1.00579
1.0079
1.01021
1.01303
1.01565
1.02008
1.47161
1.00072
1.00223
1.00392
1.00579
1.0079
1.01021
1.01304
1.01559
1.02111
1.48466
1.00072
1.00223
1.00392
1.00579
1.0079
1.01021
1.01304
1.01553
1.02284
1.49729
1.00072
1.00223
1.00392
1.00579
1.0079
1.01021
1.01304
1.01547
1.02587
1.50976
1.00072
1.00223
1.00392
1.00579
1.0079
1.01021
1.01305
1.01541
1.03114
1.52265
1.00072
1.00223
1.00392
1.00579
1.0079
1.01021
1.01305
1.01536
1.03923
1.53542
1.00072
1.00223
1.00392
1.00579
1.0079
1.01021
1.01306
1.01532
1.04898
1.54709
1.00072
1.00223
1.00392
1.00579
1.0079
1.01021
1.01307
1.01528
1.05647
1.55894
1.00072
1.00223
1.00392
1.00579
1.00789
1.01021
1.01307
1.01527
1.06306
1.5694
1.00072
1.00223
1.00392
1.00579
1.00789
1.01021
1.01307
1.01525
1.07162
1.57826
1.00072
1.00223
1.00392
1.00579
1.00789
1.01021
1.01307
1.01525
1.08621
1.58889
1.00072
1.00223
1.00392
1.0058
1.00789
1.01022
1.01307
1.01525
1.10908
1.60519
1.00072
1.00223
1.00392
1.0058
1.00789
1.01022
1.01307
1.01526
1.13306
1.62585
1.00072
1.00223
1.00392
1.0058
1.00789
1.01022
1.01307
1.01527
1.15567
1.64976
1.00072
1.00224
1.00392
1.0058
1.00789
1.01022
1.01307
1.01527
1.17592
1.67372
1.00072
1.00224
1.00392
1.0058
1.00789
1.01022
1.01307
1.01528
1.19256
1.6956
1.00072
1.00224
1.00392
1.0058
1.00789
1.01022
1.01307
1.01528
1.20456
1.71466
1.00072
1.00224
1.00392
1.0058
1.00789
1.01022
1.01307
1.01529
1.21202
1.72917
1.00072
1.00224
1.00392
1.0058
1.00789
1.01022
1.01307
1.01529
1.21924
1.73705
1.71488
1.71465
1.71766
1.72048
1.72308
1.72519
1.72578
1.72441
1.71845
1.70386
1.72085
1.71862
1.72148
1.72502
1.72817
1.73113
1.7314
1.72889
1.71966
1.6982
1.73015
1.72661
1.72841
1.73095
1.73383
1.7365
1.7361
1.73136
1.71653
1.68497
1.74139
1.7368
1.73802
1.73928
1.74105
1.74251
1.7404
1.73078
1.70739
1.66471
1.75502
1.7496
1.7507
1.75066
1.7513
1.75007
1.74361
1.7264
1.69187
1.639
1.77097
1.76535
1.7662
1.76552
1.76378
1.7591
1.74535
1.71681
1.66991
1.61144
1.78504
1.78091
1.78219
1.78088
1.7769
1.76513
1.74127
1.69974
1.64473
1.58774
1.80028
1.79823
1.79998
1.79774
1.78758
1.76532
1.72818
1.67698
1.62217
1.57194
1.81295
1.81211
1.81298
1.80791
1.79093
1.75775
1.71031
1.65613
1.60741
1.56404
1.81536
1.81753
1.81732
1.8095
1.78617
1.74428
1.69432
1.64451
1.60146
1.56161
1.81386
1.81756
1.81665
1.80647
1.77941
1.73621
1.6887
1.6431
1.60324
1.5627
1.81272
1.81617
1.81493
1.80335
1.77782
1.73796
1.69513
1.65151
1.61278
1.56827
1.81712
1.81793
1.81688
1.80654
1.78519
1.75078
1.71347
1.67341
1.63247
1.57949
1.82983
1.82743
1.82573
1.81672
1.80142
1.77579
1.74477
1.70559
1.65959
1.59629
1.85223
1.84603
1.84246
1.83286
1.82182
1.8027
1.77629
1.73904
1.69008
1.61831
1.88105
1.86989
1.86343
1.85242
1.84216
1.82658
1.8042
1.77054
1.72187
1.6466
1.91236
1.8949
1.88443
1.8722
1.86136
1.84702
1.8275
1.79842
1.75235
1.67968
1.94614
1.92375
1.91019
1.895
1.88192
1.86737
1.84881
1.8224
1.7793
1.71599
1.97799
1.95071
1.93483
1.91626
1.89846
1.88
1.85918
1.8322
1.79137
1.74655
2.03019
2.00232
1.97855
1.95335
1.92821
1.90447
1.88093
1.85538
1.81478
1.80853
1.61667
1.47765
1.37885
1.30558
1.25025
1.2021
1.19515
1.26616
1.33851
1.31482
1.59389
1.4565
1.36578
1.29847
1.24473
1.20271
1.20176
1.28411
1.34472
1.31887
1.56977
1.43964
1.35676
1.29357
1.24097
1.20467
1.21235
1.30124
1.35024
1.32264
1.54618
1.42744
1.34974
1.28968
1.23754
1.20699
1.22552
1.31749
1.3553
1.32625
1.5262
1.41864
1.34357
1.2856
1.23505
1.20995
1.2414
1.33292
1.36027
1.33024
1.51186
1.41201
1.33714
1.28035
1.23295
1.21482
1.26038
1.34671
1.36506
1.33427
1.50213
1.40587
1.32909
1.27369
1.23301
1.22031
1.28238
1.35935
1.36915
1.33799
1.49565
1.39889
1.31923
1.26697
1.23326
1.22849
1.30574
1.36896
1.37234
1.34124
1.49101
1.38992
1.3072
1.2603
1.23351
1.24027
1.32838
1.37757
1.37497
1.34408
1.48631
1.37851
1.2946
1.25439
1.23634
1.25639
1.34857
1.3851
1.37794
1.34684
1.48091
1.36516
1.28034
1.24979
1.24093
1.27377
1.36549
1.39223
1.38121
1.34992
1.4757
1.35082
1.26451
1.24851
1.24768
1.2889
1.37906
1.39797
1.38477
1.35307
1.47258
1.33528
1.24966
1.25013
1.25659
1.30331
1.39047
1.40322
1.38847
1.3563
1.47176
1.3211
1.2409
1.25298
1.26799
1.31743
1.40024
1.40777
1.39235
1.35926
1.4724
1.31207
1.23751
1.25944
1.28196
1.33237
1.40845
1.41203
1.39725
1.36228
1.4765
1.30998
1.23505
1.269
1.30011
1.34609
1.41485
1.41622
1.40314
1.36647
1.4836
1.312
1.23838
1.28273
1.32062
1.35694
1.41809
1.42082
1.40854
1.37181
1.49865
1.30958
1.25319
1.30565
1.34553
1.36897
1.41898
1.42507
1.41266
1.3765
1.51484
1.31006
1.27647
1.34413
1.37982
1.38462
1.42016
1.42935
1.41761
1.38173
1.52963
1.31591
1.31442
1.39767
1.42057
1.40698
1.42487
1.43526
1.42644
1.39448
1.63859
1.61394
1.58698
1.55967
1.528
1.47894
1.40243
1.30625
1.19166
1.08555
1.63845
1.61395
1.58669
1.55927
1.52759
1.47839
1.40171
1.30489
1.19008
1.08645
1.63846
1.61423
1.58655
1.55957
1.52737
1.47755
1.40023
1.30211
1.18721
1.088
1.63868
1.61487
1.58681
1.56009
1.52734
1.47628
1.3976
1.29745
1.18324
1.09057
1.63924
1.61571
1.58775
1.5614
1.5273
1.47417
1.39324
1.29026
1.17801
1.09416
1.6401
1.61674
1.58919
1.56286
1.52694
1.4708
1.38669
1.28043
1.1723
1.09943
1.64114
1.61758
1.59083
1.56382
1.52562
1.46555
1.37752
1.26796
1.16595
1.10695
1.64206
1.61785
1.59203
1.56394
1.5226
1.45753
1.36552
1.25446
1.15933
1.1181
1.6426
1.61782
1.59256
1.56295
1.51721
1.44634
1.35009
1.23791
1.15113
1.13413
1.64265
1.61707
1.59252
1.56036
1.5085
1.43176
1.33246
1.22183
1.14586
1.15271
1.64238
1.61634
1.59189
1.55532
1.49572
1.41271
1.30997
1.20357
1.14573
1.17321
1.64185
1.6163
1.59035
1.5471
1.47796
1.39016
1.28685
1.18916
1.14971
1.1953
1.64155
1.61805
1.58685
1.53538
1.45498
1.36536
1.26345
1.17922
1.15955
1.21615
1.64269
1.62035
1.58201
1.51545
1.42656
1.33699
1.24085
1.17488
1.17375
1.23476
1.64717
1.62108
1.57019
1.48869
1.39518
1.3083
1.2211
1.17362
1.19176
1.25114
1.6542
1.61757
1.55021
1.4559
1.36204
1.28112
1.20686
1.17528
1.21511
1.26531
1.66046
1.60775
1.5214
1.41915
1.33128
1.25566
1.19657
1.18183
1.24237
1.27896
1.66305
1.58628
1.48572
1.38271
1.30357
1.23517
1.19094
1.1924
1.27266
1.29048
1.65884
1.55344
1.44587
1.3496
1.28053
1.21789
1.19132
1.21224
1.30281
1.29913
1.64017
1.51188
1.40614
1.32221
1.26218
1.20645
1.19253
1.2404
1.32555
1.30812
1.6396
1.51178
1.40571
1.31806
1.25569
1.21439
1.2097
1.27263
1.33072
1.31486
1.6582
1.55292
1.44551
1.34672
1.27613
1.22023
1.20071
1.23701
1.315
1.30758
1.66236
1.58538
1.48487
1.38072
1.30036
1.23317
1.1966
1.20631
1.28889
1.29789
1.65987
1.60671
1.52005
1.4177
1.32829
1.25388
1.19618
1.18441
1.25474
1.28499
1.65377
1.6165
1.5486
1.45425
1.36007
1.27909
1.20478
1.17265
1.2187
1.27034
1.64689
1.62008
1.56859
1.48732
1.39221
1.30786
1.21993
1.16975
1.18757
1.25389
1.64253
1.61965
1.58056
1.51374
1.42446
1.33628
1.24122
1.16947
1.16576
1.23368
1.64149
1.61754
1.58555
1.53311
1.45354
1.36531
1.26577
1.17643
1.15021
1.20951
1.64189
1.61595
1.58919
1.54577
1.47688
1.38988
1.28881
1.18802
1.14297
1.18361
1.64252
1.6161
1.59109
1.5541
1.49575
1.41254
1.31174
1.20407
1.14095
1.1601
1.64285
1.61696
1.59197
1.55947
1.507
1.43065
1.33296
1.2223
1.14151
1.14123
1.64284
1.61784
1.59222
1.56226
1.51604
1.44563
1.35052
1.23944
1.14897
1.12408
1.64231
1.61791
1.59185
1.56352
1.52188
1.45696
1.36576
1.25637
1.15855
1.11173
1.64136
1.61771
1.59083
1.56367
1.5253
1.46533
1.37777
1.27002
1.16686
1.10363
1.64027
1.61691
1.58932
1.56293
1.52701
1.47092
1.38707
1.28216
1.1747
1.09873
1.63933
1.61589
1.588
1.56169
1.52769
1.4746
1.39388
1.29144
1.17986
1.09494
1.63869
1.61506
1.58713
1.56054
1.52798
1.47704
1.39846
1.29836
1.18441
1.09217
1.63838
1.61441
1.58693
1.56018
1.52821
1.47858
1.40137
1.30301
1.18713
1.08965
1.63833
1.61414
1.58712
1.55997
1.52858
1.47962
1.4031
1.30581
1.18913
1.08774
1.63844
1.61413
1.58742
1.5604
1.52908
1.48029
1.40399
1.3072
1.1902
1.08659
1.71442
1.7141
1.71554
1.71582
1.71619
1.71665
1.71623
1.71491
1.71138
1.70322
1.71696
1.71519
1.71272
1.71006
1.70795
1.70594
1.70417
1.70204
1.69905
1.6959
1.7141
1.71524
1.71039
1.70633
1.70229
1.69805
1.69409
1.69062
1.68666
1.68436
1.7071
1.71424
1.70687
1.70229
1.69754
1.69257
1.68755
1.682
1.67706
1.6726
1.69956
1.71068
1.70321
1.69947
1.69489
1.68958
1.68379
1.67687
1.6704
1.66355
1.69226
1.70536
1.69838
1.69538
1.6914
1.68671
1.68124
1.67462
1.66695
1.65877
1.68531
1.70031
1.69409
1.69148
1.68783
1.68358
1.67843
1.67226
1.66455
1.6567
1.6783
1.69573
1.69025
1.68792
1.68446
1.68057
1.67584
1.6704
1.66362
1.6566
1.67165
1.69177
1.68687
1.68494
1.68181
1.67825
1.67381
1.66885
1.66308
1.65692
1.66561
1.68843
1.68391
1.68231
1.67955
1.67635
1.67233
1.66786
1.66299
1.65741
1.66
1.68553
1.68123
1.67984
1.6774
1.67459
1.67107
1.66703
1.66272
1.65753
1.65453
1.68289
1.67875
1.67747
1.6753
1.67284
1.66979
1.66617
1.66218
1.65724
1.64924
1.68047
1.67648
1.67527
1.67333
1.67112
1.66843
1.66514
1.66133
1.65645
1.64431
1.67832
1.67447
1.67335
1.67158
1.66954
1.66707
1.66399
1.66026
1.65542
1.63989
1.6765
1.67275
1.67172
1.67007
1.66814
1.66577
1.6628
1.65909
1.65433
1.63607
1.675
1.6713
1.67033
1.66877
1.6669
1.66458
1.66167
1.65798
1.65331
1.63289
1.67376
1.67007
1.66914
1.66766
1.66586
1.66358
1.66069
1.65704
1.65245
1.63041
1.67294
1.66927
1.66837
1.66695
1.66519
1.66293
1.66005
1.65643
1.65189
1.62906
1.67264
1.66905
1.66809
1.66666
1.6649
1.66264
1.65976
1.65617
1.65165
1.62877
1.67262
1.6691
1.6682
1.66676
1.66498
1.66271
1.6598
1.65622
1.65168
1.00072
1.00223
1.00392
1.00579
1.0079
1.01022
1.01298
1.0158
1.01893
1.44247
1.00072
1.00223
1.00392
1.00579
1.0079
1.01023
1.01293
1.01588
1.01862
1.42499
1.00072
1.00223
1.00392
1.00579
1.0079
1.01023
1.01291
1.01595
1.01849
1.40961
1.00072
1.00223
1.00392
1.00579
1.0079
1.01023
1.01291
1.016
1.01844
1.3977
1.00072
1.00223
1.00392
1.00579
1.0079
1.01023
1.01291
1.01604
1.01844
1.38492
1.00072
1.00223
1.00392
1.00579
1.0079
1.01023
1.01291
1.01607
1.01845
1.37203
1.00072
1.00223
1.00392
1.00579
1.0079
1.01023
1.01291
1.0161
1.01847
1.35925
1.00072
1.00223
1.00392
1.00579
1.0079
1.01023
1.0129
1.01612
1.01849
1.34692
1.00072
1.00223
1.00392
1.00579
1.0079
1.01023
1.01289
1.01613
1.01852
1.33551
1.00072
1.00223
1.00392
1.00579
1.0079
1.01024
1.01288
1.01614
1.01854
1.32501
1.00072
1.00223
1.00392
1.00579
1.0079
1.01024
1.01287
1.01615
1.01856
1.31518
1.00072
1.00223
1.00392
1.00579
1.00789
1.01025
1.01286
1.01615
1.01857
1.30584
1.00072
1.00223
1.00392
1.00579
1.00789
1.01025
1.01285
1.01616
1.01859
1.29707
1.00072
1.00223
1.00392
1.00579
1.00789
1.01025
1.01284
1.01616
1.0186
1.28906
1.00072
1.00223
1.00392
1.00579
1.00789
1.01026
1.01284
1.01617
1.01861
1.28195
1.00072
1.00223
1.00392
1.00579
1.00789
1.01026
1.01283
1.01618
1.01862
1.27587
1.00072
1.00223
1.00392
1.00579
1.00789
1.01027
1.01283
1.01619
1.01862
1.27086
1.00072
1.00223
1.00392
1.00579
1.00788
1.01027
1.01283
1.0162
1.01863
1.26697
1.00072
1.00223
1.00392
1.00579
1.00788
1.01027
1.01283
1.0162
1.01863
1.26455
1.00072
1.00223
1.00392
1.0058
1.00788
1.01027
1.01282
1.01622
1.01863
1.26368
1.00072
1.00223
1.00392
1.0058
1.00788
1.01027
1.01282
1.01622
1.01863
1.26358
1.00072
1.00223
1.00392
1.00579
1.00788
1.01027
1.01283
1.0162
1.01863
1.26446
1.00072
1.00223
1.00392
1.00579
1.00788
1.01027
1.01283
1.0162
1.01863
1.2669
1.00072
1.00223
1.00392
1.00579
1.00789
1.01027
1.01283
1.01619
1.01862
1.27081
1.00072
1.00223
1.00392
1.00579
1.00789
1.01026
1.01283
1.01618
1.01862
1.27585
1.00072
1.00223
1.00392
1.00579
1.00789
1.01026
1.01284
1.01617
1.01861
1.28197
1.00072
1.00223
1.00392
1.00579
1.00789
1.01025
1.01284
1.01616
1.0186
1.28911
1.00072
1.00223
1.00392
1.00579
1.00789
1.01025
1.01285
1.01616
1.01859
1.29714
1.00072
1.00223
1.00392
1.00579
1.00789
1.01025
1.01286
1.01615
1.01858
1.30593
1.00072
1.00223
1.00392
1.00579
1.0079
1.01024
1.01287
1.01615
1.01856
1.31529
1.00072
1.00223
1.00392
1.00579
1.0079
1.01024
1.01288
1.01614
1.01854
1.32511
1.00072
1.00223
1.00392
1.00579
1.0079
1.01023
1.01289
1.01613
1.01852
1.33558
1.00072
1.00223
1.00392
1.00579
1.0079
1.01023
1.0129
1.01612
1.01849
1.34696
1.00072
1.00223
1.00392
1.00579
1.0079
1.01023
1.01291
1.0161
1.01847
1.35924
1.00072
1.00223
1.00392
1.00579
1.0079
1.01023
1.01291
1.01607
1.01845
1.372
1.00072
1.00223
1.00392
1.00579
1.0079
1.01023
1.01291
1.01604
1.01844
1.38487
1.00072
1.00223
1.00392
1.00579
1.0079
1.01023
1.01291
1.016
1.01844
1.39762
1.00072
1.00223
1.00392
1.00579
1.0079
1.01023
1.01291
1.01595
1.01849
1.40954
1.00072
1.00223
1.00392
1.00579
1.0079
1.01023
1.01293
1.01588
1.01862
1.42494
1.00072
1.00223
1.00392
1.00579
1.0079
1.01022
1.01298
1.0158
1.01893
1.44244
1.62876
1.6727
1.66923
1.66836
1.66696
1.66521
1.66296
1.66005
1.65647
1.6519
1.62906
1.67271
1.66917
1.66824
1.66684
1.66511
1.66288
1.66
1.6564
1.65186
1.63043
1.67301
1.66938
1.66851
1.66712
1.66538
1.66314
1.66027
1.65663
1.65207
1.63292
1.67383
1.67017
1.66926
1.6678
1.66602
1.66374
1.66086
1.65718
1.65256
1.63612
1.67507
1.67139
1.67042
1.66887
1.66701
1.66469
1.66176
1.65804
1.65333
1.63995
1.67657
1.67283
1.67179
1.67013
1.66819
1.6658
1.66281
1.65906
1.65425
1.64439
1.67839
1.67453
1.67339
1.67159
1.66953
1.66702
1.66391
1.66013
1.65525
1.64933
1.68053
1.67652
1.67528
1.6733
1.67104
1.66831
1.66498
1.66112
1.65621
1.65463
1.68294
1.67877
1.67744
1.67523
1.67271
1.66962
1.66595
1.66192
1.65696
1.66008
1.68556
1.6812
1.67977
1.67729
1.67442
1.67086
1.66678
1.66243
1.65724
1.66565
1.68842
1.68384
1.68221
1.6794
1.67616
1.67211
1.6676
1.66272
1.65715
1.67163
1.69171
1.68677
1.68481
1.68166
1.67806
1.6736
1.66862
1.66285
1.65672
1.67823
1.69564
1.69012
1.68778
1.6843
1.68038
1.67564
1.67019
1.66343
1.65644
1.68521
1.70021
1.69396
1.69135
1.68768
1.68341
1.67825
1.67209
1.6644
1.6566
1.69216
1.70527
1.69828
1.69527
1.69128
1.68657
1.6811
1.67449
1.66685
1.65876
1.69949
1.7106
1.70311
1.69935
1.69475
1.68944
1.68367
1.67679
1.6704
1.66367
1.70708
1.71412
1.70674
1.70214
1.69739
1.69244
1.68748
1.68201
1.6772
1.67287
1.71404
1.71504
1.71023
1.70615
1.7021
1.69791
1.69406
1.69074
1.68695
1.68478
1.7166
1.7148
1.71237
1.70979
1.70777
1.70586
1.70425
1.70232
1.69948
1.69644
1.71377
1.7136
1.7152
1.71564
1.71614
1.71674
1.71646
1.71532
1.71194
1.7038
)
;

boundaryField
{
    inlet
    {
        type            fixedValue;
        value           uniform 1;
    }
    outlet
    {
        type            inletOutlet;
        inletValue      uniform 1;
        value           nonuniform List<scalar> 
100
(
1.31496
1.30755
1.29781
1.28484
1.27023
1.2538
1.23357
1.20936
1.18342
1.15994
1.14112
1.12401
1.11166
1.10353
1.09861
1.09478
1.09198
1.08943
1.08751
1.08635
1.37369
1.37033
1.36687
1.36421
1.36221
1.36049
1.35726
1.35404
1.35119
1.34911
1.34741
1.34573
1.34368
1.34109
1.33795
1.33425
1.33033
1.32613
1.32265
1.31952
1.41396
1.43587
1.46647
1.50856
1.54716
1.57996
1.59627
1.60396
1.60559
1.5987
1.57891
1.54969
1.5134
1.47829
1.44682
1.42317
1.40641
1.39177
1.38103
1.37591
1.31474
1.31882
1.32265
1.32619
1.33016
1.33417
1.33789
1.34116
1.344
1.34669
1.34973
1.35293
1.35619
1.35919
1.36214
1.3662
1.37158
1.37648
1.38164
1.39391
1.08532
1.08622
1.08777
1.09034
1.09395
1.09923
1.10678
1.11794
1.13399
1.15256
1.1731
1.19526
1.21618
1.23484
1.25122
1.26536
1.27898
1.29046
1.29907
1.30805
)
;
    }
    triangle
    {
        type            zeroGradient;
    }
    top
    {
        type            symmetryPlane;
    }
    bottom
    {
        type            symmetryPlane;
    }
    defaultFaces
    {
        type            empty;
    }
}


// ************************************************************************* //
