/*--------------------------------*- C++ -*----------------------------------*\
  =========                 |
  \\      /  F ield         | OpenFOAM: The Open Source CFD Toolbox
   \\    /   O peration     | Website:  https://openfoam.org
    \\  /    A nd           | Version:  8
     \\/     M anipulation  |
\*---------------------------------------------------------------------------*/
FoamFile
{
    version     2.0;
    format      ascii;
    class       volScalarField;
    location    "0.2";
    object      p;
}
// * * * * * * * * * * * * * * * * * * * * * * * * * * * * * * * * * * * * * //

dimensions      [1 -1 -2 0 0 0 0];

internalField   nonuniform List<scalar> 
325
(
1.6725
1.63234
1.62771
1.65373
1.79675
1.70418
1.66902
1.64202
1.65042
1.67363
1.79065
1.69485
1.66414
1.64609
1.65893
1.68109
1.78609
1.69827
1.66848
1.65888
1.67254
1.68844
1.78218
1.7052
1.67089
1.67015
1.68591
1.69938
1.76789
1.70902
1.67799
1.68509
1.70176
1.71483
1.75145
1.71644
1.69254
1.70691
1.72358
1.73195
1.72732
1.72463
1.71148
1.72955
1.74407
1.74258
1.70608
1.73854
1.7365
1.75052
1.75818
1.74331
1.71967
1.77593
1.77296
1.76433
1.76002
1.73243
1.75486
1.82052
1.80289
1.77285
1.73181
1.69383
1.66416
1.77314
1.74644
1.71406
1.68942
1.66911
1.48057
1.63547
1.68621
1.67366
1.6594
1.64231
1.25608
1.49079
1.62322
1.64432
1.62771
1.61056
1.05683
1.1792
1.43921
1.54923
1.57135
1.57591
0.964265
0.944258
1.10718
1.39741
1.53001
1.54973
0.941706
0.887269
0.89865
1.0963
1.39648
1.51841
0.930132
0.875647
0.86118
0.890946
1.12779
1.42469
0.921143
0.869211
0.856103
0.856808
0.910312
1.19507
0.916712
0.866632
0.854889
0.855815
0.862981
0.958801
1.27513
1.84754
2.3461
1.83134
2.34685
1.80713
2.3482
1.7787
2.34501
1.73837
2.33316
1.69419
2.30824
1.64745
2.28351
1.60581
2.27423
1.56341
2.26937
1.5154
2.27229
1.45124
2.27961
1.42907
2.28569
1.4214
2.28978
1.42677
2.29339
1.42842
2.29738
1.42672
2.3024
1.41977
2.30747
1.4101
2.31062
1.40476
0.915735
0.866132
0.854668
0.855767
0.862184
0.885549
0.915634
0.866066
0.854609
0.855721
0.863011
0.881424
0.911167
0.915649
0.866122
0.85471
0.855811
0.863125
0.882228
0.909775
0.915677
0.866179
0.854788
0.855882
0.863154
0.882415
0.910173
0.91568
0.866192
0.854809
0.855899
0.863189
0.882424
0.910273
0.91568
0.866194
0.854813
0.855902
0.863197
0.882423
0.910284
0.91568
0.866196
0.854815
0.855904
0.863198
0.882428
0.910268
0.915682
0.866198
0.854817
0.855906
0.863199
0.882433
0.910258
0.915685
0.866201
0.85482
0.855908
0.8632
0.882435
0.910259
0.915686
0.866202
0.854822
0.855909
0.863201
0.882437
0.91026
0.915686
0.866202
0.854822
0.855909
0.863201
0.882437
0.910259
0.915685
0.866201
0.854821
0.855909
0.863201
0.882437
0.910259
0.915683
0.8662
0.85482
0.855909
0.863202
0.882437
0.910259
0.915682
0.8662
0.85482
0.855909
0.863202
0.882437
0.910259
0.915683
0.866201
0.854821
0.85591
0.863203
0.882438
0.910259
0.915686
0.866203
0.854822
0.855911
0.863203
0.882439
0.91026
0.915688
0.866205
0.854825
0.855913
0.863205
0.88244
0.910262
0.915689
0.866207
0.854828
0.855915
0.863207
0.882443
0.910264
0.915689
0.866208
0.85483
0.855917
0.863209
0.882445
0.910266
0.915688
0.866208
0.85483
0.855918
0.863211
0.882446
0.910268
2.31129
1.40393
2.31136
1.40382
2.31138
1.40377
2.31138
1.40373
2.31139
1.40371
2.31139
1.4037
2.31139
1.4037
2.3114
1.40369
2.3114
1.40369
2.3114
1.40369
1.40369
1.40369
1.40369
1.40369
1.40369
1.40369
1.40369
1.40369
1.40369
1.40369
)
;

boundaryField
{
    inlet
    {
        type            fixedValue;
        value           nonuniform List<scalar> 0();
    }
    outlet
    {
        type            zeroGradient;
    }
    triangle
    {
        type            zeroGradient;
    }
    top
    {
        type            symmetryPlane;
    }
    bottom
    {
        type            symmetryPlane;
    }
    defaultFaces
    {
        type            empty;
    }
    procBoundary5to1
    {
        type            processor;
        value           nonuniform List<scalar> 6(1.82658 1.72874 1.72874 1.85649 2.3411 2.3411);
    }
    procBoundary5to4
    {
        type            processor;
        value           nonuniform List<scalar> 
39
(
3.07914
3.07643
3.07389
3.07225
3.07207
3.07419
3.07827
3.08146
3.08254
3.08291
3.08281
3.08255
3.08223
3.0819
3.08151
3.08101
3.08043
3.07996
3.07979
3.07977
3.07977
3.07977
3.07977
3.07977
3.07976
3.07976
3.07976
3.07976
2.3114
2.3114
2.3114
2.3114
2.3114
2.3114
2.3114
2.3114
2.3114
2.3114
2.3114
)
;
    }
    procBoundary5to6
    {
        type            processor;
        value           nonuniform List<scalar> 
43
(
1.68115
1.6883
1.69116
1.69327
1.69626
1.70054
1.70402
1.70376
1.6958
1.68296
1.65166
1.62783
1.60608
1.58358
1.56437
1.55462
1.5413
1.53169
1.46449
1.46449
1.49592
0.996584
0.996584
0.996584
0.992261
0.939387
0.939378
0.939503
0.939501
0.939579
0.939619
0.939625
0.939627
0.939626
0.939625
0.939625
0.939624
0.939624
0.939625
0.939627
0.939629
0.93963
0.939631
)
;
    }
}


// ************************************************************************* //
