/*--------------------------------*- C++ -*----------------------------------*\
  =========                 |
  \\      /  F ield         | OpenFOAM: The Open Source CFD Toolbox
   \\    /   O peration     | Website:  https://openfoam.org
    \\  /    A nd           | Version:  8
     \\/     M anipulation  |
\*---------------------------------------------------------------------------*/
FoamFile
{
    version     2.0;
    format      ascii;
    class       volScalarField;
    location    "2.4";
    object      p;
}
// * * * * * * * * * * * * * * * * * * * * * * * * * * * * * * * * * * * * * //

dimensions      [1 -1 -2 0 0 0 0];

internalField   nonuniform List<scalar> 
2600
(
0.917562
0.873266
0.855724
0.91967
1.10013
1.36031
1.56982
1.63326
1.60532
1.51386
0.916518
0.855204
0.854726
0.939076
1.12735
1.36943
1.57107
1.62422
1.59886
1.52039
0.920551
0.842808
0.843618
0.958666
1.16215
1.38857
1.55719
1.62039
1.57877
1.49698
0.919133
0.835541
0.838486
0.955152
1.17751
1.4366
1.57408
1.64456
1.59277
1.48746
0.914743
0.829277
0.838685
0.964606
1.17015
1.44303
1.61585
1.65726
1.63283
1.51756
0.918164
0.836102
0.839811
0.978855
1.19123
1.41475
1.60066
1.62816
1.61922
1.52915
0.926205
0.842216
0.848093
0.987432
1.21944
1.44162
1.58756
1.64543
1.59265
1.52462
0.93243
0.845133
0.858211
1.00339
1.22859
1.43967
1.59152
1.6455
1.61382
1.51573
0.936729
0.842288
0.850174
0.993813
1.21299
1.44165
1.58563
1.65771
1.61931
1.50371
0.939922
0.836023
0.836044
0.969982
1.18789
1.444
1.59383
1.67045
1.59927
1.51682
0.939764
0.836504
0.835845
0.96959
1.18596
1.44971
1.62345
1.62661
1.61877
1.52075
0.936366
0.842852
0.851762
0.993571
1.19898
1.43601
1.61368
1.63651
1.60993
1.53345
0.932076
0.846368
0.860356
1.00026
1.22235
1.44431
1.59922
1.63529
1.60864
1.52371
0.926949
0.844256
0.851717
0.987551
1.21073
1.44191
1.58952
1.62941
1.62812
1.50991
0.919579
0.83916
0.844391
0.981229
1.18481
1.41305
1.57996
1.67195
1.61631
1.50599
0.916363
0.832595
0.844283
0.9677
1.16318
1.42979
1.62761
1.66423
1.58826
1.50785
0.920442
0.838122
0.843367
0.957424
1.1634
1.42283
1.59646
1.61301
1.59892
1.53121
0.920588
0.844954
0.847862
0.958636
1.14555
1.39174
1.56013
1.61629
1.61623
1.51301
0.915876
0.857721
0.858491
0.940078
1.11741
1.37455
1.5657
1.64232
1.60491
1.49051
0.918095
0.876059
0.859608
0.922237
1.09124
1.3596
1.57051
1.64005
1.58859
1.48967
1.09627
0.886025
0.867108
0.911497
1.06234
1.33921
1.56642
1.62397
1.58296
1.50069
1.2761
0.912544
0.892824
0.906812
1.02928
1.30454
1.54181
1.60533
1.58268
1.49893
1.45754
0.971891
0.919233
0.908185
1.00101
1.25963
1.51573
1.60336
1.58149
1.49168
1.60797
1.0554
0.947683
0.916198
0.985585
1.22006
1.49557
1.60159
1.5762
1.48305
1.7415
1.14581
0.980777
0.930153
0.976211
1.18331
1.47528
1.5946
1.56878
1.47829
1.85228
1.23881
1.01846
0.94104
0.970856
1.14268
1.44846
1.57815
1.56131
1.47726
1.94427
1.3325
1.06712
0.949606
0.969165
1.10036
1.40824
1.56135
1.55621
1.47294
2.0203
1.41883
1.12713
0.973729
0.971782
1.06587
1.36016
1.54863
1.5528
1.46581
2.08634
1.49979
1.18424
1.01691
0.977974
1.04407
1.31406
1.53321
1.54771
1.45898
2.14613
1.57715
1.23701
1.05811
0.99169
1.031
1.26839
1.51155
1.5414
1.45328
2.20005
1.65143
1.29518
1.09053
1.00376
1.02093
1.21933
1.48363
1.53311
1.44677
2.24905
1.71838
1.35893
1.12946
1.01224
1.01925
1.17056
1.45151
1.52648
1.43916
2.29226
1.77889
1.41765
1.1808
1.02542
1.0187
1.12816
1.41718
1.51799
1.43115
2.33013
1.83458
1.46961
1.23151
1.05315
1.01953
1.09381
1.3782
1.50803
1.4229
2.36338
1.88679
1.52224
1.2743
1.09
1.02283
1.06748
1.33336
1.49613
1.41408
2.39378
1.93554
1.5761
1.31665
1.12229
1.03209
1.04946
1.28439
1.48136
1.40555
2.42211
1.982
1.62783
1.36242
1.15251
1.04154
1.03815
1.23534
1.46318
1.39616
2.4485
2.02665
1.6758
1.4073
1.18853
1.05066
1.03124
1.18857
1.44075
1.38674
2.47277
2.06821
1.72091
1.44832
1.22713
1.06352
1.02958
1.14556
1.41284
1.37698
2.49497
2.10599
1.76344
1.48795
1.26341
1.08197
1.03041
1.10717
1.38049
1.36747
4.46572
4.25778
4.11569
3.97567
3.83745
3.70198
3.5559
3.39329
3.15981
2.90971
4.18363
3.9863
3.89512
3.7921
3.68789
3.57354
3.44086
3.27672
3.03954
2.71534
4.0914
3.94586
3.86703
3.76759
3.67052
3.5621
3.43225
3.26599
3.02777
2.70956
3.97099
3.86145
3.79613
3.70575
3.61842
3.5127
3.38476
3.21817
2.98616
2.66821
3.86377
3.77986
3.72855
3.64731
3.56642
3.46338
3.33974
3.17595
2.95347
2.64023
3.76423
3.69875
3.65637
3.58475
3.5129
3.41514
3.29763
3.13749
2.92546
2.62421
3.67842
3.6283
3.59283
3.52927
3.46411
3.37042
3.25895
3.10353
2.90278
2.62089
3.6059
3.56504
3.5332
3.47678
3.41724
3.32802
3.2229
3.07344
2.88495
2.62437
3.54172
3.51125
3.48405
3.43306
3.37669
3.29087
3.1911
3.04804
2.87172
2.63224
3.49252
3.46785
3.44219
3.39385
3.33951
3.25737
3.16271
3.02664
2.86218
2.64257
3.45943
3.43347
3.40634
3.35916
3.30613
3.22743
3.13743
3.00858
2.8551
2.65387
3.43499
3.40353
3.37437
3.32805
3.27606
3.20075
3.11503
2.99381
2.84987
2.66507
3.41423
3.37745
3.34649
3.30067
3.24943
3.17734
3.09561
2.98169
2.8466
2.67646
3.39329
3.35282
3.3207
3.2755
3.22528
3.15646
3.07856
2.97154
2.84514
2.68791
3.37198
3.32918
3.29651
3.25211
3.20326
3.13771
3.06352
2.96318
2.8449
2.69898
3.34933
3.30556
3.27317
3.22999
3.18294
3.12068
3.05011
2.95601
2.84526
2.70953
3.32445
3.28169
3.25058
3.20911
3.16419
3.10528
3.03836
2.9502
2.84631
2.71964
3.29649
3.2575
3.22883
3.18952
3.14695
3.09129
3.02796
2.9455
2.84794
2.72952
3.26626
3.23336
3.2076
3.17104
3.13119
3.07892
3.01908
2.94192
2.84985
2.73855
3.23994
3.21195
3.18789
3.1539
3.11644
3.06738
3.01086
2.93867
2.8519
2.74715
1.00443
1.01406
1.02524
1.03813
1.05359
1.07299
1.09101
1.31922
3.0589
3.68404
1.00443
1.01406
1.02524
1.03813
1.05359
1.07299
1.09102
1.31874
3.05573
3.67025
1.00443
1.01406
1.02524
1.03813
1.05358
1.073
1.09104
1.31789
3.0513
3.64968
1.00443
1.01406
1.02524
1.03814
1.05357
1.07301
1.09105
1.31655
3.04449
3.626
1.00443
1.01406
1.02524
1.03814
1.05356
1.07303
1.09107
1.31452
3.03585
3.60208
1.00443
1.01406
1.02523
1.03814
1.05354
1.07304
1.09108
1.31185
3.02518
3.57773
1.00443
1.01406
1.02523
1.03815
1.05353
1.07306
1.09108
1.30846
3.01205
3.55329
1.00443
1.01406
1.02523
1.03815
1.05351
1.07308
1.09108
1.30433
2.9971
3.52877
1.00443
1.01406
1.02523
1.03816
1.0535
1.07309
1.09107
1.29937
2.98018
3.50536
1.00443
1.01407
1.02522
1.03816
1.05349
1.0731
1.09106
1.29364
2.96111
3.48167
1.00443
1.01407
1.02522
1.03817
1.05348
1.07311
1.09104
1.28717
2.94026
3.45901
1.00443
1.01407
1.02522
1.03817
1.05347
1.07312
1.09103
1.28007
2.91798
3.43739
1.00443
1.01407
1.02522
1.03817
1.05346
1.07311
1.09103
1.27235
2.89466
3.41751
1.00443
1.01407
1.02521
1.03818
1.05346
1.07311
1.09106
1.26366
2.87139
3.3993
1.00443
1.01407
1.02521
1.03818
1.05345
1.0731
1.09112
1.25295
2.84913
3.38323
1.00443
1.01407
1.02521
1.03818
1.05345
1.07308
1.0912
1.24123
2.82782
3.36884
1.00443
1.01407
1.02521
1.03819
1.05345
1.07306
1.09131
1.22811
2.80753
3.35645
1.00443
1.01407
1.02521
1.03819
1.05344
1.07304
1.09144
1.21406
2.78842
3.34572
1.00443
1.01407
1.0252
1.03819
1.05344
1.07302
1.09159
1.19967
2.76976
3.3365
1.00443
1.01407
1.0252
1.03819
1.05344
1.07299
1.09174
1.18572
2.75094
3.32817
1.00443
1.01407
1.0252
1.03819
1.05344
1.07299
1.09174
1.18572
2.75094
3.32817
1.00443
1.01407
1.0252
1.03819
1.05344
1.07302
1.09159
1.19967
2.76976
3.3365
1.00443
1.01407
1.02521
1.03819
1.05344
1.07304
1.09144
1.21406
2.78841
3.34572
1.00443
1.01407
1.02521
1.03819
1.05345
1.07306
1.09131
1.2281
2.80753
3.35646
1.00443
1.01407
1.02521
1.03818
1.05345
1.07308
1.0912
1.24123
2.82782
3.36885
1.00443
1.01407
1.02521
1.03818
1.05345
1.0731
1.09112
1.25295
2.84913
3.38324
1.00443
1.01407
1.02521
1.03818
1.05346
1.07311
1.09106
1.26365
2.87139
3.39931
1.00443
1.01407
1.02522
1.03817
1.05346
1.07311
1.09103
1.27235
2.89466
3.41752
1.00443
1.01407
1.02522
1.03817
1.05347
1.07312
1.09103
1.28007
2.91798
3.4374
1.00443
1.01407
1.02522
1.03817
1.05348
1.07311
1.09104
1.28717
2.94026
3.45902
1.00443
1.01407
1.02522
1.03816
1.05349
1.0731
1.09106
1.29364
2.96111
3.48168
1.00443
1.01406
1.02523
1.03816
1.0535
1.07309
1.09107
1.29937
2.98018
3.50537
1.00443
1.01406
1.02523
1.03815
1.05351
1.07308
1.09108
1.30433
2.9971
3.52878
1.00443
1.01406
1.02523
1.03815
1.05353
1.07306
1.09108
1.30846
3.01205
3.55329
1.00443
1.01406
1.02523
1.03814
1.05354
1.07304
1.09108
1.31185
3.02518
3.57773
1.00443
1.01406
1.02524
1.03814
1.05356
1.07303
1.09107
1.31452
3.03585
3.60208
1.00443
1.01406
1.02524
1.03814
1.05357
1.07301
1.09105
1.31655
3.04449
3.626
1.00443
1.01406
1.02524
1.03813
1.05358
1.073
1.09104
1.31789
3.0513
3.64969
1.00443
1.01406
1.02524
1.03813
1.05359
1.07299
1.09102
1.31874
3.05573
3.67025
1.00443
1.01406
1.02524
1.03813
1.05359
1.07299
1.09101
1.31927
3.0589
3.68404
3.23996
3.21198
3.18791
3.15393
3.11646
3.0674
3.01087
2.93867
2.85188
2.74709
3.26629
3.23339
3.20762
3.17107
3.13121
3.07893
3.01909
2.94191
2.8498
2.73847
3.29652
3.25752
3.22885
3.18954
3.14697
3.0913
3.02795
2.94548
2.84789
2.72944
3.32447
3.28171
3.2506
3.20912
3.16421
3.10528
3.03835
2.95016
2.84626
2.71955
3.34934
3.30558
3.27319
3.23
3.18295
3.12068
3.05008
2.95596
2.84519
2.70942
3.37199
3.32919
3.29653
3.25212
3.20326
3.1377
3.06349
2.96312
2.84481
2.69885
3.3933
3.35283
3.32071
3.2755
3.22527
3.15644
3.07852
2.97148
2.84502
2.68776
3.41423
3.37746
3.34649
3.30067
3.24942
3.17731
3.09556
2.98162
2.84645
2.67631
3.435
3.40353
3.37437
3.32804
3.27604
3.20072
3.11497
2.99373
2.8497
2.66494
3.45943
3.43347
3.40634
3.35915
3.30611
3.22739
3.13736
3.00848
2.85493
2.65373
3.49253
3.46785
3.44218
3.39383
3.33949
3.25732
3.16264
3.02652
2.86203
2.6424
3.54172
3.51125
3.48404
3.43305
3.37667
3.29082
3.19101
3.04792
2.87158
2.63201
3.60591
3.56504
3.5332
3.47677
3.41721
3.32797
3.22282
3.07331
2.88479
2.62411
3.67843
3.6283
3.59283
3.52926
3.46409
3.37037
3.25887
3.1034
2.90259
2.62069
3.76424
3.69875
3.65637
3.58473
3.51288
3.4151
3.29755
3.13736
2.92524
2.62418
3.86378
3.77986
3.72855
3.6473
3.5664
3.46334
3.33967
3.17583
2.95327
2.64027
3.971
3.86146
3.79613
3.70574
3.61841
3.51266
3.38469
3.21806
2.98601
2.66816
4.09141
3.94586
3.86703
3.76759
3.67051
3.56207
3.4322
3.26591
3.02767
2.7095
4.18364
3.98631
3.89512
3.7921
3.68788
3.57352
3.44081
3.27665
3.03945
2.71534
4.46573
4.25778
4.11569
3.97567
3.83745
3.70196
3.55586
3.39324
3.15974
2.90965
2.49488
2.10583
1.7633
1.48803
1.26404
1.0819
1.03008
1.10554
1.37927
1.36788
2.47269
2.06814
1.7208
1.44842
1.2276
1.06354
1.02932
1.14259
1.41052
1.3772
2.44841
2.02667
1.67575
1.40734
1.18898
1.05098
1.03078
1.18554
1.43874
1.38647
2.42197
1.98205
1.62776
1.36249
1.15302
1.04188
1.03743
1.23464
1.4634
1.39565
2.39359
1.93551
1.57607
1.31673
1.12276
1.03208
1.04882
1.28375
1.483
1.40569
2.36317
1.88669
1.52228
1.27431
1.09021
1.02279
1.06637
1.32934
1.49712
1.41509
2.32999
1.83455
1.46972
1.23096
1.05335
1.0198
1.09234
1.37149
1.50798
1.42418
2.29229
1.77907
1.41758
1.17983
1.02581
1.01985
1.12762
1.41356
1.51693
1.43017
2.24925
1.71884
1.35851
1.12838
1.01307
1.02046
1.17141
1.45275
1.52597
1.43782
2.20023
1.65195
1.29463
1.08956
1.00484
1.0222
1.21852
1.484
1.53716
1.44661
2.14601
1.57784
1.23625
1.0565
0.993088
1.03234
1.26437
1.50606
1.54326
1.45557
2.086
1.50076
1.18324
1.01477
0.980061
1.04534
1.31127
1.52458
1.54665
1.46123
2.02013
1.41997
1.12492
0.971844
0.973726
1.0689
1.36209
1.5446
1.54991
1.46384
1.94455
1.33334
1.0643
0.949168
0.971219
1.10568
1.41002
1.56628
1.558
1.46917
1.85296
1.23916
1.0153
0.941606
0.974081
1.14744
1.44624
1.58144
1.56817
1.4783
1.74198
1.14679
0.976929
0.930347
0.980808
1.18572
1.47145
1.58937
1.5737
1.48671
1.60786
1.05668
0.942789
0.91579
0.991626
1.22098
1.49162
1.59311
1.57207
1.48908
1.45694
0.972817
0.913783
0.907523
1.01003
1.26571
1.51207
1.59921
1.57202
1.48362
1.27437
0.912317
0.888371
0.905714
1.03986
1.31455
1.5365
1.61813
1.57942
1.48448
1.09502
0.883668
0.862919
0.90914
1.07215
1.34645
1.56198
1.63061
1.59805
1.49773
2.81486
2.64818
2.43273
2.20532
1.95903
1.7055
1.45798
1.24482
1.00522
0.762995
2.81319
2.64604
2.42939
2.20131
1.95475
1.70156
1.45492
1.24079
1.002
0.764997
2.81059
2.64139
2.42495
2.19503
1.94779
1.69506
1.44958
1.2338
0.996559
0.768314
2.8064
2.63414
2.41864
2.18545
1.93767
1.6857
1.4419
1.22373
0.989842
0.773554
2.8011
2.6258
2.40976
2.1735
1.92477
1.67364
1.43171
1.21042
0.981711
0.781138
2.79463
2.61539
2.39793
2.15877
1.90895
1.65881
1.41891
1.19378
0.973201
0.791214
2.78714
2.6033
2.38322
2.14115
1.89016
1.64122
1.40343
1.17403
0.965398
0.804308
2.77866
2.58932
2.36546
2.12029
1.86815
1.62054
1.38476
1.15148
0.959199
0.821618
2.76902
2.57325
2.34452
2.09609
1.84279
1.59697
1.363
1.12626
0.953352
0.844769
2.75812
2.5549
2.3203
2.0683
1.81417
1.57009
1.33753
1.10024
0.947297
0.876355
2.74575
2.53404
2.29288
2.03671
1.78185
1.54028
1.30844
1.07336
0.939361
0.918831
2.73165
2.51027
2.26156
2.00136
1.74632
1.50688
1.27593
1.04818
0.934144
0.967375
2.71558
2.48311
2.22637
1.96176
1.70696
1.47022
1.23962
1.0276
0.935153
1.02037
2.69721
2.45215
2.18638
1.91815
1.66378
1.42959
1.20129
1.01357
0.943715
1.07803
2.67634
2.41691
2.14155
1.86935
1.61716
1.38482
1.16106
1.00729
0.965981
1.13584
2.65278
2.37702
2.09117
1.81588
1.56584
1.33607
1.12373
1.00373
1.00401
1.19274
2.62628
2.33191
2.03531
1.75719
1.51086
1.28254
1.09033
1.00266
1.05921
1.24569
2.59652
2.28091
1.9734
1.69335
1.45099
1.22698
1.06708
1.00542
1.13824
1.28851
2.56319
2.2232
1.90374
1.6242
1.38632
1.1698
1.04772
1.02434
1.22877
1.32288
2.52521
2.15772
1.82562
1.54798
1.31793
1.11697
1.03458
1.06263
1.3188
1.351
2.5253
2.15788
1.82579
1.54794
1.31736
1.11686
1.0347
1.06351
1.31945
1.35068
2.56327
2.22331
1.90387
1.62423
1.38607
1.1693
1.04774
1.02483
1.22974
1.32281
2.59657
2.28104
1.97355
1.69347
1.45077
1.22678
1.06704
1.00545
1.13907
1.28876
2.62631
2.33198
2.0355
1.75731
1.51083
1.28229
1.09014
1.00261
1.05951
1.2461
2.65278
2.3771
2.09127
1.81604
1.56587
1.336
1.12362
1.00358
1.00384
1.19312
2.67633
2.41694
2.14165
1.86946
1.61724
1.38483
1.16104
1.00715
0.96565
1.13592
2.69719
2.45217
2.18642
1.91825
1.66389
1.42965
1.20135
1.01347
0.943401
1.07788
2.71555
2.48311
2.2264
1.96182
1.70702
1.4703
1.23973
1.02759
0.934968
1.02004
2.73162
2.51025
2.26157
2.0014
1.74638
1.50695
1.27604
1.04827
0.934063
0.96697
2.74572
2.53401
2.29287
2.03672
1.78188
1.54034
1.30855
1.07347
0.939336
0.918403
2.7581
2.55487
2.32028
2.0683
1.81418
1.57012
1.3376
1.10036
0.947273
0.87602
2.769
2.57322
2.34449
2.09607
1.84279
1.597
1.36306
1.12636
0.953334
0.844548
2.77865
2.5893
2.36543
2.12027
1.86814
1.62055
1.38481
1.15155
0.959205
0.821495
2.78713
2.60329
2.3832
2.14113
1.89015
1.64122
1.40346
1.17408
0.965426
0.804281
2.79464
2.61538
2.39792
2.15876
1.90893
1.6588
1.41892
1.19379
0.97322
0.79125
2.80111
2.62579
2.40975
2.17348
1.92476
1.67363
1.43171
1.2104
0.9817
0.781196
2.80641
2.63415
2.41865
2.18545
1.93766
1.68568
1.44189
1.22371
0.989807
0.773608
2.8106
2.6414
2.42496
2.19503
1.94778
1.69505
1.44957
1.23376
0.996501
0.76834
2.8132
2.64606
2.4294
2.20132
1.95474
1.70154
1.45491
1.24076
1.00194
0.764997
2.81487
2.6482
2.43274
2.20533
1.95902
1.70548
1.45796
1.24478
1.00515
0.762976
3.21399
3.18927
3.16664
3.13527
3.10005
3.05442
3.00158
2.93527
2.85513
2.75939
3.1892
3.16576
3.14467
3.11596
3.08338
3.04162
2.99313
2.93315
2.86056
2.77552
3.16994
3.14691
3.12734
3.10078
3.07057
3.03234
2.98757
2.93283
2.8669
2.79038
3.155
3.13215
3.1139
3.08915
3.06104
3.02601
2.98442
2.93443
2.87446
2.80466
3.14357
3.1209
3.10383
3.08066
3.05435
3.02208
2.98335
2.93748
2.88259
2.81824
3.13517
3.1127
3.09666
3.07486
3.0501
3.02001
2.9839
2.94163
2.89082
2.8309
3.12942
3.10716
3.09198
3.07125
3.04776
3.01943
2.98562
2.94619
2.89858
2.84232
3.12597
3.10392
3.08935
3.06948
3.04693
3.02005
2.98807
2.95068
2.90562
2.85245
3.12442
3.10253
3.08832
3.06916
3.04726
3.02141
2.99075
2.95486
2.91188
2.86137
3.12432
3.1025
3.08838
3.06963
3.04824
3.02312
2.99337
2.95866
2.91743
2.86923
3.12512
3.10331
3.08914
3.07058
3.04956
3.02494
2.99587
2.96213
2.9224
2.87619
3.12634
3.10451
3.09022
3.07177
3.05098
3.02672
2.99826
2.96538
2.92697
2.88247
3.12746
3.10563
3.09123
3.07283
3.05219
3.02826
3.00044
2.96838
2.93119
2.88817
3.12796
3.10646
3.09208
3.07375
3.05329
3.02969
3.00248
2.97117
2.93508
2.89339
3.12787
3.10697
3.09277
3.07462
3.0544
3.03109
3.00442
2.97381
2.93876
2.89828
3.12802
3.10756
3.09346
3.07544
3.05541
3.03232
3.00608
2.97607
2.94193
2.9026
3.12838
3.10815
3.0941
3.07625
3.05647
3.03364
3.00779
2.97823
2.94478
2.90623
3.12873
3.1086
3.09457
3.07685
3.0573
3.03475
3.00929
2.98015
2.94725
2.9093
3.12879
3.10874
3.09474
3.07711
3.05773
3.03543
3.01031
2.98148
2.94893
2.9113
3.12867
3.10881
3.09493
3.07739
3.05813
3.03594
3.01103
2.9824
2.95008
2.91259
1.00443
1.01407
1.0252
1.0382
1.05344
1.07295
1.09196
1.17005
2.72616
3.31848
1.00443
1.01408
1.0252
1.0382
1.05343
1.07291
1.09227
1.15422
2.69428
3.30834
1.00443
1.01408
1.0252
1.0382
1.05343
1.07287
1.0926
1.14295
2.65866
3.29989
1.00443
1.01408
1.0252
1.03821
1.05343
1.07282
1.093
1.13437
2.62094
3.29303
1.00443
1.01408
1.0252
1.03821
1.05343
1.07278
1.09341
1.12839
2.58236
3.28752
1.00443
1.01408
1.02519
1.03821
1.05343
1.07275
1.09381
1.12442
2.5437
3.28321
1.00443
1.01408
1.02519
1.03821
1.05343
1.07272
1.09419
1.12177
2.50561
3.27997
1.00442
1.01408
1.02519
1.03822
1.05343
1.07272
1.09455
1.12006
2.46868
3.27768
1.00442
1.01408
1.02519
1.03822
1.05343
1.07272
1.09486
1.11896
2.43338
3.27617
1.00442
1.01408
1.02519
1.03822
1.05343
1.07273
1.09515
1.1183
2.40013
3.27514
1.00442
1.01408
1.02519
1.03822
1.05344
1.07271
1.09544
1.11793
2.3693
3.27441
1.00442
1.01408
1.02519
1.03822
1.05346
1.07264
1.09573
1.11777
2.34128
3.27376
1.00442
1.01408
1.02519
1.03822
1.05347
1.07254
1.09603
1.11774
2.31669
3.27272
1.00442
1.01408
1.02519
1.03822
1.05349
1.0724
1.09633
1.11779
2.29649
3.2704
1.00442
1.01408
1.02518
1.03822
1.05352
1.07226
1.09662
1.11788
2.28107
3.26654
1.00442
1.01409
1.02518
1.03822
1.05354
1.07213
1.09691
1.11797
2.26873
3.26282
1.00442
1.01409
1.02518
1.03822
1.05357
1.07201
1.09719
1.11805
2.25862
3.25986
1.00442
1.01409
1.02518
1.03822
1.05359
1.07191
1.09743
1.1181
2.25087
3.25764
1.00442
1.01409
1.02518
1.03822
1.0536
1.07185
1.09761
1.11812
2.24544
3.25593
1.00442
1.01409
1.02517
1.03822
1.05362
1.0718
1.09783
1.11812
2.24257
3.25496
1.00442
1.01409
1.02517
1.03822
1.05362
1.0718
1.09783
1.11812
2.24257
3.25496
1.00442
1.01409
1.02518
1.03822
1.0536
1.07185
1.09761
1.11812
2.24544
3.25593
1.00442
1.01409
1.02518
1.03822
1.05359
1.07191
1.09743
1.1181
2.25087
3.25764
1.00442
1.01409
1.02518
1.03822
1.05357
1.07201
1.09719
1.11805
2.25862
3.25986
1.00442
1.01409
1.02518
1.03822
1.05354
1.07213
1.09691
1.11797
2.26872
3.26282
1.00442
1.01408
1.02518
1.03822
1.05352
1.07226
1.09662
1.11788
2.28107
3.26654
1.00442
1.01408
1.02519
1.03822
1.05349
1.0724
1.09633
1.11779
2.29649
3.2704
1.00442
1.01408
1.02519
1.03822
1.05347
1.07254
1.09603
1.11774
2.31669
3.27272
1.00442
1.01408
1.02519
1.03822
1.05346
1.07264
1.09573
1.11777
2.34128
3.27376
1.00442
1.01408
1.02519
1.03822
1.05344
1.07271
1.09544
1.11793
2.3693
3.2744
1.00442
1.01408
1.02519
1.03822
1.05343
1.07273
1.09515
1.1183
2.40013
3.27514
1.00442
1.01408
1.02519
1.03822
1.05343
1.07272
1.09486
1.11896
2.43338
3.27617
1.00442
1.01408
1.02519
1.03822
1.05343
1.07272
1.09455
1.12006
2.46868
3.27768
1.00443
1.01408
1.02519
1.03821
1.05343
1.07272
1.09419
1.12177
2.50561
3.27997
1.00443
1.01408
1.02519
1.03821
1.05343
1.07275
1.09381
1.12442
2.5437
3.28321
1.00443
1.01408
1.0252
1.03821
1.05343
1.07278
1.09341
1.12839
2.58235
3.28752
1.00443
1.01408
1.0252
1.03821
1.05343
1.07282
1.093
1.13437
2.62094
3.29303
1.00443
1.01408
1.0252
1.0382
1.05343
1.07287
1.0926
1.14295
2.65865
3.29989
1.00443
1.01408
1.0252
1.0382
1.05343
1.07291
1.09227
1.15422
2.69427
3.30834
1.00443
1.01407
1.0252
1.0382
1.05344
1.07295
1.09196
1.17005
2.72616
3.31848
3.12868
3.10882
3.09493
3.0774
3.05813
3.03595
3.01103
2.98241
2.95008
2.91259
3.12879
3.10874
3.09474
3.07711
3.05774
3.03543
3.01031
2.98149
2.94893
2.9113
3.12873
3.10861
3.09458
3.07686
3.0573
3.03475
3.00929
2.98015
2.94724
2.9093
3.12838
3.10815
3.0941
3.07625
3.05647
3.03364
3.00778
2.97823
2.94477
2.90622
3.12803
3.10757
3.09346
3.07544
3.05541
3.03232
3.00608
2.97606
2.94193
2.90259
3.12787
3.10697
3.09277
3.07462
3.05439
3.03109
3.00442
2.9738
2.93875
2.89827
3.12796
3.10646
3.09207
3.07375
3.05329
3.02968
3.00247
2.97116
2.93507
2.89339
3.12746
3.10563
3.09123
3.07282
3.05218
3.02826
3.00044
2.96837
2.93118
2.88817
3.12633
3.1045
3.09021
3.07176
3.05097
3.02671
2.99826
2.96537
2.92697
2.88247
3.12511
3.1033
3.08913
3.07057
3.04956
3.02494
2.99587
2.96213
2.92241
2.8762
3.12432
3.1025
3.08837
3.06962
3.04823
3.02311
2.99337
2.95866
2.91744
2.86925
3.12442
3.10253
3.08831
3.06915
3.04725
3.0214
2.99075
2.95487
2.9119
2.86139
3.12596
3.10391
3.08934
3.06948
3.04693
3.02005
2.98807
2.95069
2.90564
2.85248
3.12942
3.10716
3.09197
3.07125
3.04776
3.01944
2.98564
2.94621
2.89861
2.84235
3.13517
3.1127
3.09666
3.07486
3.05011
3.02002
2.98392
2.94166
2.89085
2.83093
3.14357
3.1209
3.10383
3.08067
3.05437
3.0221
2.98338
2.93751
2.88262
2.81827
3.155
3.13215
3.11391
3.08916
3.06106
3.02604
2.98445
2.93446
2.87449
2.80468
3.16995
3.14692
3.12736
3.1008
3.07059
3.03236
2.9876
2.93285
2.86692
2.79038
3.18922
3.16578
3.14469
3.11598
3.08341
3.04165
2.99316
2.93317
2.86056
2.77551
3.21401
3.18929
3.16666
3.13529
3.10008
3.05444
3.00161
2.93528
2.85512
2.75935
)
;

boundaryField
{
    inlet
    {
        type            fixedValue;
        value           uniform 1;
    }
    outlet
    {
        type            zeroGradient;
    }
    triangle
    {
        type            zeroGradient;
    }
    top
    {
        type            symmetryPlane;
    }
    bottom
    {
        type            symmetryPlane;
    }
    defaultFaces
    {
        type            empty;
    }
}


// ************************************************************************* //
