/*--------------------------------*- C++ -*----------------------------------*\
  =========                 |
  \\      /  F ield         | OpenFOAM: The Open Source CFD Toolbox
   \\    /   O peration     | Website:  https://openfoam.org
    \\  /    A nd           | Version:  8
     \\/     M anipulation  |
\*---------------------------------------------------------------------------*/
FoamFile
{
    version     2.0;
    format      ascii;
    class       volScalarField;
    location    "2.4";
    object      rho;
}
// * * * * * * * * * * * * * * * * * * * * * * * * * * * * * * * * * * * * * //

dimensions      [1 -3 0 0 0 0 0];

internalField   nonuniform List<scalar> 
2600
(
1.01495
1.02525
1.09519
1.23503
1.44882
1.71354
1.91321
1.96979
1.94475
1.86044
0.975721
0.957066
1.0407
1.21911
1.44895
1.70534
1.90455
1.95524
1.93139
1.85558
0.967369
0.921039
0.983643
1.19189
1.44341
1.69467
1.8741
1.93843
1.90009
1.81762
0.964645
0.907805
0.946935
1.13668
1.40836
1.69159
1.8546
1.93202
1.88607
1.78109
0.962023
0.901301
0.926444
1.0902
1.34128
1.63141
1.83079
1.89282
1.87352
1.7615
0.966213
0.905294
0.913237
1.05355
1.28642
1.52581
1.73462
1.79564
1.79364
1.70978
0.973186
0.908026
0.910547
1.02789
1.2433
1.46335
1.63344
1.72177
1.69529
1.64346
0.977828
0.909142
0.914715
1.02721
1.21501
1.4082
1.56858
1.64879
1.64598
1.58854
0.980785
0.906229
0.908154
1.01885
1.19459
1.39022
1.53228
1.61565
1.61091
1.5531
0.983085
0.900852
0.89716
1.0014
1.17563
1.38787
1.52691
1.60688
1.58092
1.55371
0.982967
0.901225
0.897033
1.00109
1.17464
1.3915
1.54621
1.57605
1.59456
1.55675
0.980497
0.906682
0.909429
1.01866
1.18504
1.38724
1.55226
1.59913
1.60274
1.57562
0.977527
0.910097
0.91646
1.02507
1.21149
1.41675
1.57799
1.63858
1.63752
1.59549
0.973707
0.90956
0.913301
1.02794
1.23971
1.47326
1.64002
1.70451
1.71556
1.63313
0.96728
0.907563
0.91643
1.05456
1.28533
1.53481
1.72196
1.82174
1.78617
1.69251
0.963239
0.903791
0.930002
1.0906
1.33893
1.62921
1.83873
1.89157
1.83388
1.75534
0.965588
0.909688
0.949422
1.13579
1.39868
1.68641
1.86946
1.90016
1.89017
1.82121
0.967411
0.92256
0.98507
1.18987
1.42983
1.702
1.8733
1.93153
1.93287
1.83495
0.975302
0.958984
1.04156
1.21945
1.4397
1.71247
1.89766
1.96989
1.93842
1.83186
1.01559
1.02747
1.09656
1.23753
1.4404
1.71443
1.91232
1.97616
1.93176
1.83978
1.26287
1.10587
1.15304
1.25389
1.4293
1.70444
1.91245
1.96465
1.92911
1.85465
1.51121
1.18494
1.21569
1.26911
1.40633
1.67518
1.88857
1.94737
1.92897
1.85565
1.72908
1.27866
1.26582
1.28176
1.38199
1.63248
1.86047
1.94298
1.92608
1.84942
1.8998
1.39097
1.30962
1.29614
1.36802
1.59346
1.83727
1.93686
1.91749
1.84026
2.03507
1.50139
1.355
1.31278
1.3587
1.55683
1.81486
1.92557
1.90588
1.83384
2.13577
1.60115
1.39807
1.32343
1.35208
1.51635
1.78959
1.90632
1.89417
1.82999
2.21282
1.69132
1.44547
1.33043
1.34866
1.47437
1.75497
1.88748
1.88572
1.823
2.27251
1.76888
1.50123
1.35282
1.34966
1.44071
1.71432
1.87292
1.88059
1.81378
2.3218
1.83859
1.5535
1.39408
1.35474
1.42022
1.67558
1.85848
1.87583
1.80541
2.36545
1.90341
1.60132
1.43349
1.3683
1.40868
1.63677
1.8433
1.87122
1.7987
2.40517
1.96495
1.65378
1.46478
1.38041
1.40082
1.59404
1.82556
1.86592
1.79212
2.44249
2.02048
1.71121
1.50253
1.38906
1.40204
1.55034
1.80364
1.86289
1.78569
2.47684
2.0713
1.76434
1.55195
1.40324
1.404
1.51144
1.77762
1.85869
1.77974
2.50814
2.11879
1.81174
1.60056
1.43301
1.40579
1.47972
1.74546
1.8532
1.77405
2.53637
2.1638
1.8598
1.64164
1.4713
1.40979
1.45537
1.70663
1.84556
1.76804
2.56226
2.20595
1.90866
1.68203
1.50422
1.4189
1.43906
1.66303
1.83463
1.76219
2.58602
2.24579
1.9551
1.72504
1.53433
1.42794
1.42943
1.61811
1.8199
1.75524
2.60762
2.28347
1.99756
1.76658
1.56923
1.43759
1.42302
1.57463
1.80103
1.74776
2.62695
2.31786
2.03682
1.804
1.60598
1.45109
1.42143
1.53407
1.77749
1.73934
2.64423
2.34857
2.0732
1.83962
1.6401
1.46978
1.42216
1.49731
1.75036
1.73043
3.90601
3.77467
3.68365
3.59457
3.50737
3.42197
3.32872
3.22367
3.06922
2.87192
3.73677
3.61094
3.55306
3.48783
3.42191
3.34892
3.26283
3.15454
2.99421
2.75604
3.69198
3.60081
3.55466
3.4939
3.43297
3.36323
3.27798
3.16705
3.00414
2.77765
3.62561
3.55722
3.52065
3.46683
3.41314
3.34551
3.26123
3.14899
2.9884
2.76097
3.56649
3.51446
3.48576
3.43683
3.38691
3.32082
3.23915
3.12806
2.97287
2.74575
3.51392
3.4723
3.44662
3.4012
3.35527
3.2913
3.21289
3.10358
2.95487
2.73402
3.46396
3.43001
3.40647
3.36439
3.32153
3.25918
3.18413
3.07746
2.93601
2.72922
3.40649
3.38031
3.36002
3.32312
3.28412
3.22473
3.15391
3.05122
2.91846
2.72807
3.35287
3.33415
3.31777
3.28537
3.24915
3.19252
3.12567
3.02763
2.90398
2.72959
3.3134
3.29854
3.28337
3.25298
3.21831
3.16434
3.10112
3.00806
2.89321
2.73417
3.29061
3.27447
3.25797
3.228
3.1939
3.14197
3.08168
2.9934
2.88626
2.74151
3.27769
3.25741
3.23917
3.20931
3.17543
3.1253
3.06747
2.98405
2.88323
2.75089
3.26842
3.24432
3.22464
3.19484
3.16116
3.11286
3.0574
2.97867
2.88372
2.76199
3.25837
3.23168
3.21117
3.1817
3.14862
3.10241
3.04943
2.97531
2.88625
2.77371
3.24718
3.21881
3.1979
3.16892
3.13675
3.09276
3.04231
2.97282
2.88953
2.78505
3.23431
3.20515
3.18437
3.15616
3.12518
3.08342
3.03548
2.97037
2.89251
2.79543
3.21922
3.19065
3.17067
3.14355
3.11397
3.07447
3.02905
2.96812
2.89521
2.80474
3.20138
3.17533
3.15695
3.13125
3.10322
3.06591
3.02296
2.96605
2.89767
2.81322
3.18142
3.15953
3.1431
3.11924
3.09304
3.05804
3.0175
2.96432
2.89985
2.8206
3.16376
3.14526
3.12993
3.10779
3.0832
3.0504
3.01215
2.96247
2.90182
2.82736
1.40443
1.41404
1.42516
1.43794
1.45321
1.47224
1.48996
1.68966
3.01031
3.4192
1.40443
1.41404
1.42516
1.43794
1.45321
1.47224
1.48997
1.68906
3.00731
3.41283
1.40443
1.41404
1.42516
1.43794
1.4532
1.47225
1.48998
1.68793
3.00121
3.40453
1.40443
1.41404
1.42516
1.43794
1.45319
1.47226
1.49
1.68625
2.99127
3.39372
1.40443
1.41404
1.42515
1.43794
1.45317
1.47227
1.49002
1.68402
2.97954
3.37959
1.40443
1.41404
1.42515
1.43795
1.45316
1.47229
1.49003
1.68142
2.96746
3.36116
1.40443
1.41404
1.42515
1.43795
1.45315
1.47231
1.49003
1.67838
2.95515
3.34073
1.40443
1.41404
1.42515
1.43796
1.45313
1.47232
1.49003
1.67482
2.94391
3.32218
1.40443
1.41404
1.42515
1.43796
1.45312
1.47234
1.49002
1.67066
2.93367
3.30771
1.40443
1.41404
1.42514
1.43797
1.45311
1.47235
1.49001
1.66597
2.92285
3.29611
1.40443
1.41405
1.42514
1.43797
1.4531
1.47236
1.48999
1.66085
2.91048
3.28671
1.40443
1.41405
1.42514
1.43797
1.45309
1.47236
1.48998
1.65544
2.8964
3.27793
1.40443
1.41405
1.42513
1.43798
1.45308
1.47236
1.48999
1.64973
2.88112
3.26947
1.40443
1.41405
1.42513
1.43798
1.45308
1.47236
1.49001
1.64323
2.8657
3.26124
1.40443
1.41405
1.42513
1.43798
1.45307
1.47235
1.49007
1.6348
2.85093
3.25366
1.40443
1.41405
1.42513
1.43799
1.45307
1.47233
1.49014
1.62527
2.83679
3.24652
1.40443
1.41405
1.42513
1.43799
1.45307
1.47232
1.49025
1.61426
2.82334
3.24009
1.40443
1.41405
1.42512
1.43799
1.45306
1.47229
1.49038
1.60224
2.81072
3.23423
1.40443
1.41405
1.42512
1.438
1.45306
1.47227
1.49053
1.58979
2.79846
3.22894
1.40443
1.41405
1.42512
1.438
1.45306
1.47224
1.49068
1.57769
2.7862
3.2239
1.40443
1.41405
1.42512
1.438
1.45306
1.47224
1.49068
1.57769
2.78619
3.2239
1.40443
1.41405
1.42512
1.438
1.45306
1.47227
1.49053
1.58978
2.79846
3.22894
1.40443
1.41405
1.42512
1.43799
1.45306
1.47229
1.49038
1.60224
2.81072
3.23424
1.40443
1.41405
1.42513
1.43799
1.45307
1.47232
1.49025
1.61426
2.82334
3.24009
1.40443
1.41405
1.42513
1.43799
1.45307
1.47233
1.49014
1.62527
2.83679
3.24652
1.40443
1.41405
1.42513
1.43798
1.45307
1.47235
1.49007
1.63479
2.85093
3.25367
1.40443
1.41405
1.42513
1.43798
1.45308
1.47236
1.49001
1.64322
2.8657
3.26125
1.40443
1.41405
1.42513
1.43798
1.45308
1.47236
1.48999
1.64973
2.88112
3.26948
1.40443
1.41405
1.42514
1.43797
1.45309
1.47236
1.48998
1.65544
2.8964
3.27793
1.40443
1.41405
1.42514
1.43797
1.4531
1.47236
1.48999
1.66085
2.91048
3.28672
1.40443
1.41404
1.42514
1.43797
1.45311
1.47235
1.49001
1.66597
2.92285
3.29612
1.40443
1.41404
1.42515
1.43796
1.45312
1.47234
1.49002
1.67066
2.93367
3.30772
1.40443
1.41404
1.42515
1.43796
1.45313
1.47232
1.49003
1.67482
2.94391
3.32219
1.40443
1.41404
1.42515
1.43795
1.45315
1.47231
1.49003
1.67838
2.95515
3.34073
1.40443
1.41404
1.42515
1.43795
1.45316
1.47229
1.49003
1.68142
2.96746
3.36117
1.40443
1.41404
1.42515
1.43794
1.45317
1.47227
1.49002
1.68402
2.97954
3.3796
1.40443
1.41404
1.42516
1.43794
1.45319
1.47226
1.49
1.68625
2.99127
3.39373
1.40443
1.41404
1.42516
1.43794
1.4532
1.47225
1.48998
1.68794
3.00122
3.40453
1.40443
1.41404
1.42516
1.43794
1.45321
1.47224
1.48997
1.68907
3.00731
3.41283
1.40443
1.41404
1.42516
1.43794
1.45321
1.47224
1.48996
1.68971
3.01031
3.4192
3.16378
3.14528
3.12995
3.1078
3.08321
3.05041
3.01216
2.96247
2.9018
2.82731
3.18144
3.15955
3.14312
3.11925
3.09305
3.05805
3.0175
2.96431
2.89982
2.82054
3.2014
3.17534
3.15697
3.13126
3.10323
3.06592
3.02296
2.96604
2.89763
2.81316
3.21923
3.19066
3.17068
3.14356
3.11398
3.07447
3.02904
2.96809
2.89517
2.80468
3.23432
3.20517
3.18438
3.15617
3.12519
3.08342
3.03547
2.97034
2.89247
2.79535
3.24719
3.21882
3.19791
3.16893
3.13675
3.09275
3.04229
2.97278
2.88946
2.78495
3.25837
3.23169
3.21118
3.1817
3.14861
3.10239
3.0494
2.97526
2.88616
2.7736
3.26842
3.24432
3.22464
3.19483
3.16115
3.11284
3.05736
2.97862
2.88361
2.76188
3.27769
3.25741
3.23917
3.20931
3.17542
3.12528
3.06743
2.98399
2.8831
2.75079
3.29061
3.27447
3.25797
3.22799
3.19389
3.14194
3.08163
2.99333
2.88614
2.7414
3.3134
3.29854
3.28337
3.25297
3.21829
3.16431
3.10107
3.00798
2.89311
2.73404
3.35287
3.33415
3.31777
3.28536
3.24913
3.19249
3.12561
3.02754
2.90388
2.72942
3.4065
3.38031
3.36002
3.32311
3.28411
3.2247
3.15386
3.05113
2.91834
2.72788
3.46396
3.43001
3.40647
3.36438
3.32151
3.25915
3.18408
3.07736
2.93586
2.72907
3.51392
3.47231
3.44662
3.4012
3.35525
3.29127
3.21284
3.10349
2.95471
2.73399
3.5665
3.51446
3.48576
3.43683
3.3869
3.32079
3.2391
3.12797
2.97273
2.74576
3.62561
3.55722
3.52065
3.46682
3.41313
3.34549
3.26119
3.14892
2.98831
2.76088
3.69199
3.60081
3.55466
3.4939
3.43296
3.36321
3.27795
3.167
3.00408
2.77754
3.73677
3.61094
3.55306
3.48783
3.42191
3.3489
3.2628
3.15449
2.99415
2.75603
3.90602
3.77467
3.68365
3.59457
3.50736
3.42196
3.3287
3.22363
3.06917
2.87189
2.64417
2.34845
2.07308
1.83969
1.64068
1.46973
1.42182
1.49574
1.74932
1.73078
2.62689
2.31781
2.03672
1.80408
1.60642
1.45113
1.42117
1.53124
1.77544
1.73956
2.60754
2.28348
1.99752
1.7666
1.56967
1.43791
1.42257
1.57178
1.79923
1.74754
2.58592
2.24584
1.95504
1.72509
1.53484
1.4282
1.4288
1.61746
1.82008
1.75479
2.56212
2.20593
1.90863
1.68209
1.50471
1.41879
1.43849
1.66247
1.83609
1.76232
2.53621
2.16372
1.85984
1.64162
1.47156
1.40966
1.4543
1.70299
1.84644
1.76893
2.50804
2.11876
1.81183
1.60002
1.43327
1.40599
1.47828
1.73939
1.85314
1.77513
2.47686
2.07146
1.76427
1.55101
1.40367
1.40516
1.51093
1.77447
1.85777
1.7788
2.44264
2.02089
1.71083
1.50148
1.3899
1.40321
1.55117
1.80494
1.86242
1.78448
2.40531
1.96543
1.65327
1.46383
1.38145
1.40207
1.59335
1.82594
1.86926
1.79189
2.36535
1.90406
1.6006
1.43191
1.36963
1.41
1.63318
1.83847
1.87281
1.80054
2.32152
1.83949
1.55256
1.3919
1.35679
1.42146
1.67319
1.85093
1.87551
1.80726
2.27234
1.76996
1.49913
1.35068
1.3517
1.44367
1.71624
1.8688
1.87886
1.81213
2.21293
1.69217
1.44279
1.32973
1.35077
1.47959
1.75676
1.89102
1.88774
1.81983
2.13602
1.60175
1.39507
1.32385
1.35523
1.52099
1.78793
1.90895
1.90048
1.83098
2.03493
1.50308
1.35127
1.313
1.36321
1.55922
1.81189
1.92095
1.91024
1.84163
1.89902
1.39339
1.30461
1.29585
1.37405
1.59458
1.83421
1.92941
1.91372
1.84601
1.72779
1.2808
1.26052
1.28085
1.39119
1.63864
1.85771
1.93897
1.9169
1.8419
1.50914
1.18552
1.21234
1.26754
1.4169
1.68502
1.88447
1.9585
1.92528
1.84223
1.26138
1.10407
1.15075
1.25118
1.43872
1.71078
1.9096
1.97022
1.94186
1.85201
2.88064
2.76511
2.60913
2.43795
2.24455
2.03646
1.82373
1.63257
1.40632
1.15438
2.87942
2.76352
2.60657
2.43479
2.24104
2.03307
1.82096
1.62876
1.40305
1.15656
2.87755
2.76008
2.6032
2.42982
2.2353
2.02744
1.81606
1.62203
1.39743
1.16015
2.87453
2.75476
2.59842
2.42226
2.22694
2.01928
1.80895
1.61226
1.39035
1.16576
2.87075
2.74866
2.59169
2.41282
2.21628
2.00876
1.7995
1.59925
1.38169
1.17381
2.86617
2.74108
2.58276
2.40121
2.20319
1.99581
1.78764
1.58295
1.37251
1.18441
2.86094
2.73233
2.57168
2.38732
2.18767
1.98047
1.77335
1.56356
1.36393
1.19807
2.85515
2.72227
2.55832
2.37089
2.16948
1.96246
1.75619
1.54128
1.35702
1.21591
2.84868
2.71075
2.54256
2.3518
2.14849
1.94191
1.73625
1.51614
1.35087
1.23928
2.84139
2.69756
2.52425
2.32978
2.12472
1.91841
1.71295
1.48978
1.34553
1.27019
2.83303
2.6824
2.50332
2.30457
2.09774
1.89227
1.68625
1.46241
1.33816
1.31106
2.82323
2.66481
2.4791
2.27609
2.06785
1.86286
1.65623
1.43698
1.33082
1.35873
2.81169
2.64433
2.45154
2.24386
2.03449
1.83041
1.62238
1.4163
1.3308
1.40921
2.7981
2.62061
2.41986
2.20805
1.9976
1.79425
1.58626
1.40251
1.33803
1.46284
2.78232
2.59332
2.38404
2.16762
1.95744
1.75415
1.54788
1.39671
1.35953
1.51649
2.76434
2.56226
2.3435
2.12296
1.91284
1.71013
1.5118
1.39409
1.39697
1.57032
2.74413
2.52704
2.29828
2.07348
1.86459
1.66122
1.47923
1.39422
1.45087
1.62083
2.72151
2.48712
2.24781
2.01912
1.81145
1.60967
1.45659
1.39735
1.52726
1.6607
2.69624
2.44179
2.19055
1.95951
1.75327
1.55557
1.43782
1.41658
1.61318
1.69094
2.66738
2.38996
2.1256
1.89288
1.69075
1.50441
1.42572
1.45411
1.69644
1.71519
2.66745
2.39008
2.12574
1.89285
1.69023
1.5043
1.42584
1.45498
1.69701
1.71488
2.6963
2.44188
2.19066
1.95954
1.75304
1.55509
1.43783
1.41708
1.6141
1.69086
2.72155
2.48722
2.24793
2.01922
1.81125
1.60948
1.45653
1.39739
1.52806
1.66092
2.74414
2.52709
2.29842
2.07359
1.86457
1.66098
1.47903
1.39417
1.45119
1.6212
2.76434
2.56232
2.34358
2.12309
1.91287
1.71007
1.51169
1.39392
1.39683
1.57064
2.78231
2.59335
2.38412
2.16772
1.95751
1.75416
1.54786
1.39658
1.3592
1.51653
2.79808
2.62062
2.4199
2.20813
1.99769
1.79431
1.58632
1.40243
1.3377
1.46269
2.81167
2.64433
2.45157
2.24391
2.03455
1.83048
1.62248
1.41631
1.33059
1.40889
2.82321
2.6648
2.47911
2.27612
2.0679
1.86292
1.65632
1.43706
1.33074
1.35833
2.83301
2.68238
2.50331
2.30458
2.09776
1.89232
1.68635
1.46252
1.33815
1.31064
2.84138
2.69754
2.52424
2.32978
2.12474
1.91844
1.71302
1.4899
1.34551
1.26986
2.84866
2.71073
2.54254
2.35179
2.14849
1.94193
1.73631
1.51624
1.35085
1.23906
2.85515
2.72226
2.5583
2.37087
2.16947
1.96247
1.75623
1.54135
1.35702
1.21578
2.86094
2.73232
2.57166
2.38731
2.18766
1.98047
1.77338
1.5636
1.36396
1.19804
2.86617
2.74107
2.58275
2.40119
2.20318
1.9958
1.78765
1.58296
1.37253
1.18445
2.87075
2.74866
2.59169
2.41281
2.21626
2.00875
1.7995
1.59924
1.38168
1.17387
2.87454
2.75476
2.59842
2.42225
2.22693
2.01927
1.80895
1.61224
1.39032
1.16582
2.87755
2.76009
2.6032
2.42982
2.23529
2.02742
1.81605
1.622
1.39737
1.16018
2.87943
2.76353
2.60658
2.43479
2.24103
2.03306
1.82095
1.62872
1.40299
1.15656
2.88065
2.76512
2.60914
2.43796
2.24455
2.03645
1.82371
1.63254
1.40625
1.15436
3.14619
3.12994
3.11555
3.09515
3.07206
3.0416
3.00591
2.96038
2.90457
2.83674
3.12938
3.11398
3.10061
3.082
3.0607
3.0329
3.00023
2.95925
2.90889
2.84896
3.11634
3.1012
3.08887
3.07174
3.05207
3.02671
2.99666
2.95938
2.91383
2.86019
3.10625
3.09123
3.07984
3.06398
3.04579
3.02272
2.99496
2.96098
2.91973
2.87106
3.09845
3.08358
3.07306
3.05837
3.04149
3.02041
2.99467
2.96373
2.92617
2.88151
3.09245
3.07774
3.06803
3.05435
3.03861
3.01908
2.99524
2.96702
2.93253
2.89121
3.08789
3.07335
3.06426
3.05138
3.03661
3.01843
2.9964
2.97031
2.93823
2.89971
3.08472
3.07032
3.0617
3.04947
3.03542
3.0184
2.99774
2.97319
2.94306
2.90692
3.08286
3.06858
3.06023
3.04852
3.03495
3.01865
2.99898
2.97556
2.947
2.91291
3.082
3.06777
3.05948
3.04805
3.03484
3.01905
3.00003
2.97748
2.95024
2.91789
3.08189
3.06765
3.0593
3.04798
3.035
3.01955
3.001
2.97915
2.953
2.92213
3.08234
3.06803
3.05955
3.04825
3.03539
3.02016
3.00202
2.98076
2.95555
2.92593
3.08292
3.06858
3.05996
3.04865
3.03585
3.02082
3.00309
2.98238
2.95803
2.92947
3.08318
3.06907
3.06044
3.04915
3.03644
3.0216
3.00427
2.98408
2.96049
2.93288
3.08318
3.06949
3.06095
3.04976
3.0372
3.02254
3.00557
2.98584
2.96297
2.93621
3.0835
3.07008
3.06158
3.05046
3.038
3.02347
3.00677
2.98744
2.9652
2.93924
3.08398
3.0707
3.06221
3.05117
3.03886
3.02448
3.00803
2.98901
2.96724
2.94183
3.08439
3.07117
3.06268
3.05171
3.03954
3.02535
3.00916
2.99041
2.96902
2.94403
3.0845
3.07134
3.06286
3.05196
3.03991
3.02587
3.00991
2.99139
2.97024
2.94548
3.08444
3.07141
3.06302
3.05218
3.04021
3.02626
3.01044
2.99205
2.97107
2.94641
1.40443
1.41405
1.42512
1.438
1.45306
1.47221
1.49089
1.56419
2.77021
3.21779
1.40443
1.41405
1.42512
1.43801
1.45305
1.47217
1.49117
1.55054
2.74956
3.21135
1.40443
1.41406
1.42512
1.43801
1.45305
1.47213
1.49147
1.54034
2.72555
3.20599
1.40443
1.41406
1.42512
1.43801
1.45305
1.4721
1.49183
1.53219
2.69918
3.20164
1.40443
1.41406
1.42512
1.43801
1.45304
1.47206
1.49223
1.52638
2.67157
3.19802
1.40443
1.41406
1.42511
1.43802
1.45304
1.47203
1.49261
1.52249
2.64367
3.1949
1.40443
1.41406
1.42511
1.43802
1.45304
1.47201
1.49298
1.51989
2.61621
3.1921
1.40443
1.41406
1.42511
1.43802
1.45304
1.47201
1.49332
1.51821
2.58973
3.18976
1.40443
1.41406
1.42511
1.43802
1.45304
1.47201
1.49363
1.51714
2.56457
3.18791
1.40443
1.41406
1.42511
1.43802
1.45305
1.47202
1.49391
1.51648
2.54103
3.18637
1.40443
1.41406
1.42511
1.43802
1.45306
1.472
1.49419
1.51612
2.51931
3.1852
1.40443
1.41406
1.42511
1.43802
1.45307
1.47193
1.49447
1.51596
2.49964
3.18438
1.40443
1.41406
1.42511
1.43802
1.45309
1.47183
1.49476
1.51593
2.48243
3.18346
1.40443
1.41406
1.4251
1.43802
1.45311
1.4717
1.49505
1.51597
2.46836
3.18176
1.40443
1.41406
1.4251
1.43802
1.45313
1.47156
1.49533
1.51606
2.4577
3.17918
1.40443
1.41407
1.4251
1.43803
1.45316
1.47143
1.49561
1.51614
2.44913
3.17683
1.40442
1.41407
1.4251
1.43803
1.45318
1.47132
1.49589
1.51621
2.44205
3.17502
1.40442
1.41407
1.4251
1.43803
1.4532
1.47122
1.49612
1.51626
2.43658
3.17365
1.40442
1.41407
1.4251
1.43803
1.45321
1.47116
1.49629
1.51628
2.43265
3.17254
1.40442
1.41407
1.42509
1.43803
1.45323
1.47111
1.49651
1.51628
2.43047
3.17187
1.40442
1.41407
1.42509
1.43803
1.45323
1.47111
1.49651
1.51628
2.43047
3.17188
1.40442
1.41407
1.4251
1.43803
1.45321
1.47116
1.49629
1.51628
2.43265
3.17254
1.40442
1.41407
1.4251
1.43803
1.4532
1.47122
1.49612
1.51626
2.43658
3.17365
1.40442
1.41407
1.4251
1.43803
1.45318
1.47132
1.49589
1.51621
2.44205
3.17502
1.40443
1.41407
1.4251
1.43803
1.45316
1.47143
1.49561
1.51614
2.44913
3.17683
1.40443
1.41406
1.4251
1.43802
1.45313
1.47156
1.49533
1.51606
2.4577
3.17918
1.40443
1.41406
1.4251
1.43802
1.45311
1.4717
1.49505
1.51597
2.46836
3.18176
1.40443
1.41406
1.42511
1.43802
1.45309
1.47183
1.49476
1.51593
2.48243
3.18346
1.40443
1.41406
1.42511
1.43802
1.45307
1.47193
1.49447
1.51596
2.49964
3.18438
1.40443
1.41406
1.42511
1.43802
1.45306
1.472
1.49419
1.51612
2.51931
3.1852
1.40443
1.41406
1.42511
1.43802
1.45305
1.47202
1.49391
1.51648
2.54103
3.18637
1.40443
1.41406
1.42511
1.43802
1.45304
1.47201
1.49363
1.51714
2.56457
3.18791
1.40443
1.41406
1.42511
1.43802
1.45304
1.47201
1.49332
1.51821
2.58973
3.18976
1.40443
1.41406
1.42511
1.43802
1.45304
1.47201
1.49298
1.51989
2.61621
3.1921
1.40443
1.41406
1.42511
1.43802
1.45304
1.47203
1.49261
1.52249
2.64367
3.1949
1.40443
1.41406
1.42512
1.43801
1.45304
1.47206
1.49223
1.52638
2.67157
3.19802
1.40443
1.41406
1.42512
1.43801
1.45305
1.4721
1.49183
1.53219
2.69918
3.20164
1.40443
1.41406
1.42512
1.43801
1.45305
1.47213
1.49147
1.54033
2.72555
3.20599
1.40443
1.41405
1.42512
1.43801
1.45305
1.47217
1.49117
1.55054
2.74956
3.21135
1.40443
1.41405
1.42512
1.438
1.45306
1.47221
1.49089
1.56419
2.77021
3.21779
3.08444
3.07141
3.06302
3.05218
3.04021
3.02626
3.01045
2.99206
2.97107
2.94641
3.08451
3.07134
3.06287
3.05196
3.03991
3.02587
3.00992
2.99139
2.97024
2.94547
3.08439
3.07118
3.06268
3.05172
3.03955
3.02535
3.00916
2.99041
2.96902
2.94403
3.08398
3.07071
3.06222
3.05118
3.03886
3.02449
3.00803
2.98901
2.96723
2.94182
3.0835
3.07008
3.06159
3.05046
3.038
3.02346
3.00676
2.98744
2.96519
2.93923
3.08318
3.06949
3.06095
3.04976
3.0372
3.02254
3.00556
2.98584
2.96296
2.9362
3.08318
3.06907
3.06043
3.04914
3.03644
3.0216
3.00427
2.98407
2.96049
2.93287
3.08292
3.06858
3.05996
3.04864
3.03585
3.02081
3.00308
2.98238
2.95803
2.92947
3.08234
3.06803
3.05954
3.04824
3.03539
3.02016
3.00201
2.98075
2.95555
2.92593
3.08189
3.06764
3.05929
3.04797
3.035
3.01955
3.001
2.97915
2.953
2.92214
3.08199
3.06776
3.05947
3.04804
3.03484
3.01905
3.00003
2.97749
2.95025
2.91791
3.08285
3.06857
3.06023
3.04852
3.03495
3.01865
2.99898
2.97556
2.94702
2.91292
3.08472
3.07031
3.06169
3.04947
3.03542
3.0184
2.99775
2.9732
2.94307
2.90694
3.08788
3.07334
3.06426
3.05138
3.03661
3.01843
2.99641
2.97032
2.93825
2.89974
3.09245
3.07774
3.06803
3.05435
3.03862
3.01909
2.99526
2.96704
2.93255
2.89123
3.09845
3.08358
3.07307
3.05838
3.0415
3.02042
2.99469
2.96375
2.92619
2.88153
3.10625
3.09123
3.07985
3.06399
3.0458
3.02273
2.99498
2.961
2.91975
2.87107
3.11635
3.10121
3.08888
3.07175
3.05208
3.02673
2.99668
2.9594
2.91385
2.86019
3.12939
3.11399
3.10062
3.08202
3.06072
3.03292
3.00025
2.95927
2.90889
2.84895
3.14621
3.12996
3.11556
3.09517
3.07208
3.04162
3.00592
2.96039
2.90456
2.83671
)
;

boundaryField
{
    inlet
    {
        type            calculated;
        value           uniform 1.40001;
    }
    outlet
    {
        type            calculated;
        value           nonuniform List<scalar> 
100
(
1.71496
1.69097
1.66104
1.62132
1.57076
1.51666
1.46281
1.40901
1.35846
1.31076
1.26998
1.23919
1.21591
1.19816
1.18457
1.17399
1.16594
1.16029
1.15667
1.15447
1.85438
1.85588
1.84988
1.84056
1.83409
1.83
1.82323
1.8141
1.80564
1.79885
1.79228
1.7859
1.7799
1.77411
1.7681
1.76226
1.75533
1.74785
1.73943
1.73049
1.86082
1.85544
1.816
1.78153
1.76296
1.70969
1.64308
1.58876
1.55268
1.55319
1.55735
1.57661
1.5956
1.63357
1.69277
1.75413
1.82127
1.83647
1.83225
1.8391
1.73084
1.73962
1.74762
1.7549
1.76243
1.769
1.77519
1.77889
1.78465
1.79215
1.80073
1.80735
1.81224
1.82015
1.83147
1.84192
1.84583
1.84174
1.84254
1.853
1.15449
1.15667
1.16026
1.16588
1.17393
1.18453
1.19819
1.21604
1.23941
1.27031
1.31117
1.35885
1.40934
1.46297
1.51661
1.57044
1.62096
1.66083
1.69105
1.71528
)
;
    }
    triangle
    {
        type            calculated;
        value           nonuniform List<scalar> 
40
(
3.90601
3.77467
3.68365
3.59457
3.50737
3.42197
3.32872
3.22367
3.06922
2.87192
1.01495
0.975721
0.967369
0.964645
0.962023
0.966213
0.973186
0.977828
0.980785
0.983085
0.982967
0.980497
0.977527
0.973707
0.96728
0.963239
0.965588
0.967411
0.975302
1.01559
3.90602
3.77467
3.68365
3.59457
3.50736
3.42196
3.3287
3.22363
3.06917
2.87189
)
;
    }
    top
    {
        type            symmetryPlane;
    }
    bottom
    {
        type            symmetryPlane;
    }
    defaultFaces
    {
        type            empty;
    }
}


// ************************************************************************* //
