/*--------------------------------*- C++ -*----------------------------------*\
  =========                 |
  \\      /  F ield         | OpenFOAM: The Open Source CFD Toolbox
   \\    /   O peration     | Website:  https://openfoam.org
    \\  /    A nd           | Version:  8
     \\/     M anipulation  |
\*---------------------------------------------------------------------------*/
FoamFile
{
    version     2.0;
    format      ascii;
    class       volScalarField;
    location    "2.4";
    object      T;
}
// * * * * * * * * * * * * * * * * * * * * * * * * * * * * * * * * * * * * * //

dimensions      [0 0 0 1 0 0 0];

internalField   nonuniform List<scalar> 
2600
(
1.26567
1.19247
1.09389
1.04252
1.06307
1.1114
1.14873
1.16082
1.15565
1.1392
1.31506
1.251
1.14982
1.07842
1.08927
1.12424
1.15487
1.16299
1.15896
1.14711
1.33225
1.28109
1.20071
1.12606
1.1272
1.14713
1.16326
1.1703
1.16325
1.15304
1.33395
1.28856
1.23967
1.17642
1.17053
1.18897
1.18824
1.1917
1.18229
1.1692
1.3312
1.28813
1.26739
1.23872
1.22138
1.23834
1.23564
1.22578
1.22014
1.20613
1.33038
1.293
1.28744
1.30074
1.2964
1.2981
1.29189
1.26943
1.26386
1.2521
1.33242
1.29854
1.30398
1.34491
1.37314
1.37921
1.36068
1.33793
1.31524
1.29877
1.33501
1.30144
1.31352
1.36755
1.41566
1.4313
1.42048
1.39721
1.37265
1.33583
1.33712
1.30122
1.31062
1.3656
1.42157
1.4518
1.44875
1.43645
1.40731
1.35548
1.33854
1.29925
1.30463
1.35608
1.41461
1.45662
1.46137
1.45539
1.41626
1.36676
1.33847
1.29946
1.30451
1.35596
1.41351
1.45857
1.46994
1.44492
1.42126
1.36764
1.33699
1.30145
1.31123
1.36552
1.41647
1.44923
1.45539
1.43274
1.40628
1.36254
1.33491
1.30197
1.3143
1.36613
1.41256
1.42723
1.41884
1.3972
1.37531
1.33702
1.33278
1.29949
1.3056
1.345
1.36728
1.37021
1.3569
1.33833
1.32865
1.29438
1.33096
1.29449
1.28995
1.30266
1.29052
1.28894
1.28455
1.28489
1.26687
1.24572
1.33187
1.28972
1.27097
1.24223
1.21623
1.22864
1.23926
1.23174
1.21249
1.20261
1.33455
1.28986
1.24362
1.18014
1.1645
1.1812
1.19556
1.18844
1.18428
1.17708
1.33224
1.28224
1.205
1.12794
1.12165
1.1448
1.16596
1.17151
1.17065
1.15437
1.3147
1.25217
1.15393
1.07927
1.0866
1.12374
1.1551
1.1672
1.15913
1.13913
1.26561
1.1937
1.09748
1.04331
1.06064
1.11025
1.14977
1.16189
1.1513
1.13358
1.21531
1.12169
1.05283
1.01772
1.04056
1.10001
1.1467
1.15724
1.1488
1.13281
1.1822
1.07817
1.02818
1.00034
1.02465
1.09025
1.14295
1.1541
1.14868
1.13087
1.18014
1.06413
1.01668
0.991967
1.01406
1.08025
1.14058
1.1553
1.14953
1.1292
1.18495
1.06225
1.01309
0.989617
1.00863
1.07194
1.13963
1.15767
1.15082
1.12825
1.19805
1.06843
1.01335
0.991951
1.00589
1.06411
1.13805
1.15937
1.15239
1.12857
1.21418
1.08318
1.01987
0.995487
1.00527
1.05501
1.13313
1.159
1.15398
1.13016
1.2301
1.10299
1.03355
0.999269
1.00606
1.04486
1.12341
1.15811
1.15537
1.13118
1.24463
1.12295
1.05113
1.00769
1.00803
1.03576
1.11078
1.1576
1.15598
1.13142
1.25803
1.14203
1.06723
1.02123
1.01065
1.02921
1.09794
1.15498
1.15512
1.13137
1.2702
1.16003
1.0815
1.0334
1.01467
1.02464
1.08491
1.14804
1.15324
1.13115
1.28061
1.17662
1.09643
1.0423
1.01801
1.02033
1.07091
1.13778
1.15029
1.13022
1.28913
1.19068
1.1118
1.05239
1.02021
1.01777
1.05705
1.12668
1.14718
1.12832
1.29567
1.20236
1.12491
1.06519
1.02305
1.0158
1.04498
1.11613
1.14338
1.12579
1.30064
1.21222
1.13563
1.0772
1.02889
1.01534
1.03489
1.10543
1.13924
1.12289
1.30452
1.22078
1.1459
1.08674
1.03718
1.01573
1.02687
1.0938
1.13493
1.11973
1.30795
1.22839
1.15607
1.09589
1.04454
1.01834
1.02098
1.08125
1.13043
1.11667
1.31127
1.23556
1.16565
1.10571
1.05161
1.02116
1.01678
1.06882
1.12559
1.1136
1.31458
1.24255
1.17449
1.11528
1.06035
1.02319
1.01456
1.05676
1.11995
1.11082
1.31784
1.24921
1.18287
1.12398
1.06975
1.02608
1.01406
1.04545
1.1128
1.10834
1.32098
1.2554
1.19083
1.13237
1.07846
1.0306
1.01436
1.03522
1.10417
1.10635
1.60062
1.57919
1.5642
1.54843
1.53176
1.51456
1.49555
1.47367
1.44133
1.41843
1.56742
1.54554
1.53479
1.52214
1.50883
1.49391
1.47639
1.45423
1.4212
1.37933
1.55146
1.53416
1.52303
1.50967
1.49688
1.48279
1.46589
1.44374
1.41102
1.36569
1.53337
1.51974
1.50955
1.49649
1.48421
1.46997
1.45303
1.43076
1.39895
1.35297
1.5167
1.50573
1.49752
1.48574
1.47421
1.46011
1.44348
1.42144
1.39087
1.3462
1.49973
1.49131
1.4852
1.47555
1.46578
1.45269
1.43693
1.4153
1.38607
1.34377
1.48668
1.48094
1.4766
1.46862
1.4601
1.44779
1.4329
1.41187
1.38416
1.34443
1.48196
1.47651
1.47217
1.46474
1.45675
1.44485
1.43063
1.4102
1.38393
1.34679
1.47886
1.47437
1.47017
1.46294
1.45496
1.44314
1.42931
1.40945
1.38446
1.35007
1.47569
1.47187
1.46772
1.46063
1.45273
1.44116
1.42781
1.40865
1.38499
1.35311
1.47183
1.46799
1.46376
1.45689
1.4492
1.43809
1.42534
1.40711
1.38489
1.35525
1.4672
1.4628
1.45844
1.4518
1.44437
1.4338
1.42171
1.40458
1.38381
1.35633
1.46246
1.45745
1.45291
1.44638
1.4391
1.429
1.4175
1.40143
1.38198
1.35665
1.45797
1.45249
1.44776
1.44128
1.43409
1.4244
1.41338
1.39823
1.38007
1.3567
1.45381
1.44801
1.44318
1.43676
1.42969
1.42036
1.40976
1.39547
1.37838
1.35674
1.44979
1.44386
1.43905
1.43275
1.42588
1.41692
1.40675
1.39323
1.37713
1.35698
1.44577
1.43995
1.43529
1.4292
1.42258
1.41404
1.40431
1.39155
1.37636
1.35753
1.4416
1.43623
1.43188
1.42606
1.41973
1.41159
1.40232
1.39031
1.37598
1.35835
1.43734
1.43272
1.42873
1.42326
1.41727
1.40956
1.40074
1.38943
1.37586
1.35928
1.43371
1.42969
1.42593
1.42078
1.4151
1.4078
1.3994
1.38875
1.37592
1.36029
1.00126
1.004
1.00714
1.01075
1.01502
1.02034
1.02515
1.09307
1.4226
1.50844
1.00126
1.004
1.00714
1.01075
1.01502
1.02034
1.02515
1.09306
1.42255
1.5056
1.00126
1.004
1.00714
1.01075
1.01501
1.02035
1.02515
1.09308
1.42337
1.50082
1.00126
1.004
1.00714
1.01075
1.01501
1.02035
1.02516
1.09306
1.42491
1.49582
1.00126
1.004
1.00714
1.01075
1.01501
1.02035
1.02516
1.09283
1.42646
1.49217
1.00126
1.004
1.00714
1.01075
1.015
1.02036
1.02516
1.09229
1.42724
1.49021
1.00126
1.004
1.00714
1.01075
1.015
1.02036
1.02516
1.09144
1.42696
1.48908
1.00126
1.004
1.00714
1.01075
1.015
1.02037
1.02516
1.09031
1.4253
1.48706
1.00126
1.004
1.00714
1.01075
1.01499
1.02037
1.02516
1.08886
1.4222
1.48366
1.00126
1.004
1.00714
1.01075
1.01499
1.02038
1.02515
1.08711
1.41833
1.47882
1.00126
1.004
1.00714
1.01076
1.01499
1.02038
1.02515
1.08502
1.41433
1.4734
1.00126
1.004
1.00714
1.01076
1.01498
1.02038
1.02514
1.08255
1.41044
1.46811
1.00126
1.004
1.00714
1.01076
1.01498
1.02038
1.02514
1.07975
1.40659
1.46339
1.00126
1.004
1.00714
1.01076
1.01498
1.02038
1.02515
1.07662
1.40278
1.45927
1.00126
1.004
1.00714
1.01076
1.01498
1.02037
1.02517
1.073
1.39912
1.45576
1.00126
1.004
1.00714
1.01076
1.01498
1.02037
1.02519
1.0692
1.39558
1.45276
1.00126
1.004
1.00714
1.01076
1.01498
1.02036
1.02522
1.0651
1.39217
1.45028
1.00126
1.004
1.00713
1.01076
1.01498
1.02036
1.02525
1.06082
1.3889
1.44826
1.00126
1.004
1.00713
1.01076
1.01498
1.02035
1.02529
1.05646
1.38565
1.44664
1.00126
1.004
1.00713
1.01076
1.01498
1.02034
1.02533
1.05218
1.38229
1.44528
1.00126
1.004
1.00713
1.01076
1.01498
1.02034
1.02533
1.05218
1.38229
1.44528
1.00126
1.004
1.00713
1.01076
1.01498
1.02035
1.02529
1.05646
1.38565
1.44664
1.00126
1.004
1.00713
1.01076
1.01498
1.02036
1.02525
1.06082
1.3889
1.44826
1.00126
1.004
1.00714
1.01076
1.01498
1.02036
1.02522
1.0651
1.39217
1.45028
1.00126
1.004
1.00714
1.01076
1.01498
1.02037
1.02519
1.0692
1.39558
1.45276
1.00126
1.004
1.00714
1.01076
1.01498
1.02037
1.02517
1.073
1.39912
1.45576
1.00126
1.004
1.00714
1.01076
1.01498
1.02038
1.02515
1.07662
1.40278
1.45927
1.00126
1.004
1.00714
1.01076
1.01498
1.02038
1.02514
1.07975
1.40659
1.4634
1.00126
1.004
1.00714
1.01076
1.01498
1.02038
1.02514
1.08255
1.41044
1.46811
1.00126
1.004
1.00714
1.01076
1.01499
1.02038
1.02515
1.08501
1.41433
1.4734
1.00126
1.004
1.00714
1.01075
1.01499
1.02038
1.02515
1.08711
1.41833
1.47882
1.00126
1.004
1.00714
1.01075
1.01499
1.02037
1.02516
1.08886
1.4222
1.48366
1.00126
1.004
1.00714
1.01075
1.015
1.02037
1.02516
1.09031
1.4253
1.48707
1.00126
1.004
1.00714
1.01075
1.015
1.02036
1.02516
1.09144
1.42696
1.48908
1.00126
1.004
1.00714
1.01075
1.015
1.02036
1.02516
1.09229
1.42724
1.49021
1.00126
1.004
1.00714
1.01075
1.01501
1.02035
1.02516
1.09283
1.42646
1.49217
1.00126
1.004
1.00714
1.01075
1.01501
1.02035
1.02516
1.09306
1.42491
1.49583
1.00126
1.004
1.00714
1.01075
1.01501
1.02035
1.02515
1.09308
1.42337
1.50082
1.00126
1.004
1.00714
1.01075
1.01502
1.02034
1.02515
1.09306
1.42255
1.5056
1.00126
1.004
1.00714
1.01075
1.01502
1.02034
1.02515
1.09308
1.4226
1.50844
1.43372
1.42969
1.42593
1.42078
1.4151
1.4078
1.3994
1.38876
1.37592
1.36028
1.43734
1.43272
1.42874
1.42326
1.41727
1.40957
1.40074
1.38943
1.37586
1.35927
1.4416
1.43624
1.43188
1.42606
1.41973
1.41159
1.40232
1.3903
1.37597
1.35834
1.44577
1.43995
1.43529
1.4292
1.42259
1.41404
1.40431
1.39155
1.37635
1.35751
1.44979
1.44386
1.43905
1.43276
1.42588
1.41692
1.40675
1.39323
1.37712
1.35697
1.45381
1.44801
1.44318
1.43676
1.42969
1.42035
1.40976
1.39546
1.37837
1.35672
1.45798
1.45249
1.44776
1.44128
1.43409
1.42439
1.41337
1.39822
1.38005
1.35668
1.46246
1.45746
1.45291
1.44638
1.4391
1.429
1.4175
1.40142
1.38196
1.35663
1.4672
1.4628
1.45844
1.4518
1.44437
1.4338
1.4217
1.40457
1.38378
1.35631
1.47183
1.46799
1.46376
1.45689
1.4492
1.43808
1.42533
1.40709
1.38486
1.35523
1.47569
1.47187
1.46772
1.46063
1.45273
1.44116
1.4278
1.40864
1.38497
1.35308
1.47886
1.47437
1.47017
1.46294
1.45496
1.44313
1.4293
1.40943
1.38443
1.35004
1.48196
1.47651
1.47216
1.46474
1.45675
1.44484
1.43062
1.41019
1.38391
1.34675
1.48668
1.48094
1.4766
1.46862
1.4601
1.44778
1.43289
1.41185
1.38414
1.34441
1.49973
1.49131
1.4852
1.47555
1.46578
1.45268
1.43692
1.41529
1.38604
1.34377
1.5167
1.50573
1.49752
1.48574
1.47421
1.4601
1.44347
1.42142
1.39084
1.34622
1.53337
1.51974
1.50955
1.49649
1.48421
1.46996
1.45302
1.43075
1.39893
1.35299
1.55146
1.53416
1.52303
1.50967
1.49688
1.48279
1.46589
1.44373
1.411
1.36571
1.56743
1.54554
1.53479
1.52214
1.50882
1.49391
1.47639
1.45422
1.42119
1.37934
1.60062
1.57919
1.56421
1.54843
1.53176
1.51456
1.49555
1.47367
1.44132
1.41841
1.32096
1.25537
1.1908
1.13239
1.07861
1.03058
1.01427
1.03478
1.10385
1.10646
1.31783
1.2492
1.18284
1.124
1.06986
1.02607
1.01399
1.04466
1.11225
1.10838
1.31457
1.24255
1.17448
1.11529
1.06046
1.02328
1.01442
1.05598
1.1195
1.11074
1.31125
1.23557
1.16564
1.10573
1.05173
1.02131
1.01652
1.06866
1.12565
1.11348
1.30792
1.22838
1.15606
1.09592
1.04463
1.01842
1.02076
1.08107
1.13078
1.11669
1.30449
1.22076
1.14591
1.08675
1.03719
1.01579
1.02656
1.09283
1.13515
1.11996
1.30062
1.2122
1.13565
1.07708
1.0289
1.01545
1.0345
1.10389
1.13924
1.12322
1.29568
1.20239
1.12489
1.06496
1.02313
1.01612
1.04484
1.11525
1.14314
1.12562
1.28916
1.19076
1.1117
1.05212
1.02043
1.01812
1.05725
1.12683
1.14709
1.12803
1.28064
1.17671
1.0963
1.04205
1.01834
1.0207
1.07066
1.13783
1.15128
1.13024
1.27018
1.16015
1.08131
1.03296
1.01511
1.02503
1.08385
1.14687
1.15365
1.13178
1.25797
1.1422
1.06697
1.02068
1.01128
1.02956
1.09718
1.15316
1.15452
1.13195
1.24462
1.12317
1.05054
1.00734
1.00853
1.03657
1.11111
1.15713
1.15489
1.13093
1.23021
1.10313
1.03274
0.999328
1.00662
1.04621
1.12368
1.15959
1.15546
1.13025
1.21448
1.08308
1.0189
0.995775
1.00626
1.05616
1.13245
1.15981
1.15521
1.13034
1.19846
1.06815
1.01216
0.991993
1.00728
1.06464
1.13695
1.15834
1.15336
1.13019
1.18535
1.0617
1.01173
0.989397
1.01036
1.07199
1.13852
1.15598
1.15007
1.12931
1.18054
1.06335
1.0149
0.991951
1.01643
1.08138
1.13952
1.15469
1.14812
1.12768
1.18222
1.07738
1.02589
1.00037
1.02746
1.09219
1.14149
1.1567
1.14851
1.12813
1.21537
1.12053
1.04983
1.01728
1.0433
1.10186
1.14515
1.15869
1.15213
1.13219
1.36803
1.34081
1.30535
1.26641
1.22191
1.17248
1.11923
1.06749
1.00071
0.925346
1.3678
1.34049
1.30484
1.26576
1.22116
1.17172
1.11858
1.06653
0.999827
0.926023
1.36743
1.3398
1.30414
1.26472
1.21993
1.17049
1.11748
1.06491
0.998398
0.927159
1.36682
1.3387
1.30315
1.26314
1.21815
1.16873
1.11593
1.06263
0.996714
0.92899
1.36604
1.33742
1.30172
1.26114
1.21587
1.16645
1.11387
1.05961
0.994724
0.931667
1.36506
1.33581
1.29982
1.25866
1.21303
1.16361
1.11123
1.05581
0.992699
0.935239
1.36389
1.33389
1.29741
1.25564
1.20962
1.16018
1.10797
1.05123
0.990929
0.939878
1.3625
1.33163
1.29446
1.25202
1.20555
1.15608
1.10391
1.04593
0.989586
0.946014
1.36086
1.32899
1.29096
1.24778
1.2008
1.15133
1.09904
1.03999
0.98803
0.954327
1.35898
1.32596
1.28689
1.24288
1.19538
1.14581
1.09317
1.03393
0.985646
0.96592
1.35687
1.32257
1.28232
1.23728
1.18919
1.13958
1.08633
1.02756
0.982775
0.981169
1.35459
1.31881
1.27715
1.23102
1.18231
1.13248
1.07854
1.02121
0.982707
0.996763
1.35215
1.31465
1.27142
1.22399
1.17462
1.12451
1.06971
1.01577
0.983786
1.01371
1.34953
1.31001
1.26492
1.2162
1.16605
1.11547
1.06023
1.01176
0.987429
1.03172
1.34668
1.30477
1.25761
1.20736
1.15663
1.10524
1.05014
1.00966
0.994741
1.04859
1.3435
1.29879
1.24926
1.1975
1.14603
1.09378
1.04063
1.00799
1.00619
1.06338
1.33988
1.2919
1.23982
1.18644
1.13441
1.08088
1.03194
1.00682
1.02207
1.07597
1.33571
1.28392
1.22909
1.17413
1.12142
1.06717
1.02563
1.00733
1.0434
1.08624
1.33092
1.27468
1.2167
1.16044
1.10699
1.05282
1.02016
1.01236
1.06639
1.09527
1.32539
1.26396
1.20243
1.14491
1.09129
1.03945
1.01592
1.02309
1.08835
1.10275
1.3254
1.26399
1.20246
1.1449
1.09116
1.03943
1.01595
1.02333
1.08852
1.10268
1.33093
1.2747
1.21672
1.16044
1.10693
1.05269
1.02018
1.01248
1.06663
1.09527
1.33572
1.28395
1.22912
1.17415
1.12137
1.06712
1.02563
1.00732
1.04362
1.08631
1.33989
1.29191
1.23985
1.18647
1.1344
1.08081
1.03189
1.0068
1.02214
1.07609
1.3435
1.2988
1.24928
1.19753
1.14604
1.09377
1.0406
1.00796
1.00612
1.06351
1.34668
1.30477
1.25762
1.20738
1.15664
1.10524
1.05013
1.00962
0.994642
1.04863
1.34953
1.31001
1.26493
1.21621
1.16607
1.11549
1.06025
1.01172
0.987343
1.03169
1.35215
1.31465
1.27142
1.224
1.17463
1.12453
1.06974
1.01576
0.983747
1.01361
1.35459
1.31881
1.27715
1.23103
1.18233
1.13249
1.07857
1.02123
0.982681
0.996635
1.35687
1.32257
1.28231
1.23729
1.18919
1.13959
1.08635
1.02758
0.982759
0.981022
1.35897
1.32596
1.28689
1.24287
1.19538
1.14581
1.09319
1.03397
0.985637
0.965803
1.36086
1.32899
1.29095
1.24778
1.2008
1.15133
1.09905
1.04002
0.988025
0.954251
1.3625
1.33163
1.29446
1.25202
1.20555
1.15609
1.10392
1.04595
0.989588
0.945972
1.36389
1.33389
1.29741
1.25564
1.20961
1.16018
1.10797
1.05124
0.990937
0.939868
1.36506
1.33581
1.29981
1.25865
1.21303
1.1636
1.11123
1.05581
0.992704
0.935251
1.36604
1.33742
1.30172
1.26114
1.21586
1.16644
1.11387
1.05961
0.99472
0.931686
1.36682
1.33871
1.30315
1.26314
1.21815
1.16872
1.11593
1.06262
0.996704
0.929008
1.36743
1.3398
1.30415
1.26472
1.21993
1.17049
1.11748
1.0649
0.998381
0.927169
1.3678
1.34049
1.30484
1.26576
1.22115
1.17172
1.11858
1.06652
0.999808
0.926023
1.36804
1.34081
1.30536
1.26642
1.22191
1.17248
1.11923
1.06748
1.00069
0.925339
1.43017
1.42654
1.42296
1.41815
1.41276
1.40591
1.39799
1.38813
1.37618
1.36183
1.42677
1.42329
1.4199
1.41543
1.41038
1.40403
1.39669
1.38766
1.37674
1.36392
1.42408
1.42064
1.41744
1.41324
1.40849
1.40261
1.39576
1.38744
1.37746
1.36583
1.42198
1.41854
1.41549
1.4115
1.40701
1.40153
1.39508
1.38745
1.3783
1.36763
1.42039
1.41695
1.41402
1.41021
1.40592
1.40078
1.39471
1.38761
1.37916
1.36927
1.41935
1.41591
1.41307
1.40941
1.4053
1.40044
1.3947
1.38802
1.38009
1.3708
1.41884
1.41541
1.41267
1.40912
1.40515
1.40047
1.39497
1.38864
1.38111
1.37229
1.41873
1.41532
1.41265
1.40919
1.40531
1.40077
1.39549
1.38941
1.3822
1.37377
1.41888
1.4155
1.41285
1.40948
1.40568
1.40128
1.39617
1.39027
1.38332
1.37523
1.41923
1.41586
1.41323
1.40992
1.40619
1.40189
1.3969
1.39115
1.38444
1.37666
1.41964
1.41628
1.41366
1.41039
1.40672
1.4025
1.39761
1.39201
1.3855
1.378
1.41999
1.41665
1.41404
1.41081
1.40719
1.40304
1.39825
1.39278
1.38647
1.37921
1.42023
1.41691
1.41431
1.41111
1.40754
1.40345
1.39877
1.39343
1.3873
1.38026
1.42034
1.41706
1.41448
1.4113
1.40777
1.40375
1.39917
1.39395
1.38799
1.38116
1.42029
1.4171
1.41456
1.41142
1.40793
1.40397
1.39947
1.39436
1.38856
1.38192
1.42022
1.4171
1.41458
1.41147
1.40803
1.40411
1.39969
1.39468
1.38902
1.38255
1.42016
1.41708
1.41458
1.41151
1.40811
1.40424
1.39989
1.39496
1.38941
1.38306
1.42013
1.41707
1.41458
1.41154
1.40818
1.40436
1.40007
1.3952
1.38974
1.38349
1.4201
1.41705
1.41457
1.41154
1.40822
1.40443
1.40019
1.39537
1.38996
1.38376
1.42008
1.41705
1.41459
1.41157
1.40826
1.40449
1.40028
1.39549
1.39011
1.38394
1.00126
1.004
1.00713
1.01076
1.01497
1.02033
1.0254
1.04723
1.37774
1.44381
1.00126
1.004
1.00713
1.01077
1.01497
1.02032
1.02549
1.04216
1.37185
1.44229
1.00126
1.004
1.00713
1.01077
1.01497
1.0203
1.0256
1.03883
1.36564
1.44101
1.00126
1.004
1.00713
1.01077
1.01498
1.02028
1.02572
1.0365
1.35942
1.43997
1.00126
1.004
1.00713
1.01077
1.01498
1.02027
1.02584
1.03497
1.35325
1.43918
1.00126
1.004
1.00713
1.01077
1.01498
1.02026
1.02595
1.03396
1.34706
1.4387
1.00126
1.004
1.00713
1.01077
1.01498
1.02025
1.02605
1.03329
1.34082
1.43854
1.00126
1.004
1.00713
1.01077
1.01498
1.02025
1.02615
1.03285
1.33457
1.43859
1.00126
1.004
1.00713
1.01077
1.01498
1.02025
1.02624
1.03257
1.32839
1.43877
1.00126
1.004
1.00713
1.01077
1.01498
1.02025
1.02631
1.0324
1.32238
1.43901
1.00126
1.004
1.00713
1.01077
1.01498
1.02024
1.02639
1.03231
1.31664
1.43921
1.00126
1.004
1.00713
1.01077
1.01498
1.02023
1.02647
1.03227
1.31131
1.4393
1.00126
1.004
1.00713
1.01077
1.01499
1.0202
1.02655
1.03227
1.30653
1.43926
1.00126
1.004
1.00713
1.01077
1.015
1.02016
1.02663
1.03228
1.30252
1.43901
1.00126
1.004
1.00713
1.01077
1.015
1.02012
1.02671
1.03231
1.29939
1.43848
1.00126
1.004
1.00713
1.01077
1.01501
1.02009
1.02679
1.03233
1.29688
1.4379
1.00126
1.004
1.00713
1.01077
1.01502
1.02005
1.02686
1.03235
1.29485
1.43741
1.00126
1.004
1.00713
1.01077
1.01502
1.02003
1.02693
1.03237
1.2933
1.43705
1.00126
1.004
1.00713
1.01077
1.01503
1.02001
1.02698
1.03238
1.29227
1.4368
1.00126
1.004
1.00713
1.01077
1.01503
1.02
1.02704
1.03238
1.29177
1.43668
1.00126
1.004
1.00713
1.01077
1.01503
1.02
1.02704
1.03238
1.29177
1.43668
1.00126
1.004
1.00713
1.01077
1.01503
1.02001
1.02698
1.03238
1.29227
1.4368
1.00126
1.004
1.00713
1.01077
1.01502
1.02003
1.02693
1.03237
1.2933
1.43705
1.00126
1.004
1.00713
1.01077
1.01502
1.02005
1.02686
1.03235
1.29485
1.43741
1.00126
1.004
1.00713
1.01077
1.01501
1.02009
1.02679
1.03233
1.29688
1.4379
1.00126
1.004
1.00713
1.01077
1.015
1.02012
1.02671
1.03231
1.29939
1.43848
1.00126
1.004
1.00713
1.01077
1.015
1.02016
1.02663
1.03228
1.30252
1.43901
1.00126
1.004
1.00713
1.01077
1.01499
1.0202
1.02655
1.03227
1.30653
1.43926
1.00126
1.004
1.00713
1.01077
1.01498
1.02023
1.02647
1.03227
1.31131
1.4393
1.00126
1.004
1.00713
1.01077
1.01498
1.02024
1.02639
1.03231
1.31664
1.43921
1.00126
1.004
1.00713
1.01077
1.01498
1.02025
1.02631
1.0324
1.32238
1.43901
1.00126
1.004
1.00713
1.01077
1.01498
1.02025
1.02624
1.03257
1.32839
1.43877
1.00126
1.004
1.00713
1.01077
1.01498
1.02025
1.02615
1.03285
1.33457
1.43859
1.00126
1.004
1.00713
1.01077
1.01498
1.02025
1.02605
1.03329
1.34082
1.43854
1.00126
1.004
1.00713
1.01077
1.01498
1.02026
1.02595
1.03396
1.34706
1.4387
1.00126
1.004
1.00713
1.01077
1.01498
1.02027
1.02584
1.03497
1.35325
1.43918
1.00126
1.004
1.00713
1.01077
1.01498
1.02028
1.02572
1.0365
1.35942
1.43997
1.00126
1.004
1.00713
1.01077
1.01497
1.0203
1.0256
1.03883
1.36564
1.44101
1.00126
1.004
1.00713
1.01077
1.01497
1.02032
1.02549
1.04216
1.37185
1.44229
1.00126
1.004
1.00713
1.01076
1.01497
1.02033
1.0254
1.04723
1.37774
1.44381
1.42008
1.41705
1.41459
1.41157
1.40826
1.40449
1.40028
1.39549
1.39011
1.38394
1.4201
1.41705
1.41457
1.41155
1.40822
1.40443
1.40019
1.39537
1.38996
1.38376
1.42013
1.41707
1.41458
1.41154
1.40818
1.40436
1.40007
1.3952
1.38974
1.38349
1.42016
1.41708
1.41458
1.41151
1.40812
1.40424
1.39989
1.39496
1.38941
1.38306
1.42022
1.4171
1.41458
1.41147
1.40803
1.40411
1.39969
1.39468
1.38902
1.38255
1.42029
1.4171
1.41456
1.41142
1.40793
1.40396
1.39947
1.39436
1.38856
1.38192
1.42034
1.41706
1.41448
1.4113
1.40777
1.40375
1.39917
1.39395
1.38799
1.38116
1.42023
1.41691
1.41431
1.41111
1.40754
1.40345
1.39877
1.39343
1.3873
1.38026
1.41999
1.41665
1.41404
1.41081
1.40719
1.40304
1.39825
1.39278
1.38647
1.37921
1.41964
1.41628
1.41366
1.41039
1.40672
1.4025
1.39761
1.39201
1.3855
1.378
1.41923
1.41586
1.41323
1.40992
1.40618
1.40189
1.3969
1.39115
1.38444
1.37666
1.41888
1.4155
1.41285
1.40948
1.40568
1.40128
1.39617
1.39027
1.38332
1.37524
1.41873
1.41532
1.41265
1.40919
1.40531
1.40077
1.39549
1.38941
1.3822
1.37378
1.41884
1.41541
1.41267
1.40912
1.40515
1.40047
1.39497
1.38864
1.38112
1.3723
1.41935
1.41591
1.41307
1.40941
1.4053
1.40044
1.3947
1.38803
1.3801
1.37081
1.42039
1.41695
1.41402
1.41021
1.40593
1.40078
1.39472
1.38761
1.37916
1.36927
1.42198
1.41854
1.41549
1.41151
1.40702
1.40153
1.39508
1.38746
1.3783
1.36763
1.42409
1.42064
1.41744
1.41324
1.4085
1.40261
1.39576
1.38745
1.37746
1.36583
1.42677
1.42329
1.4199
1.41543
1.41038
1.40403
1.3967
1.38766
1.37674
1.36392
1.43018
1.42655
1.42297
1.41816
1.41276
1.40591
1.39799
1.38813
1.37617
1.36183
)
;

boundaryField
{
    inlet
    {
        type            fixedValue;
        value           uniform 1;
    }
    outlet
    {
        type            inletOutlet;
        inletValue      uniform 1;
        value           nonuniform List<scalar> 
100
(
1.10262
1.09519
1.08623
1.076
1.06342
1.04855
1.0316
1.01352
0.996545
0.980937
0.965709
0.954151
0.945871
0.93977
0.935155
0.931592
0.928916
0.927077
0.925934
0.92525
1.13297
1.13074
1.12892
1.12806
1.12841
1.13015
1.13103
1.13122
1.13122
1.13106
1.13012
1.12819
1.12569
1.12286
1.11969
1.11662
1.11355
1.11076
1.10828
1.10631
1.13897
1.14719
1.15407
1.16891
1.20513
1.25217
1.29907
1.33565
1.35584
1.36721
1.3671
1.36168
1.33692
1.29403
1.24553
1.20344
1.17704
1.15342
1.13889
1.134
1.10642
1.10834
1.11069
1.11341
1.11662
1.11992
1.12318
1.12556
1.12793
1.13007
1.13166
1.13189
1.13086
1.13005
1.13004
1.13002
1.12942
1.12778
1.12794
1.13159
0.925257
0.925934
0.927068
0.928897
0.931572
0.935142
0.939778
0.945912
0.954225
0.965825
0.981083
0.996674
1.01362
1.03164
1.04851
1.0633
1.07589
1.08615
1.09519
1.10269
)
;
    }
    triangle
    {
        type            zeroGradient;
    }
    top
    {
        type            symmetryPlane;
    }
    bottom
    {
        type            symmetryPlane;
    }
    defaultFaces
    {
        type            empty;
    }
}


// ************************************************************************* //
