/*--------------------------------*- C++ -*----------------------------------*\
  =========                 |
  \\      /  F ield         | OpenFOAM: The Open Source CFD Toolbox
   \\    /   O peration     | Website:  https://openfoam.org
    \\  /    A nd           | Version:  7
     \\/     M anipulation  |
\*---------------------------------------------------------------------------*/
FoamFile
{
    version     2.0;
    format      ascii;
    class       volScalarField;
    location    "0.4";
    object      p;
}
// * * * * * * * * * * * * * * * * * * * * * * * * * * * * * * * * * * * * * //

dimensions      [1 -1 -2 0 0 0 0];

internalField   nonuniform List<scalar> 
325
(
11.0815
10.8117
2.74291
5.113
2.74864
2.82759
3.28424
2.81499
3.29758
2.80385
3.31332
2.79052
3.33154
2.77765
3.35425
2.76356
3.38259
2.75076
3.41495
2.73896
3.4466
2.72653
3.48115
2.71453
3.53575
2.70342
3.61924
2.69467
3.73962
2.69204
3.88928
2.70361
4.08154
2.73065
4.28552
2.76823
4.51273
2.78003
4.66548
2.76002
4.86953
2.74864
5.01405
2.74291
5.113
3.43942
3.42677
3.41149
3.4025
3.40098
3.40318
3.46232
3.44894
3.43379
3.42624
3.42742
3.42492
3.49016
3.47602
3.46064
3.4549
3.45425
3.45098
3.52313
3.50789
3.49255
3.4876
3.48155
3.50355
3.56259
3.546
3.53179
3.52281
3.51945
3.81173
3.61001
3.59304
3.57622
3.56111
3.63207
5.14787
3.66953
3.65214
3.62641
3.62856
4.40521
7.19989
3.74905
3.72514
3.69828
3.95819
6.5075
8.22799
3.86354
3.83762
3.8932
5.55053
8.29532
8.48141
3.95282
3.97334
4.81437
7.85055
8.73389
8.58542
4.10496
4.41878
7.09519
8.8982
8.88908
8.74375
4.48869
5.99507
8.73071
9.09998
8.97855
8.85738
5.41121
7.9456
9.24457
9.18588
9.07362
8.96011
6.89034
8.9133
9.30234
9.30346
9.1838
9.064
8.19394
9.24331
9.35226
9.41035
9.31107
9.18674
8.93748
9.58566
9.52885
9.50064
9.39763
9.29422
9.55025
9.90257
9.69554
9.57043
9.44177
9.32265
10.0528
10.1593
9.94569
9.79824
9.64031
9.48875
10.3136
10.1476
9.92617
9.76597
9.59824
9.43581
11.0815
10.8117
10.4936
10.2182
9.96938
9.73638
2.88479
3.23003
2.88482
3.22997
2.88487
3.22983
2.88493
3.22968
2.88493
3.22956
2.88487
3.22949
2.88481
3.22942
2.88485
3.22918
2.88548
3.22809
2.88615
3.22658
2.88673
3.22447
2.88675
3.22181
2.88631
3.2191
2.88366
3.21624
2.87493
3.21546
2.86246
3.22223
2.85205
3.23291
2.84444
3.24325
2.83882
3.25558
2.83363
3.2702
3.31306
3.31474
3.3159
3.31675
3.31622
3.3156
3.31271
3.31455
3.31586
3.31677
3.31627
3.31563
3.31201
3.31422
3.31585
3.31688
3.31638
3.31569
3.31151
3.31395
3.31577
3.31686
3.31644
3.31575
3.31183
3.31398
3.3156
3.31662
3.31614
3.31539
3.3135
3.31454
3.31521
3.31593
3.31536
3.31471
3.31533
3.31533
3.31478
3.31496
3.31425
3.31358
3.31551
3.31525
3.31428
3.31395
3.31288
3.31176
3.31204
3.31326
3.31329
3.31284
3.31114
3.30905
3.30699
3.3106
3.31248
3.31221
3.30969
3.30601
3.30398
3.30806
3.30961
3.30867
3.30566
3.30188
3.30142
3.30544
3.30651
3.3051
3.30155
3.29793
3.29934
3.30337
3.30433
3.30278
3.29942
3.29681
3.29966
3.30318
3.30387
3.30222
3.29996
3.29895
3.30208
3.30385
3.30412
3.30394
3.3042
3.30499
3.3221
3.31706
3.31298
3.31252
3.31363
3.31547
3.34834
3.33907
3.32746
3.32355
3.32455
3.32653
3.37115
3.3606
3.34538
3.33725
3.33747
3.33965
3.3934
3.38209
3.36652
3.35581
3.35374
3.35641
3.41698
3.40494
3.38947
3.37926
3.37591
3.37926
)
;

boundaryField
{
    inlet
    {
        type            fixedValue;
        value           nonuniform 0();
    }
    outlet
    {
        type            zeroGradient;
    }
    triangle
    {
        type            zeroGradient;
    }
    top
    {
        type            symmetryPlane;
    }
    bottom
    {
        type            symmetryPlane;
    }
    defaultFaces
    {
        type            empty;
    }
    procBoundary1to0
    {
        type            processor;
        value           nonuniform List<scalar> 
40
(
1.57429
1.57639
1.57816
1.58093
1.5829
1.58447
1.58541
1.58614
1.5862
1.58553
1.58301
1.578
1.57199
1.56593
1.56096
1.55868
1.55927
1.55976
1.55979
1.55984
1.56308
1.56308
1.56309
1.56315
1.56322
1.56324
1.56324
1.5632
1.56311
1.56305
1.56303
1.56343
1.5652
1.56846
1.57245
1.57577
1.5772
1.57715
1.57647
1.5743
)
;
    }
    procBoundary1to2
    {
        type            processor;
        value           nonuniform List<scalar> 
40
(
3.40739
3.44229
3.6057
4.42946
6.18762
7.71513
8.22426
8.31875
8.43787
8.52052
8.61336
8.71483
8.81483
8.89907
9.00503
9.12093
9.15999
9.30653
9.25668
9.50496
3.31548
3.3155
3.31553
3.31558
3.31524
3.31468
3.31349
3.31109
3.30753
3.30343
3.29963
3.29686
3.2959
3.29841
3.30701
3.32003
3.33389
3.34772
3.36363
3.3843
)
;
    }
    procBoundary1to4
    {
        type            processor;
        value           nonuniform List<scalar> 2(1.55984 1.55979);
    }
    procBoundary1to5
    {
        type            processor;
        value           nonuniform List<scalar> 6(10.3136 10.4936 10.1476 5.01405 5.01405 2.76002);
    }
}


// ************************************************************************* //
