/*--------------------------------*- C++ -*----------------------------------*\
  =========                 |
  \\      /  F ield         | OpenFOAM: The Open Source CFD Toolbox
   \\    /   O peration     | Website:  https://openfoam.org
    \\  /    A nd           | Version:  8
     \\/     M anipulation  |
\*---------------------------------------------------------------------------*/
FoamFile
{
    version     2.0;
    format      ascii;
    class       volVectorField;
    location    "0.1";
    object      U;
}
// * * * * * * * * * * * * * * * * * * * * * * * * * * * * * * * * * * * * * //

dimensions      [0 1 -1 0 0 0 0];

internalField   nonuniform List<vector> 
2600
(
(1.35022 0.967608 0)
(1.40961 0.758938 0)
(0.972466 0.243209 0)
(1.03935 0.0558952 0)
(1.08916 0.00582157 0)
(1.09952 0.000166838 0)
(1.1 -3.32686e-06 0)
(1.1 -2.27113e-06 0)
(1.1 -5.45691e-07 0)
(1.09682 8.23636e-08 0)
(0.904954 0.972504 0)
(1.28554 0.758893 0)
(0.973537 0.252702 0)
(1.03839 0.0612418 0)
(1.08793 0.00600711 0)
(1.09946 0.000157255 0)
(1.1 -3.30974e-06 0)
(1.1 -2.20955e-06 0)
(1.1 -5.51445e-07 0)
(1.09682 7.88665e-08 0)
(0.707102 0.577416 0)
(1.17106 0.647279 0)
(0.952142 0.260374 0)
(1.02804 0.0655551 0)
(1.08652 0.00635834 0)
(1.09942 0.000158448 0)
(1.1 -3.16437e-06 0)
(1.1 -2.07657e-06 0)
(1.1 -5.44172e-07 0)
(1.09682 7.46692e-08 0)
(0.493549 0.337734 0)
(0.977868 0.602305 0)
(0.900877 0.272056 0)
(1.01216 0.0661835 0)
(1.08535 0.00629121 0)
(1.09939 0.000176543 0)
(1.1 -2.84744e-06 0)
(1.1 -1.92888e-06 0)
(1.1 -5.26858e-07 0)
(1.09682 6.83478e-08 0)
(0.367937 0.294435 0)
(0.750515 0.563665 0)
(0.830403 0.260619 0)
(0.997005 0.061321 0)
(1.0842 0.00627346 0)
(1.09935 0.000194638 0)
(1.1 -2.36293e-06 0)
(1.1 -1.72722e-06 0)
(1.1 -4.96389e-07 0)
(1.09682 6.1853e-08 0)
(0.276736 0.29071 0)
(0.560066 0.53078 0)
(0.763849 0.224805 0)
(0.985205 0.053113 0)
(1.08296 0.00596475 0)
(1.09928 0.000208966 0)
(1.1 -1.66655e-06 0)
(1.1 -1.49628e-06 0)
(1.1 -4.47554e-07 0)
(1.09682 5.19367e-08 0)
(0.187339 0.191343 0)
(0.419838 0.416664 0)
(0.715926 0.17372 0)
(0.976409 0.0416778 0)
(1.08171 0.00524482 0)
(1.0992 0.000203605 0)
(1.1 -9.92475e-07 0)
(1.1 -1.16387e-06 0)
(1.1 -3.7415e-07 0)
(1.09682 4.07169e-08 0)
(0.134807 0.0352845 0)
(0.363756 0.271879 0)
(0.71143 0.1193 0)
(0.972382 0.0294269 0)
(1.08049 0.0041625 0)
(1.09912 0.000172426 0)
(1.1 -2.39932e-07 0)
(1.1 -7.84799e-07 0)
(1.1 -2.6706e-07 0)
(1.09682 2.26e-08 0)
(0.10166 -0.0263405 0)
(0.324665 0.156967 0)
(0.69794 0.0698577 0)
(0.965668 0.0186127 0)
(1.07938 0.0027046 0)
(1.09906 0.000118903 0)
(1.1 3.00515e-07 0)
(1.1 -4.1139e-07 0)
(1.1 -1.49574e-07 0)
(1.09682 6.41973e-09 0)
(0.101251 -0.00149742 0)
(0.339587 0.0575869 0)
(0.710608 0.0234899 0)
(0.967256 0.00615046 0)
(1.0789 0.000865727 0)
(1.09901 4.00173e-05 0)
(1.1 4.81832e-08 0)
(1.1 -1.30532e-07 0)
(1.1 -4.76049e-08 0)
(1.09682 2.71756e-09 0)
(0.101251 0.00149742 0)
(0.339587 -0.0575869 0)
(0.710608 -0.0234899 0)
(0.967256 -0.00615046 0)
(1.0789 -0.000865727 0)
(1.09901 -4.00173e-05 0)
(1.1 -4.81831e-08 0)
(1.1 1.30533e-07 0)
(1.1 4.76034e-08 0)
(1.09682 -2.72096e-09 0)
(0.10166 0.0263405 0)
(0.324665 -0.156967 0)
(0.69794 -0.0698577 0)
(0.965668 -0.0186127 0)
(1.07938 -0.0027046 0)
(1.09906 -0.000118903 0)
(1.1 -3.00515e-07 0)
(1.1 4.11387e-07 0)
(1.1 1.49572e-07 0)
(1.09682 -6.41372e-09 0)
(0.134807 -0.0352845 0)
(0.363756 -0.271879 0)
(0.71143 -0.1193 0)
(0.972382 -0.0294269 0)
(1.08049 -0.0041625 0)
(1.09912 -0.000172426 0)
(1.1 2.39932e-07 0)
(1.1 7.84797e-07 0)
(1.1 2.67058e-07 0)
(1.09682 -2.25972e-08 0)
(0.187339 -0.191343 0)
(0.419838 -0.416664 0)
(0.715926 -0.17372 0)
(0.976409 -0.0416778 0)
(1.08171 -0.00524482 0)
(1.0992 -0.000203605 0)
(1.1 9.92475e-07 0)
(1.1 1.16387e-06 0)
(1.1 3.74152e-07 0)
(1.09682 -4.07194e-08 0)
(0.276736 -0.29071 0)
(0.560066 -0.53078 0)
(0.763849 -0.224805 0)
(0.985205 -0.053113 0)
(1.08296 -0.00596475 0)
(1.09928 -0.000208966 0)
(1.1 1.66655e-06 0)
(1.1 1.49628e-06 0)
(1.1 4.47558e-07 0)
(1.09682 -5.19376e-08 0)
(0.367937 -0.294435 0)
(0.750515 -0.563665 0)
(0.830403 -0.260619 0)
(0.997005 -0.061321 0)
(1.0842 -0.00627346 0)
(1.09935 -0.000194638 0)
(1.1 2.36293e-06 0)
(1.1 1.72722e-06 0)
(1.1 4.9639e-07 0)
(1.09682 -6.18547e-08 0)
(0.493549 -0.337734 0)
(0.977868 -0.602305 0)
(0.900877 -0.272056 0)
(1.01216 -0.0661835 0)
(1.08535 -0.00629121 0)
(1.09939 -0.000176543 0)
(1.1 2.84744e-06 0)
(1.1 1.92889e-06 0)
(1.1 5.2686e-07 0)
(1.09682 -6.83484e-08 0)
(0.707102 -0.577416 0)
(1.17106 -0.647279 0)
(0.952142 -0.260374 0)
(1.02804 -0.0655551 0)
(1.08652 -0.00635834 0)
(1.09942 -0.000158448 0)
(1.1 3.16437e-06 0)
(1.1 2.07657e-06 0)
(1.1 5.44171e-07 0)
(1.09682 -7.4669e-08 0)
(0.904954 -0.972504 0)
(1.28554 -0.758893 0)
(0.973537 -0.252702 0)
(1.03839 -0.0612418 0)
(1.08793 -0.00600711 0)
(1.09946 -0.000157255 0)
(1.1 3.30974e-06 0)
(1.1 2.20955e-06 0)
(1.1 5.51444e-07 0)
(1.09682 -7.88664e-08 0)
(1.35022 -0.967608 0)
(1.40961 -0.758938 0)
(0.972466 -0.243209 0)
(1.03935 -0.0558952 0)
(1.08916 -0.00582157 0)
(1.09952 -0.000166838 0)
(1.1 3.32686e-06 0)
(1.1 2.27113e-06 0)
(1.1 5.4569e-07 0)
(1.09682 -8.23635e-08 0)
(1.50197 -0.258954 0)
(1.24729 -0.568048 0)
(0.952612 -0.227313 0)
(1.03611 -0.0540494 0)
(1.09046 -0.00558445 0)
(1.09962 -0.00016184 0)
(1.1 3.57705e-06 0)
(1.1 2.34643e-06 0)
(1.1 5.24011e-07 0)
(1.09682 -8.46276e-08 0)
(1.48066 -0.0401121 0)
(1.21678 -0.437262 0)
(0.996794 -0.222129 0)
(1.04043 -0.0576184 0)
(1.09152 -0.005332 0)
(1.09968 -0.000125976 0)
(1.1 3.98984e-06 0)
(1.1 2.29724e-06 0)
(1.1 4.77827e-07 0)
(1.09682 -8.68346e-08 0)
(1.43308 0.0574117 0)
(1.23249 -0.318885 0)
(1.06161 -0.189312 0)
(1.05467 -0.0539758 0)
(1.09272 -0.00538934 0)
(1.09973 -0.000119583 0)
(1.1 4.18747e-06 0)
(1.1 2.17468e-06 0)
(1.1 4.20897e-07 0)
(1.09682 -8.55423e-08 0)
(1.36838 0.125474 0)
(1.2545 -0.248393 0)
(1.11249 -0.172084 0)
(1.07075 -0.051433 0)
(1.09424 -0.00519241 0)
(1.09977 -0.000119261 0)
(1.1 3.93756e-06 0)
(1.1 1.93684e-06 0)
(1.1 3.57462e-07 0)
(1.09682 -8.38545e-08 0)
(1.31205 0.157785 0)
(1.25062 -0.158641 0)
(1.13096 -0.129008 0)
(1.08263 -0.0439719 0)
(1.09567 -0.00471144 0)
(1.09981 -0.00011658 0)
(1.1 3.71096e-06 0)
(1.1 1.68383e-06 0)
(1.1 2.93027e-07 0)
(1.09682 -7.74683e-08 0)
(1.25275 0.187094 0)
(1.26282 -0.115203 0)
(1.13972 -0.101503 0)
(1.09355 -0.0386174 0)
(1.09709 -0.00435538 0)
(1.09985 -0.000114319 0)
(1.1 2.8852e-06 0)
(1.1 1.28251e-06 0)
(1.1 2.13531e-07 0)
(1.09682 -6.46985e-08 0)
(1.20533 0.205819 0)
(1.24426 -0.0504618 0)
(1.13682 -0.0688096 0)
(1.10064 -0.0294427 0)
(1.09838 -0.00368759 0)
(1.0999 -0.000100363 0)
(1.1 2.01066e-06 0)
(1.1 8.79473e-07 0)
(1.1 1.36727e-07 0)
(1.09682 -4.8051e-08 0)
(1.16327 0.224675 0)
(1.23891 -0.0165679 0)
(1.14294 -0.0497052 0)
(1.10575 -0.0210214 0)
(1.09957 -0.00280261 0)
(1.09995 -8.08758e-05 0)
(1.1 1.09917e-06 0)
(1.1 3.93412e-07 0)
(1.1 7.29946e-08 0)
(1.09682 -2.41362e-08 0)
(1.13048 0.240594 0)
(1.21148 0.0284051 0)
(1.14757 -0.0272826 0)
(1.10791 -0.0122023 0)
(1.10025 -0.00155534 0)
(1.09999 -5.29112e-05 0)
(1.1 -1.39221e-07 0)
(1.1 1.25176e-07 0)
(1.1 2.19931e-08 0)
(1.09682 -4.85934e-09 0)
(1.10373 0.259142 0)
(1.19404 0.0647315 0)
(1.15095 -0.00222174 0)
(1.10953 -0.00326922 0)
(1.10049 -0.000474713 0)
(1.1 -2.58091e-05 0)
(1.1 -1.93663e-06 0)
(1.1 -3.78783e-08 0)
(1.1 2.77911e-09 0)
(1.09682 -1.95194e-10 0)
(1.08148 0.287351 0)
(1.17348 0.116322 0)
(1.14922 0.0321646 0)
(1.11 0.00527963 0)
(1.10049 0.000159682 0)
(1.10001 -1.0795e-05 0)
(1.1 -2.15673e-06 0)
(1.1 -9.08785e-08 0)
(1.1 9.58515e-11 0)
(1.09682 -2.54992e-10 0)
(1.06658 0.308316 0)
(1.15336 0.167443 0)
(1.14315 0.0597906 0)
(1.10853 0.00796179 0)
(1.10037 0.000267362 0)
(1.1 -3.15518e-06 0)
(1.1 -1.42183e-06 0)
(1.1 -1.11544e-07 0)
(1.1 -1.8422e-10 0)
(1.09682 -4.14504e-10 0)
(1.06091 0.293456 0)
(1.13555 0.188366 0)
(1.13333 0.0649056 0)
(1.10567 0.00808347 0)
(1.10021 0.000245642 0)
(1.1 8.62457e-07 0)
(1.1 -4.17136e-07 0)
(1.1 -5.72987e-08 0)
(1.1 -2.12897e-10 0)
(1.09682 -3.3967e-10 0)
(1.06232 0.261346 0)
(1.11716 0.179161 0)
(1.1186 0.0617788 0)
(1.10291 0.00642771 0)
(1.10009 0.000157349 0)
(1.1 1.06744e-06 0)
(1.1 -2.76879e-08 0)
(1.1 -7.88911e-09 0)
(1.1 -1.16321e-10 0)
(1.09682 -8.38035e-11 0)
(1.08305 0.164469 0)
(1.10271 0.126976 0)
(1.10753 0.0399863 0)
(1.10103 0.00312259 0)
(1.10002 5.53194e-05 0)
(1.1 4.32424e-07 0)
(1.1 6.87069e-10 0)
(1.1 -1.67855e-10 0)
(1.1 -3.29722e-11 0)
(1.09682 -7.68598e-12 0)
(1.09711 0.0422448 0)
(1.09955 0.0383796 0)
(1.10143 0.0110178 0)
(1.10016 0.000607139 0)
(1.1 6.97288e-06 0)
(1.1 5.60806e-08 0)
(1.1 3.76941e-10 0)
(1.1 -2.12758e-14 0)
(1.1 -5.52045e-12 0)
(1.09682 -3.25183e-13 0)
(1.09989 0.00197278 0)
(1.09995 0.00226641 0)
(1.10005 0.000629888 0)
(1.10001 2.48268e-05 0)
(1.1 1.73795e-07 0)
(1.1 1.26426e-09 0)
(1.1 3.12892e-11 0)
(1.1 -1.63899e-15 0)
(1.1 -2.44457e-13 0)
(1.09682 9.23783e-14 0)
(1.1 8.11888e-06 0)
(1.1 1.26551e-05 0)
(1.1 3.57473e-06 0)
(1.1 1.00325e-07 0)
(1.1 -5.80152e-10 0)
(1.1 -9.99236e-11 0)
(1.1 -1.70975e-12 0)
(1.1 5.08751e-14 0)
(1.1 4.54385e-14 0)
(1.09682 1.06595e-13 0)
(1.1 -4.05827e-09 0)
(1.1 -1.06358e-08 0)
(1.1 -1.13905e-08 0)
(1.1 -5.906e-09 0)
(1.1 -1.09611e-09 0)
(1.1 -7.18585e-11 0)
(1.1 -1.36906e-12 0)
(1.1 9.89722e-15 0)
(1.1 -2.18954e-14 0)
(1.09682 -5.13968e-14 0)
(1.1 -5.03145e-09 0)
(1.1 -1.28383e-08 0)
(1.1 -1.15424e-08 0)
(1.1 -5.35887e-09 0)
(1.1 -7.69446e-10 0)
(1.1 -2.1257e-11 0)
(1.1 -2.98151e-13 0)
(1.1 -1.93125e-15 0)
(1.1 -1.60241e-13 0)
(1.09682 -1.03465e-13 0)
(0.41482 0.114965 0)
(0.47147 0.155393 0)
(0.541875 0.216659 0)
(0.59494 0.277258 0)
(0.637434 0.323296 0)
(0.668545 0.357899 0)
(0.694878 0.382032 0)
(0.724973 0.401587 0)
(0.772258 0.426318 0)
(0.892206 0.448767 0)
(0.478218 0.14864 0)
(0.506069 0.181924 0)
(0.551569 0.22902 0)
(0.588171 0.280148 0)
(0.626998 0.319659 0)
(0.659003 0.352236 0)
(0.687059 0.374771 0)
(0.720713 0.393176 0)
(0.774706 0.416142 0)
(0.891804 0.432918 0)
(0.575484 0.129196 0)
(0.567814 0.165756 0)
(0.597813 0.207628 0)
(0.614202 0.253558 0)
(0.641938 0.29216 0)
(0.666219 0.329478 0)
(0.692853 0.357953 0)
(0.728392 0.381554 0)
(0.788529 0.407974 0)
(0.915355 0.414712 0)
(0.657813 0.149193 0)
(0.625568 0.189457 0)
(0.648662 0.223384 0)
(0.655412 0.25857 0)
(0.672413 0.289235 0)
(0.686419 0.321459 0)
(0.707337 0.349956 0)
(0.741316 0.376935 0)
(0.80575 0.404791 0)
(0.93832 0.408339 0)
(0.734756 0.167938 0)
(0.674649 0.204426 0)
(0.694359 0.226824 0)
(0.694408 0.254834 0)
(0.702466 0.285198 0)
(0.710641 0.314845 0)
(0.72794 0.340987 0)
(0.757162 0.368022 0)
(0.821289 0.395022 0)
(0.951132 0.396379 0)
(0.853498 0.171363 0)
(0.726406 0.213888 0)
(0.722665 0.240437 0)
(0.714429 0.268595 0)
(0.722647 0.291889 0)
(0.730385 0.314611 0)
(0.74901 0.333362 0)
(0.774577 0.356803 0)
(0.83307 0.38242 0)
(0.954938 0.385302 0)
(1.00582 0.111874 0)
(0.836468 0.188145 0)
(0.75498 0.243617 0)
(0.732472 0.276326 0)
(0.736332 0.297757 0)
(0.74099 0.322308 0)
(0.762869 0.333299 0)
(0.788734 0.351481 0)
(0.843829 0.372244 0)
(0.954312 0.375763 0)
(1.08775 0.0340085 0)
(1.00899 0.0869389 0)
(0.846065 0.196737 0)
(0.773136 0.266795 0)
(0.754006 0.30005 0)
(0.749969 0.328093 0)
(0.767414 0.34172 0)
(0.794243 0.355575 0)
(0.847993 0.366333 0)
(0.949796 0.366484 0)
(1.09988 0.00569042 0)
(1.09311 0.0110723 0)
(1.02761 0.06601 0)
(0.888138 0.186021 0)
(0.803631 0.277212 0)
(0.768064 0.323251 0)
(0.778498 0.343569 0)
(0.792095 0.369228 0)
(0.844449 0.369064 0)
(0.937813 0.365186 0)
(1.10016 0.000707886 0)
(1.10003 0.000439121 0)
(1.09621 0.00406857 0)
(1.05601 0.043772 0)
(0.941113 0.160984 0)
(0.83417 0.277629 0)
(0.797823 0.335452 0)
(0.793903 0.371916 0)
(0.838671 0.380616 0)
(0.923506 0.375191 0)
(1.1 1.19803e-05 0)
(1.1 -2.60957e-08 0)
(1.09998 1.72787e-05 0)
(1.09857 0.00157953 0)
(1.07768 0.0253899 0)
(0.990897 0.125894 0)
(0.875318 0.26542 0)
(0.822468 0.349056 0)
(0.844234 0.381159 0)
(0.912956 0.381782 0)
(1.1 -2.39776e-06 0)
(1.1 -2.29113e-06 0)
(1.1 -1.79873e-06 0)
(1.1 1.53382e-06 0)
(1.09959 0.000498761 0)
(1.09052 0.0123219 0)
(1.03202 0.0899286 0)
(0.918866 0.240329 0)
(0.865045 0.349226 0)
(0.918709 0.369473 0)
(1.1 -9.12232e-07 0)
(1.1 -7.63132e-07 0)
(1.1 -7.23452e-07 0)
(1.1 -4.14333e-07 0)
(1.1 -2.81823e-07 0)
(1.09991 0.00011548 0)
(1.09647 0.00524927 0)
(1.06166 0.0574516 0)
(0.9704 0.202565 0)
(0.936554 0.320667 0)
(1.1 -6.5253e-08 0)
(1.1 -4.39877e-08 0)
(1.1 -5.96143e-08 0)
(1.1 -9.51332e-08 0)
(1.1 -6.83555e-08 0)
(1.1 -1.12656e-07 0)
(1.09998 1.99244e-05 0)
(1.09885 0.00191287 0)
(1.08145 0.0332885 0)
(1.02696 0.130461 0)
(1.1 3.10543e-10 0)
(1.1 2.06191e-10 0)
(1.1 -3.64477e-10 0)
(1.1 -6.49042e-10 0)
(1.1 -9.65779e-09 0)
(1.1 -9.76825e-09 0)
(1.1 -1.54686e-08 0)
(1.1 2.51429e-06 0)
(1.09975 0.000722909 0)
(1.09346 0.006114 0)
(1.1 1.2812e-09 0)
(1.1 7.99719e-10 0)
(1.1 3.45781e-10 0)
(1.1 1.41319e-10 0)
(1.1 -4.49338e-11 0)
(1.1 -8.36385e-10 0)
(1.1 -4.80971e-09 0)
(1.1 4.4606e-09 0)
(1.1 7.66717e-07 0)
(1.09994 4.00216e-05 0)
(1.1 1.33233e-09 0)
(1.1 8.30088e-10 0)
(1.1 3.86496e-10 0)
(1.1 1.60742e-10 0)
(1.1 4.04384e-11 0)
(1.1 2.0286e-11 0)
(1.1 -2.9278e-10 0)
(1.1 1.55071e-10 0)
(1.1 -2.31928e-09 0)
(1.1 3.06593e-07 0)
(1.1 1.22364e-09 0)
(1.1 7.63253e-10 0)
(1.1 3.58763e-10 0)
(1.1 1.40816e-10 0)
(1.1 4.51884e-11 0)
(1.1 1.61783e-11 0)
(1.1 -3.28581e-12 0)
(1.1 1.4468e-11 0)
(1.1 -7.86386e-10 0)
(1.1 1.86212e-09 0)
(1.1 1.09189e-09 0)
(1.1 6.79089e-10 0)
(1.1 3.19644e-10 0)
(1.1 1.2801e-10 0)
(1.1 4.39539e-11 0)
(1.1 1.5468e-11 0)
(1.1 1.26416e-12 0)
(1.1 3.36731e-12 0)
(1.1 -4.89088e-11 0)
(1.1 -6.3108e-10 0)
(1.1 3.08878e-10 0)
(1.1 1.94415e-10 0)
(1.1 1.13991e-10 0)
(1.1 7.17201e-11 0)
(1.1 3.74671e-11 0)
(1.1 1.48558e-11 0)
(1.1 3.01423e-12 0)
(1.1 1.7089e-12 0)
(1.1 -5.23317e-14 0)
(1.1 -3.53604e-10 0)
(3.00022 -1.3796e-14 0)
(2.92118 -3.74838e-14 0)
(2.378 6.0537e-14 0)
(2.05382 -1.01703e-12 0)
(1.88081 8.36922e-11 0)
(1.48504 -2.77942e-09 0)
(1.14177 3.14777e-08 0)
(1.10065 1.10242e-07 0)
(1.10007 -8.27252e-06 0)
(0.877118 0.0210666 0)
(3.00022 1.26515e-14 0)
(2.92118 -9.55624e-16 0)
(2.378 -3.56006e-14 0)
(2.05382 -2.27881e-12 0)
(1.88081 2.11319e-10 0)
(1.48504 -8.35476e-09 0)
(1.14177 1.43527e-07 0)
(1.10065 -7.15452e-07 0)
(1.10005 -1.42309e-05 0)
(0.918048 0.0573412 0)
(3.00022 1.77104e-15 0)
(2.92118 -4.48795e-14 0)
(2.378 -1.17192e-13 0)
(2.05382 -1.80488e-12 0)
(1.88081 1.45567e-10 0)
(1.48504 -5.30257e-09 0)
(1.14177 8.09529e-08 0)
(1.10065 -2.51607e-07 0)
(1.10001 -1.19278e-05 0)
(0.977827 0.0692963 0)
(3.00022 8.77567e-15 0)
(2.92118 4.6436e-15 0)
(2.378 -4.50467e-16 0)
(2.05382 -8.2235e-13 0)
(1.88081 4.64137e-11 0)
(1.48504 -1.17182e-09 0)
(1.14177 1.24616e-08 0)
(1.10065 -4.05766e-08 0)
(1.1 -3.04112e-07 0)
(1.02741 0.0782475 0)
(3.00022 -2.12417e-15 0)
(2.92118 2.6324e-14 0)
(2.378 4.53702e-14 0)
(2.05382 -2.62625e-13 0)
(1.88081 7.23089e-12 0)
(1.48504 -9.28633e-11 0)
(1.14177 5.20981e-10 0)
(1.10065 -1.47439e-10 0)
(1.1 -3.47604e-08 0)
(1.06311 0.0728262 0)
(3.00022 -4.91606e-14 0)
(2.92118 4.0628e-14 0)
(2.378 3.25259e-14 0)
(2.05382 -3.09089e-14 0)
(1.88081 2.86373e-13 0)
(1.48504 -2.01347e-12 0)
(1.14177 2.97163e-12 0)
(1.10065 1.99786e-11 0)
(1.1 -6.3391e-10 0)
(1.0869 0.0547999 0)
(3.00022 -2.44009e-14 0)
(2.92118 -6.28894e-16 0)
(2.378 2.61755e-14 0)
(2.05382 2.09311e-14 0)
(1.88081 -1.15602e-13 0)
(1.48504 2.30553e-13 0)
(1.14177 -3.15984e-12 0)
(1.10065 1.8787e-11 0)
(1.1 -5.1428e-11 0)
(1.09524 0.0357767 0)
(3.00022 -2.1608e-15 0)
(2.92118 -7.248e-14 0)
(2.378 -4.62724e-14 0)
(2.05382 2.79598e-14 0)
(1.88081 -1.08168e-13 0)
(1.48504 1.48575e-12 0)
(1.14177 -1.77877e-11 0)
(1.10065 7.15082e-11 0)
(1.1 -1.1842e-10 0)
(1.09824 0.01837 0)
(3.00022 5.05466e-14 0)
(2.92118 2.54647e-14 0)
(2.378 -5.02119e-14 0)
(2.05382 7.18347e-14 0)
(1.88081 -2.70109e-13 0)
(1.48504 6.72068e-12 0)
(1.14177 -7.6995e-11 0)
(1.10065 3.53647e-10 0)
(1.1 -7.15082e-10 0)
(1.09957 0.00674686 0)
(3.00022 7.12721e-14 0)
(2.92118 1.83369e-13 0)
(2.378 -4.07916e-14 0)
(2.05382 2.3915e-14 0)
(1.88081 -5.7881e-13 0)
(1.48504 1.72e-11 0)
(1.14177 -2.42965e-10 0)
(1.10065 1.52832e-09 0)
(1.1 -5.05956e-09 0)
(1.09995 0.00134779 0)
(3.00022 2.48478e-14 0)
(2.92118 1.14378e-13 0)
(2.378 -3.23516e-14 0)
(2.05382 -3.20801e-15 0)
(1.88081 -8.12492e-13 0)
(1.48504 3.57006e-11 0)
(1.14177 -7.00605e-10 0)
(1.10065 7.08119e-09 0)
(1.1 -4.94424e-08 0)
(1.1 0.000102594 0)
(3.00022 -2.55884e-14 0)
(2.92118 -4.93579e-14 0)
(2.378 -6.85243e-14 0)
(2.05382 3.55092e-14 0)
(1.88081 -6.81912e-13 0)
(1.48504 3.29562e-11 0)
(1.14177 -7.33327e-10 0)
(1.10065 9.01947e-09 0)
(1.1 -1.1132e-07 0)
(1.1 2.20471e-06 0)
(3.00022 -4.93911e-14 0)
(2.92118 -1.01537e-13 0)
(2.378 -1.43511e-13 0)
(2.05382 3.43764e-14 0)
(1.88081 -3.63602e-13 0)
(1.48504 8.86942e-12 0)
(1.14177 -1.6897e-10 0)
(1.10065 1.64616e-09 0)
(1.1 -1.2802e-08 0)
(1.1 6.21957e-08 0)
(3.00022 -6.96063e-14 0)
(2.92118 -8.81792e-14 0)
(2.378 2.50064e-14 0)
(2.05382 -2.02501e-15 0)
(1.88081 -2.7856e-13 0)
(1.48504 8.99202e-13 0)
(1.14177 -1.19561e-11 0)
(1.10065 8.73245e-11 0)
(1.1 -4.38864e-10 0)
(1.1 2.66199e-09 0)
(3.00022 -3.42978e-14 0)
(2.92118 -7.30372e-14 0)
(2.378 9.32356e-14 0)
(2.05382 8.74306e-14 0)
(1.88081 -2.60655e-13 0)
(1.48504 1.3854e-13 0)
(1.14177 -6.38167e-13 0)
(1.10065 -7.21349e-14 0)
(1.1 6.82358e-12 0)
(1.1 -9.22388e-11 0)
(3.00022 -2.50629e-16 0)
(2.92118 -7.13342e-14 0)
(2.378 4.86287e-14 0)
(2.05382 1.00245e-13 0)
(1.88081 -1.64528e-13 0)
(1.48504 1.17754e-13 0)
(1.14177 9.38584e-14 0)
(1.10065 -1.92197e-12 0)
(1.1 1.96324e-11 0)
(1.1 -2.15231e-10 0)
(3.00022 1.54185e-14 0)
(2.92118 -3.32609e-14 0)
(2.378 1.9085e-14 0)
(2.05382 1.98767e-14 0)
(1.88081 -4.9455e-14 0)
(1.48504 1.4721e-13 0)
(1.14177 1.17942e-13 0)
(1.10065 -2.03085e-12 0)
(1.1 2.15965e-11 0)
(1.1 -2.26853e-10 0)
(3.00022 -3.61575e-14 0)
(2.92118 -1.94134e-14 0)
(2.378 -7.00057e-15 0)
(2.05382 5.42874e-14 0)
(1.88081 -6.47517e-14 0)
(1.48504 2.21735e-13 0)
(1.14177 -2.08607e-13 0)
(1.10065 -1.88405e-12 0)
(1.1 2.06037e-11 0)
(1.1 -2.11098e-10 0)
(3.00022 1.53393e-14 0)
(2.92118 8.25008e-14 0)
(2.378 8.53387e-14 0)
(2.05382 5.40953e-14 0)
(1.88081 -1.42764e-13 0)
(1.48504 3.22432e-13 0)
(1.14177 -3.51044e-13 0)
(1.10065 -1.76265e-12 0)
(1.1 1.98761e-11 0)
(1.1 -1.96171e-10 0)
(3.00022 1.15127e-13 0)
(2.92118 1.16139e-13 0)
(2.378 1.30997e-13 0)
(2.05382 1.91446e-14 0)
(1.88081 -1.36581e-13 0)
(1.48504 2.43219e-13 0)
(1.14177 -2.67936e-13 0)
(1.10065 -1.2567e-12 0)
(1.1 1.31732e-11 0)
(1.1 -8.71967e-11 0)
(3.00022 -2.89747e-14 0)
(2.92118 -2.74551e-14 0)
(2.378 5.19513e-14 0)
(2.05382 6.09896e-14 0)
(1.88081 1.62365e-13 0)
(1.48504 1.37898e-13 0)
(1.14177 -9.75084e-13 0)
(1.10065 5.81011e-12 0)
(1.1 -4.22215e-11 0)
(1.1 3.90282e-10 0)
(3.00022 -4.53372e-14 0)
(2.92118 -1.26082e-13 0)
(2.378 -1.95758e-14 0)
(2.05382 -5.2926e-15 0)
(1.88081 3.43494e-14 0)
(1.48504 1.09683e-13 0)
(1.14177 -8.61422e-13 0)
(1.10065 5.81118e-12 0)
(1.1 -5.13449e-11 0)
(1.1 5.29973e-10 0)
(3.00022 2.29668e-16 0)
(2.92118 -2.30459e-14 0)
(2.378 -1.78265e-14 0)
(2.05382 -4.38678e-14 0)
(1.88081 9.23515e-14 0)
(1.48504 1.23182e-13 0)
(1.14177 -5.58933e-13 0)
(1.10065 3.27736e-12 0)
(1.1 -3.40267e-11 0)
(1.1 3.74118e-10 0)
(3.00022 -4.27399e-14 0)
(2.92118 7.72286e-14 0)
(2.378 9.72432e-14 0)
(2.05382 -1.71773e-14 0)
(1.88081 1.34275e-13 0)
(1.48504 1.017e-13 0)
(1.14177 -1.60342e-13 0)
(1.10065 -2.76058e-13 0)
(1.1 2.28801e-12 0)
(1.1 -6.48293e-12 0)
(3.00022 -4.87663e-14 0)
(2.92118 6.85074e-14 0)
(2.378 7.11573e-14 0)
(2.05382 6.07866e-14 0)
(1.88081 4.78347e-14 0)
(1.48504 3.03859e-14 0)
(1.14177 1.91507e-13 0)
(1.10065 -3.03146e-12 0)
(1.1 3.12438e-11 0)
(1.1 -3.08007e-10 0)
(3.00022 2.29674e-14 0)
(2.92118 8.45207e-14 0)
(2.378 1.79266e-14 0)
(2.05382 -1.79046e-14 0)
(1.88081 -6.14724e-14 0)
(1.48504 -1.10975e-13 0)
(1.14177 4.97562e-13 0)
(1.10065 -3.59541e-12 0)
(1.1 3.57501e-11 0)
(1.1 -3.68835e-10 0)
(3.00022 3.17276e-14 0)
(2.92118 1.28724e-13 0)
(2.378 4.61585e-14 0)
(2.05382 -7.88063e-14 0)
(1.88081 -2.90307e-14 0)
(1.48504 -8.45567e-13 0)
(1.14177 1.15641e-11 0)
(1.10065 -8.91782e-11 0)
(1.1 4.78579e-10 0)
(1.1 -3.10199e-09 0)
(3.00022 3.85982e-14 0)
(2.92118 1.6268e-13 0)
(2.378 7.80853e-14 0)
(2.05382 -6.99955e-14 0)
(1.88081 2.35864e-13 0)
(1.48504 -9.20907e-12 0)
(1.14177 1.6809e-10 0)
(1.10065 -1.64428e-09 0)
(1.1 1.27795e-08 0)
(1.1 -6.20269e-08 0)
(3.00022 3.75851e-14 0)
(2.92118 1.04822e-13 0)
(2.378 -6.93318e-15 0)
(2.05382 -8.7277e-14 0)
(1.88081 7.1921e-13 0)
(1.48504 -3.35831e-11 0)
(1.14177 7.33495e-10 0)
(1.10065 -9.01903e-09 0)
(1.1 1.11314e-07 0)
(1.1 -2.20469e-06 0)
(3.00022 -2.3003e-14 0)
(2.92118 -2.70203e-14 0)
(2.378 -9.10527e-14 0)
(2.05382 -1.51117e-13 0)
(1.88081 1.033e-12 0)
(1.48504 -3.63211e-11 0)
(1.14177 7.00449e-10 0)
(1.10065 -7.08091e-09 0)
(1.1 4.9439e-08 0)
(1.1 -0.000102594 0)
(3.00022 -3.4289e-14 0)
(2.92118 -1.29958e-13 0)
(2.378 -1.06844e-13 0)
(2.05382 -1.06832e-13 0)
(1.88081 8.37474e-13 0)
(1.48504 -1.82228e-11 0)
(1.14177 2.42923e-10 0)
(1.10065 -1.52832e-09 0)
(1.1 5.06112e-09 0)
(1.09995 -0.00134779 0)
(3.00022 -2.04632e-14 0)
(2.92118 -8.50999e-14 0)
(2.378 -3.57582e-14 0)
(2.05382 -7.15301e-14 0)
(1.88081 5.02289e-13 0)
(1.48504 -7.70395e-12 0)
(1.14177 7.82094e-11 0)
(1.10065 -3.5455e-10 0)
(1.1 7.13346e-10 0)
(1.09957 -0.00674686 0)
(3.00022 -3.76102e-14 0)
(2.92118 -4.85935e-14 0)
(2.378 -1.91044e-14 0)
(2.05382 -1.10179e-13 0)
(1.88081 3.00713e-13 0)
(1.48504 -2.4636e-12 0)
(1.14177 1.87986e-11 0)
(1.10065 -7.21199e-11 0)
(1.1 1.18869e-10 0)
(1.09824 -0.01837 0)
(3.00022 -1.95118e-14 0)
(2.92118 4.3128e-16 0)
(2.378 -3.19196e-14 0)
(2.05382 -7.66801e-14 0)
(1.88081 6.44943e-14 0)
(1.48504 -4.90005e-13 0)
(1.14177 3.64054e-12 0)
(1.10065 -1.93839e-11 0)
(1.1 5.19836e-11 0)
(1.09524 -0.0357767 0)
(3.00022 -4.18843e-14 0)
(2.92118 -2.42689e-14 0)
(2.378 -1.99371e-14 0)
(2.05382 -2.68749e-14 0)
(1.88081 -5.38338e-13 0)
(1.48504 1.87154e-12 0)
(1.14177 -2.94367e-12 0)
(1.10065 -2.0372e-11 0)
(1.1 6.34162e-10 0)
(1.0869 -0.0547999 0)
(3.00022 -2.22336e-14 0)
(2.92118 -5.18487e-14 0)
(2.378 -2.72783e-14 0)
(2.05382 2.03597e-13 0)
(1.88081 -7.31235e-12 0)
(1.48504 9.23773e-11 0)
(1.14177 -5.20014e-10 0)
(1.10065 1.46546e-10 0)
(1.1 3.47608e-08 0)
(1.06311 -0.0728262 0)
(3.00022 8.61658e-14 0)
(2.92118 -2.91088e-14 0)
(2.378 -1.09891e-13 0)
(2.05382 8.39782e-13 0)
(1.88081 -4.72526e-11 0)
(1.48504 1.17665e-09 0)
(1.14177 -1.2468e-08 0)
(1.10065 4.05765e-08 0)
(1.1 3.04112e-07 0)
(1.02741 -0.0782475 0)
(3.00022 9.78092e-15 0)
(2.92118 -1.41995e-13 0)
(2.378 -7.69947e-14 0)
(2.05382 1.87879e-12 0)
(1.88081 -1.46594e-10 0)
(1.48504 5.32411e-09 0)
(1.14177 -8.11006e-08 0)
(1.10065 2.51603e-07 0)
(1.10001 1.19278e-05 0)
(0.977827 -0.0692963 0)
(3.00022 8.66112e-15 0)
(2.92118 -5.83615e-14 0)
(2.378 2.50569e-14 0)
(2.05382 2.3548e-12 0)
(1.88081 -2.18581e-10 0)
(1.48504 8.71189e-09 0)
(1.14177 -1.46333e-07 0)
(1.10065 7.15419e-07 0)
(1.10005 1.42309e-05 0)
(0.918048 -0.0573412 0)
(3.00022 1.99575e-14 0)
(2.92118 -5.3716e-14 0)
(2.378 3.20511e-14 0)
(2.05382 9.92072e-13 0)
(1.88081 -7.42365e-11 0)
(1.48504 2.39806e-09 0)
(1.14177 -2.85191e-08 0)
(1.10065 -1.10202e-07 0)
(1.10007 8.27252e-06 0)
(0.877118 -0.0210666 0)
(1.1 -2.06789e-09 0)
(1.1 -1.28802e-09 0)
(1.1 -6.15646e-10 0)
(1.1 -2.60521e-10 0)
(1.1 -9.68813e-11 0)
(1.1 -3.09484e-11 0)
(1.1 -7.09989e-12 0)
(1.1 -1.90641e-12 0)
(1.1 -3.01779e-14 0)
(1.1 3.53363e-10 0)
(1.1 -3.1398e-09 0)
(1.1 -1.94431e-09 0)
(1.1 -8.87844e-10 0)
(1.1 -3.38559e-10 0)
(1.1 -1.11318e-10 0)
(1.1 -3.32921e-11 0)
(1.1 -5.40143e-12 0)
(1.1 -3.36728e-12 0)
(1.1 4.85152e-11 0)
(1.1 6.30968e-10 0)
(1.1 -2.32244e-09 0)
(1.1 -1.4496e-09 0)
(1.1 -6.7457e-10 0)
(1.1 -2.5943e-10 0)
(1.1 -8.55553e-11 0)
(1.1 -2.68952e-11 0)
(1.1 3.95715e-13 0)
(1.1 -1.51924e-11 0)
(1.1 7.86828e-10 0)
(1.1 -1.86219e-09 0)
(1.1 -9.34906e-11 0)
(1.1 -6.61108e-11 0)
(1.1 -4.74466e-11 0)
(1.1 -1.56179e-11 0)
(1.1 -1.2562e-11 0)
(1.1 -1.45124e-11 0)
(1.1 2.882e-10 0)
(1.1 -1.56056e-10 0)
(1.1 2.322e-09 0)
(1.1 -3.06592e-07 0)
(1.1 1.68676e-09 0)
(1.1 1.03267e-09 0)
(1.1 4.7653e-10 0)
(1.1 1.11597e-10 0)
(1.1 1.40169e-10 0)
(1.1 8.71052e-10 0)
(1.1 4.8146e-09 0)
(1.1 -4.45751e-09 0)
(1.1 -7.66716e-07 0)
(1.09994 -4.00216e-05 0)
(1.1 2.38864e-09 0)
(1.1 1.46503e-09 0)
(1.1 1.12775e-09 0)
(1.1 1.04316e-09 0)
(1.1 9.77307e-09 0)
(1.1 9.81335e-09 0)
(1.1 1.54742e-08 0)
(1.1 -2.51429e-06 0)
(1.09975 -0.000722909 0)
(1.09346 -0.006114 0)
(1.1 6.76735e-08 0)
(1.1 4.55689e-08 0)
(1.1 6.02345e-08 0)
(1.1 9.53937e-08 0)
(1.1 6.84399e-08 0)
(1.1 1.12695e-07 0)
(1.09998 -1.99244e-05 0)
(1.09885 -0.00191287 0)
(1.08145 -0.0332885 0)
(1.02696 -0.130461 0)
(1.1 9.12292e-07 0)
(1.1 7.63123e-07 0)
(1.1 7.23489e-07 0)
(1.1 4.14342e-07 0)
(1.1 2.81843e-07 0)
(1.09991 -0.00011548 0)
(1.09647 -0.00524927 0)
(1.06166 -0.0574516 0)
(0.9704 -0.202565 0)
(0.936554 -0.320667 0)
(1.1 2.39757e-06 0)
(1.1 2.29097e-06 0)
(1.1 1.79863e-06 0)
(1.1 -1.53383e-06 0)
(1.09959 -0.000498761 0)
(1.09052 -0.0123219 0)
(1.03202 -0.0899286 0)
(0.918866 -0.240329 0)
(0.865045 -0.349226 0)
(0.918709 -0.369473 0)
(1.1 -1.19805e-05 0)
(1.1 2.59601e-08 0)
(1.09998 -1.72788e-05 0)
(1.09857 -0.00157953 0)
(1.07768 -0.0253899 0)
(0.990897 -0.125894 0)
(0.875318 -0.26542 0)
(0.822468 -0.349056 0)
(0.844234 -0.381159 0)
(0.912956 -0.381782 0)
(1.10016 -0.000707886 0)
(1.10003 -0.000439121 0)
(1.09621 -0.00406857 0)
(1.05601 -0.043772 0)
(0.941113 -0.160984 0)
(0.83417 -0.277629 0)
(0.797823 -0.335452 0)
(0.793903 -0.371916 0)
(0.838671 -0.380616 0)
(0.923506 -0.375191 0)
(1.09988 -0.00569042 0)
(1.09311 -0.0110723 0)
(1.02761 -0.06601 0)
(0.888138 -0.186021 0)
(0.803631 -0.277212 0)
(0.768064 -0.323251 0)
(0.778498 -0.343569 0)
(0.792095 -0.369228 0)
(0.844449 -0.369064 0)
(0.937813 -0.365186 0)
(1.08775 -0.0340085 0)
(1.00899 -0.0869389 0)
(0.846065 -0.196737 0)
(0.773136 -0.266795 0)
(0.754006 -0.30005 0)
(0.749969 -0.328093 0)
(0.767414 -0.34172 0)
(0.794243 -0.355575 0)
(0.847993 -0.366333 0)
(0.949796 -0.366484 0)
(1.00582 -0.111874 0)
(0.836468 -0.188145 0)
(0.75498 -0.243617 0)
(0.732472 -0.276326 0)
(0.736332 -0.297757 0)
(0.74099 -0.322308 0)
(0.762869 -0.333299 0)
(0.788734 -0.351481 0)
(0.843829 -0.372244 0)
(0.954312 -0.375763 0)
(0.853498 -0.171363 0)
(0.726406 -0.213888 0)
(0.722665 -0.240437 0)
(0.714429 -0.268595 0)
(0.722647 -0.291889 0)
(0.730385 -0.314611 0)
(0.74901 -0.333362 0)
(0.774577 -0.356803 0)
(0.83307 -0.38242 0)
(0.954938 -0.385302 0)
(0.734756 -0.167938 0)
(0.674649 -0.204426 0)
(0.694359 -0.226824 0)
(0.694408 -0.254834 0)
(0.702466 -0.285198 0)
(0.710641 -0.314845 0)
(0.72794 -0.340987 0)
(0.757162 -0.368022 0)
(0.821289 -0.395022 0)
(0.951132 -0.396379 0)
(0.657813 -0.149193 0)
(0.625568 -0.189457 0)
(0.648662 -0.223384 0)
(0.655412 -0.25857 0)
(0.672413 -0.289235 0)
(0.686419 -0.321459 0)
(0.707337 -0.349956 0)
(0.741316 -0.376935 0)
(0.80575 -0.404791 0)
(0.93832 -0.408339 0)
(0.575484 -0.129196 0)
(0.567814 -0.165756 0)
(0.597813 -0.207628 0)
(0.614202 -0.253558 0)
(0.641938 -0.29216 0)
(0.666219 -0.329478 0)
(0.692853 -0.357953 0)
(0.728392 -0.381554 0)
(0.788529 -0.407974 0)
(0.915355 -0.414712 0)
(0.478218 -0.14864 0)
(0.506069 -0.181924 0)
(0.551569 -0.22902 0)
(0.588171 -0.280148 0)
(0.626998 -0.319659 0)
(0.659003 -0.352236 0)
(0.687059 -0.374771 0)
(0.720713 -0.393176 0)
(0.774706 -0.416142 0)
(0.891804 -0.432918 0)
(0.41482 -0.114965 0)
(0.47147 -0.155393 0)
(0.541875 -0.216659 0)
(0.59494 -0.277258 0)
(0.637434 -0.323296 0)
(0.668545 -0.357899 0)
(0.694878 -0.382032 0)
(0.724973 -0.401587 0)
(0.772258 -0.426318 0)
(0.892206 -0.448767 0)
(1.1 5.03162e-09 0)
(1.1 1.28381e-08 0)
(1.1 1.15426e-08 0)
(1.1 5.35862e-09 0)
(1.1 7.69298e-10 0)
(1.1 2.11955e-11 0)
(1.1 1.8516e-13 0)
(1.1 -4.64997e-14 0)
(1.1 1.42435e-13 0)
(1.09682 1.5657e-13 0)
(1.1 4.05852e-09 0)
(1.1 1.06357e-08 0)
(1.1 1.13905e-08 0)
(1.1 5.90573e-09 0)
(1.1 1.09626e-09 0)
(1.1 7.20406e-11 0)
(1.1 1.1457e-12 0)
(1.1 -6.99001e-14 0)
(1.1 1.82797e-13 0)
(1.09682 8.42537e-14 0)
(1.1 -8.11888e-06 0)
(1.1 -1.26551e-05 0)
(1.1 -3.57473e-06 0)
(1.1 -1.00326e-07 0)
(1.1 5.80277e-10 0)
(1.1 1.00022e-10 0)
(1.1 1.69875e-12 0)
(1.1 -6.83311e-14 0)
(1.1 1.52769e-13 0)
(1.09682 -5.07629e-14 0)
(1.09989 -0.00197278 0)
(1.09995 -0.00226641 0)
(1.10005 -0.000629888 0)
(1.10001 -2.48268e-05 0)
(1.1 -1.73795e-07 0)
(1.1 -1.2647e-09 0)
(1.1 -3.10314e-11 0)
(1.1 -5.19232e-15 0)
(1.1 2.46865e-13 0)
(1.09682 -1.26724e-13 0)
(1.09711 -0.0422448 0)
(1.09955 -0.0383796 0)
(1.10143 -0.0110178 0)
(1.10016 -0.000607139 0)
(1.1 -6.97288e-06 0)
(1.1 -5.60819e-08 0)
(1.1 -3.76551e-10 0)
(1.1 7.46143e-14 0)
(1.1 4.91814e-12 0)
(1.09682 1.88952e-13 0)
(1.08305 -0.164469 0)
(1.10271 -0.126976 0)
(1.10753 -0.0399863 0)
(1.10103 -0.00312259 0)
(1.10002 -5.53194e-05 0)
(1.1 -4.32426e-07 0)
(1.1 -6.87097e-10 0)
(1.1 1.69209e-10 0)
(1.1 3.26685e-11 0)
(1.09682 7.74532e-12 0)
(1.06232 -0.261346 0)
(1.11716 -0.179161 0)
(1.1186 -0.0617788 0)
(1.10291 -0.00642771 0)
(1.10009 -0.000157349 0)
(1.1 -1.06744e-06 0)
(1.1 2.76878e-08 0)
(1.1 7.88694e-09 0)
(1.1 1.15748e-10 0)
(1.09682 8.37358e-11 0)
(1.06091 -0.293456 0)
(1.13555 -0.188366 0)
(1.13333 -0.0649056 0)
(1.10567 -0.00808347 0)
(1.10021 -0.000245642 0)
(1.1 -8.62457e-07 0)
(1.1 4.17136e-07 0)
(1.1 5.72985e-08 0)
(1.1 2.12813e-10 0)
(1.09682 3.39192e-10 0)
(1.06658 -0.308316 0)
(1.15336 -0.167443 0)
(1.14315 -0.0597906 0)
(1.10853 -0.00796179 0)
(1.10037 -0.000267362 0)
(1.1 3.15518e-06 0)
(1.1 1.42183e-06 0)
(1.1 1.11544e-07 0)
(1.1 1.84164e-10 0)
(1.09682 4.1452e-10 0)
(1.08148 -0.287351 0)
(1.17348 -0.116322 0)
(1.14922 -0.0321646 0)
(1.11 -0.00527963 0)
(1.10049 -0.000159682 0)
(1.10001 1.0795e-05 0)
(1.1 2.15673e-06 0)
(1.1 9.08784e-08 0)
(1.1 -9.53454e-11 0)
(1.09682 2.54898e-10 0)
(1.10373 -0.259142 0)
(1.19404 -0.0647315 0)
(1.15095 0.00222174 0)
(1.10953 0.00326922 0)
(1.10049 0.000474713 0)
(1.1 2.58091e-05 0)
(1.1 1.93663e-06 0)
(1.1 3.78784e-08 0)
(1.1 -2.77868e-09 0)