/*--------------------------------*- C++ -*----------------------------------*\
  =========                 |
  \\      /  F ield         | OpenFOAM: The Open Source CFD Toolbox
   \\    /   O peration     | Website:  https://openfoam.org
    \\  /    A nd           | Version:  8
     \\/     M anipulation  |
\*---------------------------------------------------------------------------*/
FoamFile
{
    version     2.0;
    format      ascii;
    class       volScalarField;
    location    "2.2";
    object      p;
}
// * * * * * * * * * * * * * * * * * * * * * * * * * * * * * * * * * * * * * //

dimensions      [1 -1 -2 0 0 0 0];

internalField   nonuniform List<scalar> 
2600
(
0.870804
0.830839
0.825379
0.878494
1.02464
1.28366
1.45175
1.50474
1.47686
1.41281
0.888705
0.821627
0.81233
0.884379
1.0484
1.30551
1.45699
1.50099
1.47137
1.39613
0.892977
0.816178
0.809232
0.891801
1.07092
1.3267
1.4786
1.505
1.48925
1.40346
0.890336
0.815729
0.806748
0.905273
1.09363
1.33957
1.49214
1.52297
1.51848
1.43315
0.883566
0.807109
0.805432
0.921334
1.11705
1.35272
1.47533
1.51431
1.49257
1.43268
0.88092
0.800015
0.810826
0.929823
1.1323
1.36787
1.49416
1.50778
1.47664
1.42092
0.885986
0.79579
0.808784
0.930574
1.12835
1.36071
1.50651
1.5369
1.49828
1.43111
0.89611
0.800092
0.80389
0.920956
1.11953
1.36116
1.49499
1.5305
1.50288
1.42515
0.904594
0.809486
0.805971
0.927967
1.13438
1.37448
1.48113
1.51793
1.53154
1.41952
0.909944
0.816097
0.814594
0.936187
1.14345
1.37022
1.4694
1.51904
1.5228
1.43055
0.909919
0.81588
0.814483
0.935669
1.13993
1.36799
1.49642
1.51573
1.47621
1.42912
0.904659
0.80915
0.805509
0.927299
1.1321
1.37202
1.51365
1.53199
1.47004
1.43907
0.896283
0.799399
0.803166
0.921608
1.1219
1.36115
1.49745
1.52229
1.49806
1.42916
0.886075
0.794955
0.807353
0.9317
1.13482
1.37105
1.48761
1.51439
1.49688
1.42021
0.880694
0.798763
0.808087
0.929301
1.13887
1.36253
1.48019
1.51524
1.51699
1.42851
0.883116
0.80559
0.802983
0.922351
1.12251
1.34638
1.49157
1.52312
1.51944
1.42515
0.889692
0.814347
0.805518
0.905858
1.09607
1.34955
1.47822
1.52583
1.48087
1.40793
0.892462
0.815511
0.808332
0.890594
1.07783
1.32923
1.46325
1.50489
1.4691
1.41516
0.888767
0.820857
0.810264
0.883692
1.05583
1.30211
1.46707
1.4952
1.48989
1.42555
0.870044
0.829447
0.823274
0.879001
1.03073
1.28128
1.45934
1.50001
1.49713
1.41634
1.0376
0.847386
0.83738
0.871848
1.00624
1.25948
1.44579
1.50042
1.49043
1.40333
1.21754
0.875481
0.855367
0.869603
0.983721
1.23339
1.42561
1.4958
1.47268
1.39716
1.39671
0.923422
0.87478
0.870856
0.96169
1.20227
1.4048
1.48314
1.4635
1.39714
1.53856
1.00011
0.899376
0.873404
0.938432
1.16069
1.38672
1.46681
1.46281
1.39767
1.6582
1.09196
0.933481
0.877571
0.923185
1.11514
1.36553
1.46023
1.46457
1.39235
1.75723
1.17835
0.980983
0.891157
0.917103
1.07542
1.33711
1.45353
1.46131
1.38509
1.84374
1.26166
1.02668
0.917013
0.923785
1.04343
1.30131
1.44467
1.45411
1.37833
1.91863
1.34653
1.06662
0.941904
0.928827
1.01479
1.261
1.42871
1.44337
1.37389
1.98282
1.42934
1.1182
0.961555
0.933699
0.991282
1.21906
1.40639
1.43651
1.37026
2.04054
1.50228
1.18101
0.988808
0.936507
0.974468
1.1754
1.38462
1.4325
1.36573
2.09269
1.56827
1.23906
1.03192
0.939881
0.964807
1.13088
1.363
1.42812
1.35948
2.13817
1.63067
1.28862
1.07846
0.951818
0.963276
1.08868
1.33733
1.42205
1.35246
2.17764
1.68908
1.33985
1.11701
0.973352
0.964221
1.05272
1.30472
1.41202
1.34559
2.21262
1.74181
1.39387
1.15487
0.994759
0.967685
1.02386
1.2654
1.40078
1.33915
2.24454
1.79085
1.44552
1.19785
1.01693
0.969963
1.00109
1.22356
1.38907
1.33135
2.27369
1.8375
1.49287
1.24089
1.04664
0.972665
0.98468
1.18169
1.37588
1.32391
2.30023
1.88131
1.5382
1.27989
1.08071
0.980407
0.973548
1.1403
1.35846
1.31582
2.32422
1.92147
1.58124
1.31789
1.11259
0.992285
0.967316
1.09875
1.33493
1.30754
2.34599
1.95769
1.62158
1.3557
1.14495
1.00317
0.966272
1.0607
1.30541
1.30039
2.36542
1.99116
1.65976
1.39269
1.17867
1.01635
0.966744
1.02747
1.27375
1.29276
4.21682
4.02366
3.89328
3.76401
3.63602
3.50978
3.37269
3.21921
2.9976
2.76229
3.95843
3.77429
3.68957
3.59343
3.49635
3.38907
3.2639
3.10828
2.88294
2.5769
3.87232
3.7373
3.6638
3.57075
3.47982
3.37781
3.2555
3.09852
2.87295
2.57351
3.76183
3.65923
3.59748
3.51258
3.43032
3.33067
3.21027
3.05317
2.83358
2.53427
3.66454
3.58409
3.53495
3.45827
3.38156
3.28416
3.16757
3.01291
2.80218
2.50677
3.57273
3.50857
3.46764
3.39969
3.33115
3.23847
3.12743
2.97638
2.77604
2.49093
3.49154
3.44231
3.40848
3.34793
3.28565
3.1967
3.09109
2.94446
2.75509
2.48831
3.42376
3.38266
3.35198
3.29821
3.24164
3.15715
3.05747
2.91638
2.73838
2.49237
3.36267
3.33129
3.30511
3.25673
3.20351
3.1224
3.02776
2.89241
2.72571
2.50039
3.31472
3.29005
3.26614
3.22018
3.16883
3.09102
3.00104
2.87271
2.71694
2.51117
3.28125
3.25609
3.23094
3.18644
3.13697
3.06286
2.97767
2.85629
2.71077
2.52189
3.25613
3.22662
3.19965
3.15621
3.1079
3.03714
2.95616
2.84216
2.70585
2.5319
3.23351
3.20066
3.17256
3.13017
3.08269
3.01484
2.93762
2.83028
2.70285
2.5423
3.21104
3.17602
3.14717
3.10567
3.05917
2.99458
2.92121
2.82034
2.70162
2.5532
3.18905
3.15271
3.12354
3.08292
3.0376
2.97607
2.90643
2.81208
2.70122
2.56344
3.16728
3.13026
3.10116
3.06161
3.01787
2.95953
2.89352
2.80496
2.70111
2.57305
3.1451
3.10842
3.0801
3.04199
3.00015
2.94498
2.88233
2.79921
2.70151
2.58206
3.12171
3.08683
3.05995
3.02367
2.98392
2.93183
2.8723
2.79437
2.70219
2.59039
3.09708
3.06566
3.04093
3.00688
2.96946
2.92037
2.86378
2.79052
2.70333
2.59821
3.07063
3.04394
3.02191
2.99044
2.9554
2.9092
2.85556
2.78674
2.70425
2.60527
1.0049
1.01563
1.02823
1.04285
1.06135
1.08313
1.10697
1.38463
2.96924
3.50006
1.0049
1.01563
1.02823
1.04285
1.06134
1.08313
1.10698
1.38416
2.96645
3.48701
1.0049
1.01563
1.02823
1.04285
1.06133
1.08314
1.10699
1.3833
2.96229
3.4681
1.0049
1.01563
1.02822
1.04286
1.06131
1.08316
1.107
1.38199
2.95618
3.44565
1.0049
1.01563
1.02822
1.04286
1.06128
1.08317
1.107
1.38007
2.94849
3.4232
1.0049
1.01564
1.02822
1.04287
1.06126
1.08319
1.107
1.37756
2.9391
3.39969
1.0049
1.01564
1.02822
1.04288
1.06123
1.08321
1.10699
1.37441
2.92742
3.37618
1.0049
1.01564
1.02821
1.04288
1.06121
1.08322
1.10697
1.3706
2.91404
3.35236
1.0049
1.01564
1.02821
1.04289
1.06118
1.08324
1.10694
1.36606
2.89902
3.32935
1.0049
1.01564
1.0282
1.0429
1.06116
1.08326
1.1069
1.36078
2.88211
3.30554
1.0049
1.01564
1.0282
1.0429
1.06114
1.08327
1.10686
1.35473
2.86403
3.28238
1.0049
1.01564
1.0282
1.04291
1.06112
1.08328
1.10681
1.3479
2.84499
3.26002
1.0049
1.01564
1.02819
1.04292
1.06111
1.08329
1.10677
1.34042
2.82553
3.23895
1.0049
1.01565
1.02819
1.04292
1.0611
1.0833
1.10674
1.33249
2.80578
3.21898
1.0049
1.01565
1.02819
1.04293
1.06108
1.0833
1.10672
1.32431
2.78589
3.2006
1.0049
1.01565
1.02818
1.04294
1.06107
1.0833
1.10672
1.31599
2.76562
3.18374
1.0049
1.01565
1.02818
1.04294
1.06107
1.0833
1.10674
1.30707
2.74549
3.16875
1.0049
1.01565
1.02818
1.04294
1.06106
1.0833
1.10679
1.29722
2.7259
3.15585
1.0049
1.01565
1.02818
1.04295
1.06105
1.08329
1.10687
1.28668
2.70649
3.14445
1.0049
1.01565
1.02817
1.04295
1.06104
1.08329
1.10697
1.27551
2.6874
3.13524
1.0049
1.01565
1.02817
1.04295
1.06104
1.08329
1.10697
1.27551
2.6874
3.13524
1.0049
1.01565
1.02818
1.04295
1.06105
1.08329
1.10687
1.28668
2.70649
3.14445
1.0049
1.01565
1.02818
1.04294
1.06106
1.0833
1.10679
1.29722
2.7259
3.15585
1.0049
1.01565
1.02818
1.04294
1.06107
1.0833
1.10674
1.30707
2.74549
3.16875
1.0049
1.01565
1.02818
1.04294
1.06107
1.0833
1.10672
1.31599
2.76562
3.18374
1.0049
1.01565
1.02819
1.04293
1.06108
1.0833
1.10672
1.32431
2.78589
3.2006
1.0049
1.01565
1.02819
1.04292
1.0611
1.0833
1.10674
1.33249
2.80578
3.21898
1.0049
1.01564
1.02819
1.04292
1.06111
1.08329
1.10677
1.34042
2.82553
3.23895
1.0049
1.01564
1.0282
1.04291
1.06112
1.08328
1.10681
1.3479
2.84499
3.26001
1.0049
1.01564
1.0282
1.0429
1.06114
1.08327
1.10686
1.35473
2.86403
3.28237
1.0049
1.01564
1.0282
1.0429
1.06116
1.08326
1.1069
1.36078
2.88211
3.30553
1.0049
1.01564
1.02821
1.04289
1.06118
1.08324
1.10694
1.36606
2.89902
3.32935
1.0049
1.01564
1.02821
1.04288
1.06121
1.08322
1.10697
1.3706
2.91404
3.35236
1.0049
1.01564
1.02822
1.04288
1.06123
1.08321
1.10699
1.37441
2.92742
3.37618
1.0049
1.01564
1.02822
1.04287
1.06126
1.08319
1.107
1.37757
2.9391
3.39969
1.0049
1.01563
1.02822
1.04286
1.06128
1.08317
1.107
1.38007
2.94849
3.42319
1.0049
1.01563
1.02822
1.04286
1.06131
1.08316
1.107
1.38199
2.95618
3.44564
1.0049
1.01563
1.02823
1.04285
1.06133
1.08314
1.10699
1.3833
2.96229
3.4681
1.0049
1.01563
1.02823
1.04285
1.06134
1.08313
1.10698
1.38416
2.96645
3.48701
1.0049
1.01563
1.02823
1.04285
1.06135
1.08313
1.10697
1.38464
2.96924
3.50006
3.07061
3.04392
3.0219
2.99042
2.95539
2.90919
2.85555
2.78674
2.70425
2.60528
3.09706
3.06565
3.04091
3.00687
2.96945
2.92037
2.86378
2.79052
2.70333
2.59822
3.1217
3.08682
3.05994
3.02366
2.98391
2.93182
2.87229
2.79436
2.7022
2.59041
3.14509
3.10841
3.08009
3.04199
3.00015
2.94498
2.88233
2.79921
2.70152
2.58208
3.16728
3.13025
3.10115
3.0616
3.01787
2.95953
2.89352
2.80497
2.70113
2.57308
3.18904
3.15271
3.12354
3.08292
3.0376
2.97607
2.90643
2.8121
2.70124
2.56347
3.21104
3.17602
3.14717
3.10567
3.05917
2.99459
2.92123
2.82037
2.70165
2.55325
3.23351
3.20065
3.17256
3.13016
3.08269
3.01485
2.93764
2.8303
2.70289
2.54236
3.25612
3.22662
3.19965
3.15621
3.1079
3.03715
2.95618
2.84219
2.7059
2.53198
3.28125
3.25609
3.23094
3.18645
3.13697
3.06287
2.97769
2.85632
2.71084
2.52196
3.31472
3.29005
3.26614
3.22018
3.16884
3.09103
3.00106
2.87275
2.71702
2.51123
3.36267
3.33129
3.30511
3.25674
3.20352
3.12242
3.02779
2.89246
2.72578
2.50044
3.42376
3.38266
3.35198
3.29821
3.24165
3.15716
3.0575
2.91643
2.73844
2.49245
3.49154
3.44231
3.40848
3.34794
3.28567
3.19672
3.09112
2.94451
2.75513
2.48843
3.57272
3.50857
3.46764
3.39969
3.33116
3.23849
3.12746
2.97642
2.77607
2.49108
3.66454
3.58409
3.53495
3.45827
3.38157
3.28417
3.16759
3.01295
2.80223
2.50685
3.76183
3.65923
3.59748
3.51258
3.43032
3.33068
3.21029
3.0532
2.83364
2.53427
3.87232
3.7373
3.66379
3.57075
3.47983
3.37781
3.25552
3.09855
2.87299
2.57351
3.95842
3.77429
3.68956
3.59343
3.49635
3.38908
3.26392
3.1083
2.88297
2.5769
4.21681
4.02366
3.89328
3.76401
3.63602
3.50979
3.3727
3.21923
2.99763
2.76232
2.36545
1.99127
1.65985
1.39261
1.17835
1.01638
0.967132
1.02875
1.27564
1.29295
2.34601
1.95775
1.62167
1.35562
1.14466
1.0033
0.966658
1.06156
1.30631
1.30022
2.32424
1.92148
1.58128
1.31781
1.11243
0.992313
0.967503
1.09888
1.33479
1.30756
2.30025
1.88126
1.53817
1.27991
1.08035
0.980349
0.973956
1.14105
1.35866
1.31639
2.27373
1.83743
1.49284
1.2408
1.04617
0.97287
0.98523
1.18387
1.37681
1.32453
2.24462
1.79082
1.44544
1.19769
1.01665
0.970186
1.00163
1.22537
1.39018
1.33141
2.21273
1.74181
1.39371
1.15493
0.994638
0.967796
1.02428
1.26547
1.40119
1.33838
2.17776
1.68909
1.33977
1.11731
0.973168
0.96413
1.05386
1.30394
1.4109
1.34626
2.13824
1.63069
1.28871
1.07879
0.951416
0.962977
1.0907
1.33839
1.42059
1.3539
2.09265
1.56828
1.23912
1.0323
0.939282
0.964584
1.13211
1.36579
1.4283
1.36063
2.04042
1.50203
1.18102
0.989548
0.935863
0.974132
1.1752
1.38695
1.43312
1.36384
1.98274
1.42867
1.1186
0.962458
0.932986
0.990559
1.22054
1.405
1.43754
1.36839
1.91866
1.34567
1.06776
0.942467
0.927713
1.01335
1.26628
1.42406
1.4436
1.37431
1.84394
1.26108
1.02777
0.916892
0.922446
1.04171
1.30559
1.44255
1.45223
1.3832
1.75748
1.17813
0.981941
0.8906
0.916094
1.07475
1.33602
1.4558
1.45812
1.38853
1.65834
1.09177
0.934669
0.877292
0.921537
1.11539
1.36124
1.46298
1.46132
1.38763
1.53845
1.00003
0.901191
0.873336
0.935389
1.16019
1.38725
1.4682
1.46265
1.38895
1.39653
0.923338
0.876832
0.871047
0.957633
1.19919
1.41526
1.47551
1.46852
1.39563
1.21783
0.875596
0.85671
0.870022
0.979269
1.2302
1.43408
1.49042
1.4793
1.41008
1.03828
0.848271
0.838681
0.871844
1.00105
1.25763
1.44561
1.50052
1.48412
1.41817
2.6258
2.46773
2.27219
2.06164
1.83234
1.59597
1.36461
1.16629
0.944386
0.717997
2.62442
2.4665
2.26897
2.05724
1.82813
1.59208
1.36157
1.16277
0.941306
0.719396
2.62227
2.46382
2.26478
2.05146
1.82165
1.58594
1.35657
1.15675
0.936128
0.721843
2.61881
2.45914
2.25931
2.04311
1.81258
1.57737
1.3495
1.14791
0.929331
0.725837
2.61424
2.45281
2.25206
2.03274
1.80116
1.56658
1.3406
1.13646
0.92105
0.732116
2.60859
2.4447
2.24261
2.02023
1.78747
1.55369
1.3296
1.12192
0.912154
0.740979
2.6019
2.4344
2.23034
2.00504
1.77111
1.53835
1.31639
1.1044
0.903687
0.752975
2.59388
2.42154
2.21513
1.987
1.75191
1.52059
1.30047
1.08404
0.896866
0.769235
2.58444
2.40612
2.19636
1.96553
1.72929
1.49974
1.28159
1.06068
0.891621
0.791275
2.57349
2.38796
2.17362
1.93995
1.70312
1.47581
1.25892
1.0355
0.885732
0.821956
2.5612
2.36709
2.14677
1.91032
1.67313
1.44844
1.23221
1.00943
0.878891
0.863446
2.54804
2.34361
2.11599
1.87627
1.63941
1.41761
1.20155
0.983915
0.873968
0.912346
2.5345
2.31765
2.08099
1.83795
1.60193
1.38289
1.16656
0.963018
0.874447
0.965545
2.52066
2.28929
2.04235
1.79521
1.56042
1.34418
1.12909
0.949227
0.882303
1.02269
2.5062
2.25838
1.99969
1.74796
1.5149
1.30148
1.08955
0.943247
0.904211
1.07858
2.49029
2.22447
1.95296
1.69634
1.46537
1.25373
1.05448
0.941838
0.938332
1.13237
2.47183
2.18689
1.90217
1.64023
1.41189
1.20251
1.02287
0.941536
0.987533
1.18056
2.44966
2.14437
1.84617
1.58052
1.35392
1.14884
1.00284
0.944152
1.05572
1.21997
2.42316
2.09526
1.7847
1.5159
1.29307
1.09562
0.983344
0.961185
1.13608
1.25163
2.39169
2.03828
1.71561
1.44721
1.22887
1.0468
0.971517
0.99228
1.21911
1.27773
2.39166
2.0382
1.71555
1.44732
1.22907
1.04687
0.971497
0.991643
1.21765
1.27694
2.42314
2.09524
1.7847
1.5159
1.29323
1.09578
0.983294
0.961078
1.13567
1.25155
2.44965
2.14435
1.84612
1.58052
1.35398
1.14897
1.00284
0.944124
1.05594
1.21981
2.47183
2.18687
1.9021
1.64022
1.41195
1.20263
1.02286
0.941576
0.988102
1.18097
2.4903
2.22446
1.95292
1.6963
1.46544
1.25379
1.05437
0.9419
0.938858
1.1328
2.50621
2.25838
1.99967
1.74795
1.51487
1.30146
1.08954
0.943351
0.904529
1.07925
2.52067
2.2893
2.04234
1.79517
1.56041
1.34412
1.129
0.949259
0.882443
1.02306
2.53451
2.31766
2.08099
1.83793
1.6019
1.38286
1.16649
0.963011
0.87449
0.965774
2.54806
2.34362
2.116
1.87626
1.6394
1.41758
1.20149
0.983903
0.874001
0.912391
2.56121
2.3671
2.14679
1.91033
1.67314
1.44844
1.23215
1.00938
0.878903
0.863453
2.5735
2.38797
2.17363
1.93996
1.70313
1.47581
1.25889
1.03546
0.885726
0.821927
2.58444
2.40613
2.19638
1.96554
1.7293
1.49975
1.28156
1.06065
0.891597
0.791241
2.59388
2.42155
2.21514
1.98701
1.75192
1.5206
1.30046
1.08401
0.896834
0.769219
2.6019
2.43441
2.23035
2.00505
1.77113
1.53837
1.3164
1.10438
0.903654
0.752979
2.60859
2.4447
2.24262
2.02024
1.78749
1.55371
1.32961
1.12191
0.912124
0.74099
2.61424
2.45281
2.25206
2.03275
1.80117
1.56659
1.34062
1.13646
0.921042
0.732123
2.61881
2.45913
2.25931
2.04311
1.81259
1.57738
1.34952
1.14791
0.929339
0.725835
2.62227
2.46381
2.26478
2.05147
1.82166
1.58595
1.35658
1.15677
0.93615
0.72184
2.62442
2.46649
2.26897
2.05724
1.82813
1.59209
1.36158
1.16278
0.941335
0.719391
2.62579
2.46772
2.27218
2.06164
1.83234
1.59598
1.36462
1.16631
0.94442
0.717993
3.04314
3.02022
2.99997
2.97108
2.93851
2.8957
2.8457
2.78234
2.70578
2.61479
3.0174
2.9961
2.9767
2.95
2.91973
2.88064
2.83479
2.77775
2.70849
2.62696
2.99657
2.97593
2.95751
2.93253
2.90398
2.86779
2.82527
2.77339
2.7105
2.63681
2.9791
2.95872
2.94122
2.91759
2.89056
2.85687
2.81715
2.76941
2.71171
2.64438
2.96411
2.94383
2.92717
2.90468
2.87896
2.84733
2.80992
2.76558
2.71207
2.65004
2.9513
2.93096
2.91495
2.89342
2.86884
2.83894
2.80345
2.76194
2.71203
2.65439
2.94045
2.91994
2.90439
2.88365
2.86002
2.8316
2.79786
2.75885
2.7122
2.65841
2.93128
2.91052
2.89528
2.87517
2.85235
2.82528
2.79332
2.75669
2.71302
2.66282
2.92352
2.90248
2.88743
2.86782
2.84572
2.82
2.78993
2.75565
2.71473
2.66795
2.91701
2.89566
2.8807
2.86153
2.84021
2.81591
2.78768
2.75554
2.7173
2.67386
2.91164
2.89004
2.87515
2.85648
2.83609
2.8131
2.78651
2.75619
2.7206
2.68019
2.90727
2.88559
2.87092
2.85291
2.83342
2.81158
2.78627
2.75762
2.72456
2.68646
2.90389
2.88245
2.86824
2.85097
2.83223
2.81118
2.78713
2.76023
2.72903
2.6924
2.90149
2.88067
2.86712
2.85042
2.83236
2.81215
2.7895
2.76388
2.73371
2.69787
2.89997
2.88007
2.86714
2.85108
2.83381
2.81458
2.79288
2.76785
2.73821
2.7028
2.89916
2.88028
2.86803
2.85276
2.83629
2.81767
2.79644
2.77165
2.74228
2.70719
2.89872
2.88089
2.86938
2.85477
2.83886
2.82059
2.79962
2.77488
2.74568
2.71079
2.89854
2.88171
2.87078
2.85662
2.8411
2.82301
2.8022
2.77747
2.74838
2.71366
2.89821
2.88221
2.87168
2.85778
2.84246
2.82447
2.80376
2.77903
2.75002
2.71538
2.89781
2.88238
2.87224
2.85855
2.84341
2.82549
2.80486
2.78011
2.75116
2.71651
1.0049
1.01565
1.02817
1.04296
1.06104
1.08328
1.10713
1.26077
2.66376
3.12507
1.0049
1.01565
1.02817
1.04296
1.06103
1.08328
1.10737
1.24259
2.63554
3.11403
1.0049
1.01565
1.02817
1.04297
1.06102
1.08327
1.10764
1.22453
2.6077
3.10372
1.0049
1.01566
1.02817
1.04297
1.06101
1.08327
1.10793
1.20742
2.58023
3.09411
1.00489
1.01566
1.02816
1.04298
1.061
1.08328
1.10823
1.19221
2.55294
3.085
1.00489
1.01566
1.02816
1.04298
1.06099
1.0833
1.10853
1.17947
2.52542
3.0765
1.00489
1.01566
1.02816
1.04299
1.06098
1.08333
1.10887
1.16992
2.49667
3.06871
1.00489
1.01566
1.02816
1.04299
1.06097
1.08335
1.10924
1.16293
2.46777
3.06163
1.00489
1.01566
1.02816
1.043
1.06097
1.08337
1.10963
1.15821
2.43924
3.05519
1.00489
1.01566
1.02815
1.043
1.06097
1.08336
1.11003
1.15509
2.41163
3.04935
1.00489
1.01566
1.02815
1.04301
1.06098
1.08329
1.11047
1.15311
2.38559
3.04407
1.00489
1.01566
1.02815
1.04301
1.061
1.08318
1.11093
1.15191
2.36156
3.03923
1.00489
1.01566
1.02815
1.04301
1.06103
1.08302
1.1114
1.15121
2.33985
3.03489
1.00489
1.01566
1.02815
1.043
1.06106
1.08286
1.11187
1.15081
2.32062
3.0311
1.00489
1.01567
1.02815
1.043
1.0611
1.08269
1.11234
1.15058
2.30402
3.02786
1.00489
1.01567
1.02815
1.04299
1.06114
1.08255
1.11279
1.15043
2.29023
3.02505
1.00489
1.01567
1.02815
1.04298
1.06119
1.08243
1.11322
1.15031
2.2794
3.02243
1.00489
1.01567
1.02815
1.04297
1.06122
1.08233
1.11359
1.15019
2.27173
3.01994
1.00489
1.01567
1.02815
1.04297
1.06124
1.08227
1.11385
1.1501
2.2669
3.01754
1.00489
1.01567
1.02815
1.04296
1.06127
1.08221
1.11418
1.15004
2.26442
3.01608
1.00489
1.01567
1.02815
1.04296
1.06127
1.08221
1.11418
1.15004
2.26441
3.01608
1.00489
1.01567
1.02815
1.04297
1.06124
1.08227
1.11385
1.1501
2.2669
3.01754
1.00489
1.01567
1.02815
1.04297
1.06122
1.08233
1.11359
1.15019
2.27173
3.01994
1.00489
1.01567
1.02815
1.04298
1.06119
1.08243
1.11322
1.15031
2.2794
3.02243
1.00489
1.01567
1.02815
1.04299
1.06114
1.08255
1.11279
1.15043
2.29023
3.02505
1.00489
1.01567
1.02815
1.043
1.0611
1.08269
1.11234
1.15058
2.30402
3.02786
1.00489
1.01566
1.02815
1.043
1.06106
1.08286
1.11187
1.15081
2.32062
3.0311
1.00489
1.01566
1.02815
1.04301
1.06103
1.08302
1.1114
1.15121
2.33985
3.03489
1.00489
1.01566
1.02815
1.04301
1.061
1.08318
1.11093
1.15191
2.36156
3.03923
1.00489
1.01566
1.02815
1.04301
1.06098
1.08329
1.11047
1.15311
2.38559
3.04407
1.00489
1.01566
1.02815
1.043
1.06097
1.08336
1.11004
1.15509
2.41162
3.04935
1.00489
1.01566
1.02816
1.043
1.06097
1.08337
1.10963
1.15821
2.43924
3.0552
1.00489
1.01566
1.02816
1.04299
1.06097
1.08335
1.10924
1.16293
2.46777
3.06163
1.00489
1.01566
1.02816
1.04299
1.06098
1.08333
1.10887
1.16992
2.49667
3.06871
1.00489
1.01566
1.02816
1.04298
1.06099
1.0833
1.10853
1.17946
2.52542
3.0765
1.00489
1.01566
1.02816
1.04298
1.061
1.08328
1.10823
1.19221
2.55294
3.085
1.0049
1.01566
1.02817
1.04297
1.06101
1.08327
1.10793
1.20742
2.58023
3.09411
1.0049
1.01565
1.02817
1.04297
1.06102
1.08327
1.10764
1.22453
2.60771
3.10373
1.0049
1.01565
1.02817
1.04296
1.06103
1.08328
1.10737
1.24259
2.63554
3.11404
1.0049
1.01565
1.02817
1.04296
1.06104
1.08328
1.10713
1.26077
2.66376
3.12508
2.8978
2.88238
2.87223
2.85855
2.8434
2.82549
2.80486
2.78011
2.75117
2.71652
2.89821
2.88221
2.87168
2.85778
2.84246
2.82447
2.80376
2.77903
2.75003
2.71538
2.89854
2.88171
2.87078
2.85662
2.8411
2.82301
2.8022
2.77748
2.74838
2.71366
2.89872
2.88089
2.86938
2.85477
2.83886
2.82059
2.79962
2.77488
2.74568
2.71079
2.89916
2.88028
2.86803
2.85276
2.83629
2.81767
2.79644
2.77165
2.74228
2.70719
2.89997
2.88007
2.86715
2.85108
2.83381
2.81458
2.79288
2.76785
2.7382
2.7028
2.90149
2.88067
2.86712
2.85043
2.83236
2.81215
2.78949
2.76388
2.7337
2.69787
2.9039
2.88245
2.86824
2.85097
2.83223
2.81118
2.78713
2.76023
2.72903
2.6924
2.90728
2.88559
2.87092
2.85291
2.83342
2.81158
2.78627
2.75762
2.72456
2.68646
2.91164
2.89004
2.87515
2.85648
2.83609
2.8131
2.78651
2.75619
2.7206
2.68019
2.91701
2.89567
2.8807
2.86153
2.84021
2.81591
2.78768
2.75554
2.7173
2.67386
2.92352
2.90248
2.88743
2.86782
2.84572
2.82
2.78994
2.75565
2.71473
2.66795
2.93128
2.91052
2.89528
2.87518
2.85235
2.82528
2.79332
2.75669
2.71302
2.66281
2.94045
2.91994
2.90439
2.88365
2.86002
2.8316
2.79786
2.75884
2.71219
2.6584
2.9513
2.93097
2.91496
2.89342
2.86884
2.83893
2.80344
2.76193
2.71202
2.65438
2.96411
2.94383
2.92717
2.90468
2.87896
2.84732
2.80991
2.76557
2.71205
2.65003
2.9791
2.95872
2.94121
2.91758
2.89055
2.85686
2.81714
2.76939
2.71169
2.64437
2.99656
2.97592
2.9575
2.93252
2.90397
2.86778
2.82525
2.77338
2.71048
2.63681
3.0174
2.99609
2.97669
2.94999
2.91971
2.88062
2.83478
2.77774
2.70848
2.62695
3.04312
3.0202
2.99995
2.97107
2.9385
2.89568
2.84569
2.78233
2.70578
2.61479
)
;

boundaryField
{
    inlet
    {
        type            fixedValue;
        value           uniform 1;
    }
    outlet
    {
        type            zeroGradient;
    }
    triangle
    {
        type            zeroGradient;
    }
    top
    {
        type            symmetryPlane;
    }
    bottom
    {
        type            symmetryPlane;
    }
    defaultFaces
    {
        type            empty;
    }
}


// ************************************************************************* //
