/*--------------------------------*- C++ -*----------------------------------*\
  =========                 |
  \\      /  F ield         | OpenFOAM: The Open Source CFD Toolbox
   \\    /   O peration     | Website:  https://openfoam.org
    \\  /    A nd           | Version:  8
     \\/     M anipulation  |
\*---------------------------------------------------------------------------*/
FoamFile
{
    version     2.0;
    format      ascii;
    class       volScalarField;
    location    "2.2";
    object      rho;
}
// * * * * * * * * * * * * * * * * * * * * * * * * * * * * * * * * * * * * * //

dimensions      [1 -3 0 0 0 0 0];

internalField   nonuniform List<scalar> 
2600
(
0.985052
0.992337
1.06515
1.19686
1.37861
1.65101
1.79841
1.85365
1.82954
1.76854
0.960484
0.93298
1.00126
1.16649
1.37534
1.65397
1.79241
1.8408
1.81496
1.74312
0.951577
0.903956
0.953643
1.1276
1.36081
1.64615
1.7913
1.82703
1.81392
1.73249
0.948135
0.897364
0.922039
1.08801
1.33496
1.61426
1.76831
1.81126
1.81031
1.72965
0.944135
0.889074
0.902776
1.05086
1.29518
1.56055
1.69796
1.75259
1.7419
1.68434
0.943659
0.881969
0.895115
1.0158
1.23919
1.48983
1.634
1.6763
1.66506
1.61705
0.948195
0.877436
0.886793
0.990214
1.17793
1.40423
1.56174
1.62161
1.61248
1.56747
0.955972
0.879636
0.880292
0.972712
1.14044
1.35396
1.49563
1.55644
1.56035
1.51929
0.962153
0.886028
0.881406
0.977078
1.14403
1.34609
1.45922
1.515
1.55346
1.49142
0.966044
0.891058
0.888191
0.984299
1.15093
1.34093
1.44288
1.50392
1.53553
1.49178
0.966023
0.890877
0.888065
0.983844
1.14837
1.33972
1.46262
1.50182
1.50115
1.4908
0.962203
0.885703
0.880939
0.97652
1.14248
1.34463
1.48212
1.526
1.50828
1.50572
0.956106
0.879
0.879602
0.973105
1.14174
1.35254
1.49522
1.55229
1.55741
1.52055
0.948265
0.87672
0.885582
0.99089
1.18122
1.40838
1.54565
1.60682
1.61106
1.55534
0.943453
0.880936
0.892962
1.01548
1.24219
1.48126
1.62293
1.68455
1.69809
1.61858
0.943743
0.887842
0.901022
1.05221
1.29781
1.55106
1.71291
1.76289
1.76686
1.67452
0.947614
0.896285
0.921519
1.08941
1.33583
1.61889
1.76016
1.81682
1.78093
1.70625
0.951156
0.903466
0.953709
1.12735
1.36632
1.64554
1.78221
1.82874
1.79776
1.74295
0.960526
0.932408
1.00043
1.166
1.38215
1.64911
1.80429
1.83623
1.83147
1.77022
0.984399
0.991196
1.06405
1.19725
1.38445
1.64759
1.80834
1.84914
1.84748
1.77277
1.22329
1.07488
1.12712
1.21823
1.37835
1.63817
1.80244
1.85537
1.84842
1.76831
1.47238
1.15573
1.18391
1.23693
1.36715
1.61872
1.78662
1.85564
1.83708
1.76752
1.68966
1.2386
1.2285
1.25086
1.35072
1.59027
1.76859
1.84647
1.83095
1.77082
1.85392
1.34517
1.26869
1.26039
1.32975
1.55042
1.75324
1.83179
1.83137
1.77373
1.97958
1.45916
1.31647
1.26764
1.31514
1.50601
1.73557
1.82462
1.83327
1.77027
2.07426
1.55542
1.37201
1.28282
1.30895
1.46632
1.71085
1.81619
1.8295
1.76375
2.15069
1.63952
1.41914
1.30855
1.31452
1.43321
1.67756
1.80426
1.82118
1.75667
2.2125
1.7194
1.45747
1.33224
1.3171
1.40248
1.63803
1.78471
1.80938
1.75096
2.2619
1.79341
1.50558
1.35005
1.31917
1.37619
1.59567
1.75921
1.80088
1.74527
2.30373
1.85545
1.56272
1.37478
1.3192
1.35653
1.55138
1.73497
1.79436
1.73825
2.34044
1.90924
1.61365
1.41436
1.31965
1.34459
1.50665
1.71257
1.78702
1.72973
2.37293
1.959
1.65575
1.45671
1.32876
1.34171
1.46479
1.68867
1.77833
1.72064
2.40293
2.00575
1.69934
1.49142
1.34827
1.34207
1.42947
1.66022
1.76658
1.71198
2.43203
2.04915
1.74617
1.52607
1.36943
1.34575
1.40185
1.62653
1.75471
1.70399
2.46078
2.09133
1.79222
1.56656
1.39254
1.34912
1.38087
1.59063
1.74345
1.69532
2.488
2.1331
1.83596
1.60831
1.4238
1.35344
1.36661
1.55435
1.73145
1.68764
2.51266
2.17332
1.87913
1.64735
1.4598
1.36342
1.35776
1.51778
1.71543
1.6796
2.53428
2.2105
1.92085
1.68594
1.49373
1.37764
1.35332
1.48039
1.69303
1.67161
2.55306
2.24381
1.96003
1.72418
1.52781
1.39038
1.35375
1.4455
1.66417
1.66512
2.56915
2.27377
1.99636
1.76083
1.56249
1.40488
1.35587
1.4144
1.63331
1.65884
3.7921
3.66577
3.57877
3.49313
3.40896
3.32584
3.23449
3.13133
2.97984
2.78681
3.6333
3.51198
3.4555
3.39166
3.32717
3.25532
3.17038
3.06354
2.90603
2.67412
3.59122
3.50385
3.45814
3.39805
3.33766
3.26852
3.18441
3.07536
2.91577
2.69696
3.5297
3.46314
3.42585
3.37202
3.31818
3.25096
3.16797
3.05796
2.90094
2.68216
3.47509
3.42287
3.39296
3.3438
3.29355
3.22802
3.14785
3.03929
2.8878
2.66939
3.42522
3.38314
3.35666
3.31112
3.26492
3.20179
3.12515
3.01886
2.8742
2.66033
3.37899
3.34424
3.3204
3.27825
3.23535
3.17403
3.10073
2.99709
2.85952
2.65825
3.32393
3.29649
3.27596
3.23929
3.20074
3.14257
3.07331
2.97321
2.84383
2.65847
3.2702
3.25
3.23365
3.20187
3.1664
3.11093
3.04528
2.94937
2.82875
2.65906
3.22909
3.21355
3.19898
3.16913
3.13497
3.08163
3.01906
2.92843
2.81586
2.66141
3.20482
3.1886
3.1727
3.14321
3.10952
3.05786
2.99783
2.91157
2.80676
2.66574
3.19223
3.17253
3.15484
3.12534
3.09159
3.04124
2.98308
2.90077
2.80215
2.6728
3.18261
3.16046
3.14188
3.11295
3.07966
3.03114
2.97517
2.89674
2.80278
2.68312
3.17185
3.14809
3.12901
3.10082
3.0686
3.02284
2.96992
2.89608
2.80757
2.69618
3.15962
3.1348
3.11541
3.08789
3.0568
3.0137
2.96402
2.89539
2.81311
2.70952
3.14599
3.12056
3.10112
3.07426
3.04433
3.0037
2.95702
2.89317
2.81683
2.72095
3.13107
3.10579
3.08681
3.06088
3.03219
2.99378
2.94964
2.89006
2.8188
2.73006
3.11483
3.09076
3.07275
3.04803
3.02074
2.98444
2.94251
2.88679
2.81984
2.73744
3.09759
3.07594
3.0594
3.03623
3.01056
2.97635
2.93648
2.88413
2.82093
2.7437
3.07907
3.06075
3.04611
3.02474
3.00075
2.96858
2.9308
2.88163
2.82192
2.74924
1.40491
1.41561
1.42813
1.4426
1.46084
1.48217
1.50552
1.7503
2.98166
3.33477
1.40491
1.41561
1.42813
1.4426
1.46084
1.48217
1.50553
1.74971
2.97893
3.32859
1.40491
1.41561
1.42812
1.44261
1.46082
1.48218
1.50554
1.74861
2.97329
3.32121
1.40491
1.41561
1.42812
1.44261
1.4608
1.48219
1.50555
1.74699
2.96443
3.31177
1.40491
1.41561
1.42812
1.44262
1.46078
1.48221
1.50556
1.74488
2.95404
3.3002
1.4049
1.41561
1.42812
1.44262
1.46076
1.48223
1.50556
1.74244
2.94325
3.28397
1.4049
1.41561
1.42811
1.44263
1.46073
1.48224
1.50555
1.73962
2.93167
3.26442
1.4049
1.41561
1.42811
1.44264
1.46071
1.48226
1.50554
1.73634
2.92089
3.24519
1.4049
1.41561
1.4281
1.44264
1.46068
1.48228
1.50551
1.73252
2.9116
3.22859
1.4049
1.41561
1.4281
1.44265
1.46066
1.48229
1.50547
1.72811
2.90235
3.21434
1.4049
1.41561
1.4281
1.44266
1.46064
1.4823
1.50543
1.72311
2.89202
3.20319
1.4049
1.41562
1.42809
1.44266
1.46062
1.48231
1.50538
1.71754
2.87983
3.19387
1.4049
1.41562
1.42809
1.44267
1.46061
1.48232
1.50534
1.71151
2.86621
3.18532
1.4049
1.41562
1.42809
1.44268
1.4606
1.48233
1.50531
1.70516
2.85181
3.17631
1.4049
1.41562
1.42808
1.44268
1.46059
1.48233
1.50529
1.69865
2.83734
3.16672
1.4049
1.41562
1.42808
1.44269
1.46058
1.48234
1.50529
1.69209
2.823
3.15665
1.4049
1.41562
1.42808
1.44269
1.46057
1.48234
1.50531
1.68499
2.80918
3.14689
1.4049
1.41562
1.42808
1.4427
1.46056
1.48233
1.50536
1.67699
2.79595
3.13816
1.4049
1.41562
1.42807
1.4427
1.46055
1.48233
1.50543
1.66829
2.78283
3.13041
1.4049
1.41562
1.42807
1.44271
1.46055
1.48233
1.50552
1.65891
2.76992
3.12427
1.4049
1.41562
1.42807
1.44271
1.46055
1.48233
1.50552
1.65891
2.76992
3.12427
1.4049
1.41562
1.42807
1.4427
1.46055
1.48233
1.50543
1.66829
2.78283
3.13041
1.4049
1.41562
1.42808
1.4427
1.46056
1.48233
1.50536
1.67699
2.79595
3.13816
1.4049
1.41562
1.42808
1.44269
1.46057
1.48234
1.50531
1.68499
2.80918
3.14689
1.4049
1.41562
1.42808
1.44269
1.46058
1.48234
1.50529
1.69209
2.823
3.15665
1.4049
1.41562
1.42808
1.44268
1.46059
1.48233
1.50529
1.69865
2.83734
3.16672
1.4049
1.41562
1.42809
1.44268
1.4606
1.48233
1.50531
1.70516
2.85181
3.17631
1.4049
1.41562
1.42809
1.44267
1.46061
1.48232
1.50534
1.71151
2.86621
3.18531
1.4049
1.41562
1.42809
1.44266
1.46062
1.48231
1.50538
1.71754
2.87983
3.19386
1.4049
1.41561
1.4281
1.44266
1.46064
1.4823
1.50543
1.72311
2.89202
3.20319
1.4049
1.41561
1.4281
1.44265
1.46066
1.48229
1.50547
1.72811
2.90235
3.21434
1.4049
1.41561
1.4281
1.44264
1.46068
1.48228
1.50551
1.73252
2.9116
3.22859
1.4049
1.41561
1.42811
1.44264
1.46071
1.48226
1.50554
1.73634
2.92089
3.24519
1.4049
1.41561
1.42811
1.44263
1.46073
1.48224
1.50555
1.73962
2.93167
3.26442
1.4049
1.41561
1.42812
1.44262
1.46076
1.48223
1.50556
1.74244
2.94325
3.28396
1.40491
1.41561
1.42812
1.44262
1.46078
1.48221
1.50556
1.74488
2.95404
3.3002
1.40491
1.41561
1.42812
1.44261
1.4608
1.48219
1.50555
1.74699
2.96443
3.31177
1.40491
1.41561
1.42812
1.44261
1.46082
1.48218
1.50554
1.74861
2.97329
3.32121
1.40491
1.41561
1.42813
1.4426
1.46084
1.48217
1.50553
1.74972
2.97893
3.32859
1.40491
1.41561
1.42813
1.4426
1.46084
1.48217
1.50552
1.7503
2.98166
3.33477
3.07905
3.06073
3.04609
3.02473
3.00074
2.96857
2.93079
2.88163
2.82192
2.74925
3.09758
3.07593
3.05939
3.03623
3.01055
2.97634
2.93648
2.88412
2.82094
2.74371
3.11482
3.09075
3.07274
3.04802
3.02074
2.98443
2.94251
2.88678
2.81984
2.73746
3.13106
3.10579
3.08681
3.06087
3.03219
2.99378
2.94964
2.89006
2.81881
2.73008
3.14599
3.12056
3.10111
3.07426
3.04433
3.0037
2.95702
2.89318
2.81684
2.72097
3.15961
3.13479
3.11541
3.08789
3.0568
3.01371
2.96403
2.89541
2.81312
2.70955
3.17185
3.14809
3.129
3.10082
3.0686
3.02284
2.96993
2.8961
2.80759
2.69621
3.1826
3.16046
3.14188
3.11295
3.07966
3.03115
2.97519
2.89676
2.80281
2.68317
3.19222
3.17253
3.15484
3.12534
3.09159
3.04125
2.9831
2.9008
2.80218
2.67286
3.20482
3.1886
3.17271
3.14321
3.10953
3.05787
2.99785
2.9116
2.8068
2.66579
3.22909
3.21355
3.19898
3.16913
3.13498
3.08164
3.01908
2.92846
2.81592
2.66144
3.2702
3.25
3.23365
3.20188
3.1664
3.11094
3.0453
2.9494
2.8288
2.6591
3.32393
3.29649
3.27597
3.23929
3.20074
3.14258
3.07333
2.97324
2.84387
2.65854
3.37899
3.34424
3.3204
3.27825
3.23536
3.17405
3.10075
2.99712
2.85955
2.65835
3.42522
3.38314
3.35666
3.31112
3.26493
3.2018
3.12517
3.01889
2.87423
2.66045
3.47508
3.42287
3.39296
3.3438
3.29356
3.22803
3.14786
3.03932
2.88784
2.66945
3.5297
3.46314
3.42585
3.37202
3.31818
3.25097
3.16798
3.05798
2.90098
2.68217
3.59122
3.50385
3.45814
3.39805
3.33766
3.26853
3.18442
3.07538
2.91579
2.69697
3.6333
3.51197
3.4555
3.39166
3.32717
3.25533
3.17039
3.06356
2.90605
2.67412
3.7921
3.66577
3.57877
3.49313
3.40896
3.32584
3.2345
3.13134
2.97986
2.78683
2.56918
2.27385
1.99644
1.76076
1.56218
1.40491
1.35629
1.41566
1.63523
1.65891
2.55308
2.24386
1.96011
1.7241
1.52753
1.39051
1.35411
1.44633
1.66518
1.66487
2.53429
2.21051
1.92088
1.68587
1.49358
1.37767
1.35351
1.48051
1.69298
1.67158
2.51268
2.17327
1.8791
1.64737
1.45944
1.36335
1.35819
1.5185
1.71562
1.68008
2.48803
2.13304
1.83594
1.60824
1.42334
1.35364
1.36717
1.55638
1.73228
1.68818
2.46084
2.0913
1.79214
1.56642
1.39224
1.34934
1.3814
1.59227
1.74443
1.69546
2.43212
2.04915
1.74602
1.52615
1.36927
1.34585
1.40227
1.62656
1.7551
1.70335
2.40302
2.00576
1.69926
1.49172
1.34804
1.34198
1.43058
1.65956
1.76565
1.71258
2.37298
1.95902
1.65583
1.45705
1.32832
1.34141
1.46673
1.68971
1.77714
1.72206
2.34042
1.90925
1.61371
1.41476
1.31902
1.34436
1.50783
1.715
1.78728
1.73093
2.30363
1.85521
1.56273
1.37555
1.31852
1.35618
1.55119
1.73695
1.79493
1.7367
2.26184
1.79279
1.50597
1.35102
1.31841
1.37543
1.59705
1.75803
1.80179
1.74351
2.21254
1.71859
1.45858
1.3329
1.3159
1.40099
1.64294
1.7805
1.80967
1.75109
2.15088
1.63893
1.42022
1.3085
1.31314
1.43145
1.68154
1.8021
1.81956
1.76086
2.07455
1.55508
1.37293
1.28227
1.30793
1.46563
1.70981
1.81807
1.82658
1.76621
1.97985
1.45867
1.31764
1.26732
1.31346
1.50619
1.73148
1.82739
1.83029
1.76487
1.85404
1.34465
1.27059
1.2603
1.32661
1.54985
1.75319
1.83357
1.83149
1.76507
1.68975
1.23808
1.23047
1.25118
1.34654
1.58724
1.77716
1.84026
1.836
1.76943
1.47279
1.15561
1.18485
1.23757
1.36268
1.61568
1.793
1.8519
1.84318
1.77936
1.22398
1.07562
1.12776
1.21841
1.37327
1.63695
1.7997
1.85645
1.84278
1.78102
2.76672
2.65065
2.50266
2.33919
2.15593
1.95925
1.75486
1.56582
1.34086
1.09007
2.76568
2.64967
2.50007
2.33549
2.15222
1.95569
1.75202
1.5625
1.3378
1.09167
2.76403
2.64753
2.49657
2.33043
2.14626
1.94985
1.74724
1.55693
1.33284
1.0946
2.76138
2.64377
2.49193
2.32305
2.13777
1.94151
1.74038
1.54875
1.32648
1.09943
2.75786
2.63869
2.48578
2.31387
2.12705
1.93093
1.73163
1.53808
1.31879
1.10691
2.75354
2.63222
2.47787
2.30289
2.1143
1.91829
1.72071
1.52426
1.31052
1.11724
2.74848
2.62411
2.46775
2.28975
2.09927
1.90336
1.70749
1.50721
1.30256
1.13081
2.7425
2.61409
2.45538
2.27436
2.0819
1.88622
1.69149
1.48685
1.2962
1.14849
2.73554
2.60218
2.44026
2.25623
2.0617
1.86632
1.6725
1.46286
1.29167
1.17127
2.7275
2.58819
2.42202
2.23479
2.03854
1.8437
1.6498
1.43645
1.28633
1.20165
2.71845
2.57211
2.40051
2.21002
2.01217
1.81808
1.62319
1.40904
1.27727
1.24325
2.70869
2.55397
2.37586
2.18161
1.98265
1.78949
1.59281
1.38253
1.26782
1.29256
2.69853
2.53388
2.34785
2.14974
1.95002
1.75758
1.55834
1.36095
1.26498
1.34379
2.6881
2.51197
2.31703
2.11431
1.91403
1.7222
1.52153
1.34674
1.27042
1.3977
2.67725
2.4882
2.28314
2.07527
1.87462
1.68317
1.48277
1.34022
1.29108
1.45054
2.6654
2.46222
2.24604
2.0325
1.83154
1.63915
1.44856
1.33679
1.3265
1.50243
2.65167
2.43334
2.20541
1.98546
1.78437
1.59101
1.41815
1.33415
1.37612
1.55085
2.63502
2.40022
2.15967
1.93414
1.73193
1.53915
1.39977
1.33492
1.4412
1.59029
2.61473
2.36098
2.10779
1.87659
1.67499
1.48618
1.38046
1.34978
1.51333
1.62073
2.5901
2.31396
2.04715
1.81295
1.61264
1.43656
1.36374
1.3806
1.58497
1.64518
2.59008
2.3139
2.0471
1.81305
1.61282
1.43663
1.36372
1.37998
1.58349
1.6445
2.61471
2.36096
2.10779
1.87658
1.67514
1.48634
1.38042
1.34967
1.51288
1.62066
2.63501
2.4002
2.15963
1.93413
1.73199
1.53928
1.39978
1.33488
1.44138
1.59015
2.65167
2.43333
2.20536
1.98545
1.78442
1.59113
1.41814
1.33417
1.3767
1.55125
2.6654
2.4622
2.24601
2.03248
1.8316
1.63921
1.44845
1.33681
1.32707
1.50284
2.67725
2.48819
2.28313
2.07526
1.8746
1.68316
1.48276
1.34031
1.2914
1.45118
2.68811
2.51198
2.31703
2.11429
1.91402
1.72215
1.52144
1.34678
1.27056
1.39805
2.69854
2.53389
2.34785
2.14972
1.95
1.75755
1.55827
1.36095
1.26503
1.34401
2.7087
2.55398
2.37586
2.1816
1.98265
1.78946
1.59275
1.38252
1.26786
1.29261
2.71846
2.57212
2.40053
2.21002
2.01217
1.81808
1.62314
1.409
1.27728
1.24325
2.72751
2.58821
2.42203
2.2348
2.03854
1.8437
1.64977
1.43641
1.28632
1.20162
2.73554
2.60219
2.44027
2.25625
2.06171
1.86633
1.67248
1.46283
1.29165
1.17124
2.7425
2.6141
2.45539
2.27437
2.08191
1.88623
1.69148
1.48682
1.29617
1.14847
2.74848
2.62411
2.46776
2.28976
2.09929
1.90337
1.70749
1.50719
1.30253
1.13081
2.75354
2.63222
2.47787
2.3029
2.11431
1.9183
1.72072
1.52425
1.31049
1.11725
2.75786
2.63869
2.48579
2.31388
2.12706
1.93094
1.73165
1.53808
1.31878
1.10692
2.76137
2.64377
2.49193
2.32305
2.13778
1.94152
1.7404
1.54876
1.32648
1.09943
2.76403
2.64752
2.49657
2.33043
2.14627
1.94986
1.74725
1.55694
1.33286
1.09459
2.76567
2.64967
2.50007
2.33549
2.15223
1.9557
1.75203
1.56251
1.33783
1.09166
2.76672
2.65064
2.50266
2.33919
2.15593
1.95925
1.75487
1.56583
1.34089
1.09006
3.05986
3.04422
3.03081
3.01126
2.98901
2.95925
2.92409
2.8789
2.82354
2.75681
3.04188
3.02737
3.01453
2.99648
2.97584
2.94874
2.91658
2.876
2.82608
2.76643
3.02728
3.0132
3.00101
2.98415
2.96469
2.93962
2.90983
2.87299
2.82776
2.774
3.01505
3.00112
2.98953
2.97357
2.95514
2.9318
2.90397
2.8701
2.82863
2.77961
3.00467
2.99075
2.97972
2.96451
2.94695
2.92502
2.89879
2.86732
2.82886
2.78374
2.99588
2.98188
2.97127
2.95669
2.93988
2.91914
2.89423
2.86476
2.82889
2.78696
2.98835
2.97419
2.96389
2.94986
2.9337
2.914
2.89031
2.86263
2.8291
2.79
2.98168
2.96734
2.95727
2.9437
2.92812
2.90939
2.88702
2.86106
2.82973
2.7933
2.97564
2.9611
2.9512
2.93801
2.92299
2.90528
2.88431
2.86008
2.83084
2.79701
2.97026
2.95551
2.94569
2.93285
2.91844
2.9018
2.88218
2.85962
2.8324
2.80113
2.96565
2.95071
2.94097
2.92852
2.9148
2.89913
2.88076
2.85961
2.83443
2.8055
2.96186
2.94686
2.93729
2.92533
2.91225
2.89745
2.88011
2.86022
2.83698
2.80983
2.95894
2.94412
2.93488
2.92345
2.91097
2.8968
2.88041
2.86183
2.83999
2.81399
2.95687
2.94249
2.93375
2.92277
2.91082
2.89728
2.88189
2.86429
2.84324
2.81789
2.95554
2.94183
2.93357
2.92307
2.91168
2.89886
2.88422
2.86708
2.84647
2.8215
2.95477
2.94184
2.93406
2.92413
2.91335
2.901
2.88673
2.8698
2.84944
2.82474
2.95431
2.94214
2.93491
2.92548
2.91512
2.90305
2.88899
2.87214
2.85192
2.82741
2.95408
2.94263
2.93584
2.92674
2.91668
2.90475
2.89083
2.874
2.8539
2.82955
2.95377
2.94294
2.93644
2.92754
2.91763
2.90578
2.89194
2.87512
2.8551
2.83082
2.95344
2.94305
2.93683
2.92809
2.91831
2.90652
2.89274
2.87591
2.85594
2.83167
1.4049
1.41563
1.42807
1.44271
1.46054
1.48232
1.50568
1.64631
2.75401
3.11756
1.4049
1.41563
1.42807
1.44272
1.46053
1.48232
1.50591
1.63054
2.7351
3.11024
1.4049
1.41563
1.42806
1.44272
1.46052
1.48232
1.50617
1.61468
2.7166
3.10334
1.4049
1.41563
1.42806
1.44273
1.46051
1.48232
1.50645
1.59962
2.69849
3.0969
1.4049
1.41563
1.42806
1.44273
1.4605
1.48233
1.50672
1.58629
2.68065
3.09089
1.4049
1.41563
1.42806
1.44274
1.46049
1.48235
1.50699
1.57514
2.66242
3.08535
1.4049
1.41563
1.42806
1.44274
1.46048
1.48238
1.50729
1.56642
2.64227
3.08012
1.4049
1.41563
1.42806
1.44275
1.46047
1.48241
1.50763
1.55978
2.62092
3.07502
1.4049
1.41563
1.42805
1.44275
1.46047
1.48243
1.50799
1.55519
2.59923
3.06996
1.4049
1.41563
1.42805
1.44276
1.46047
1.48242
1.50839
1.55215
2.5781
3.06508
1.4049
1.41563
1.42805
1.44276
1.46048
1.48236
1.50881
1.55022
2.55831
3.06054
1.4049
1.41564
1.42805
1.44276
1.46049
1.48225
1.50925
1.54904
2.54022
3.05642
1.40489
1.41564
1.42805
1.44276
1.46052
1.4821
1.50971
1.54835
2.52399
3.05283
1.40489
1.41564
1.42805
1.44276
1.46055
1.48193
1.51017
1.54796
2.50964
3.04978
1.40489
1.41564
1.42805
1.44275
1.46059
1.48177
1.51062
1.54773
2.49719
3.04721
1.40489
1.41564
1.42805
1.44274
1.46064
1.48163
1.51106
1.54758
2.4868
3.04501
1.40489
1.41564
1.42805
1.44274
1.46068
1.48151
1.51147
1.54745
2.4786
3.04299
1.40489
1.41564
1.42805
1.44273
1.46071
1.48142
1.51183
1.54733
2.47279
3.04109
1.40489
1.41564
1.42805
1.44272
1.46073
1.48137
1.51208
1.54723
2.4691
3.0393
1.40489
1.41564
1.42805
1.44272
1.46076
1.48131
1.51239
1.54718
2.46716
3.03823
1.40489
1.41564
1.42805
1.44272
1.46076
1.48131
1.51239
1.54718
2.46716
3.03823
1.40489
1.41564
1.42805
1.44272
1.46073
1.48137
1.51208
1.54723
2.46909
3.0393
1.40489
1.41564
1.42805
1.44273
1.46071
1.48142
1.51183
1.54733
2.47278
3.04109
1.40489
1.41564
1.42805
1.44274
1.46068
1.48151
1.51147
1.54745
2.4786
3.04299
1.40489
1.41564
1.42805
1.44274
1.46064
1.48163
1.51106
1.54758
2.4868
3.04501
1.40489
1.41564
1.42805
1.44275
1.46059
1.48177
1.51062
1.54773
2.49719
3.04721
1.40489
1.41564
1.42805
1.44276
1.46055
1.48193
1.51017
1.54796
2.50964
3.04978
1.40489
1.41564
1.42805
1.44276
1.46052
1.4821
1.50971
1.54835
2.52399
3.05283
1.4049
1.41564
1.42805
1.44276
1.46049
1.48225
1.50925
1.54904
2.54022
3.05642
1.4049
1.41563
1.42805
1.44276
1.46048
1.48236
1.50881
1.55022
2.55831
3.06054
1.4049
1.41563
1.42805
1.44276
1.46047
1.48242
1.50839
1.55215
2.5781
3.06508
1.4049
1.41563
1.42805
1.44275
1.46047
1.48243
1.50799
1.55519
2.59923
3.06996
1.4049
1.41563
1.42806
1.44275
1.46047
1.48241
1.50763
1.55978
2.62092
3.07502
1.4049
1.41563
1.42806
1.44274
1.46048
1.48238
1.50729
1.56642
2.64227
3.08012
1.4049
1.41563
1.42806
1.44274
1.46049
1.48235
1.50699
1.57514
2.66242
3.08535
1.4049
1.41563
1.42806
1.44273
1.4605
1.48233
1.50672
1.58629
2.68065
3.09089
1.4049
1.41563
1.42806
1.44273
1.46051
1.48232
1.50645
1.59962
2.69849
3.0969
1.4049
1.41563
1.42806
1.44272
1.46052
1.48232
1.50617
1.61468
2.7166
3.10334
1.4049
1.41563
1.42807
1.44272
1.46053
1.48232
1.50591
1.63054
2.73511
3.11025
1.4049
1.41563
1.42807
1.44271
1.46054
1.48232
1.50568
1.64631
2.75401
3.11756
2.95344
2.94305
2.93683
2.92808
2.91831
2.90652
2.89275
2.87592
2.85595
2.83167
2.95376
2.94294
2.93644
2.92754
2.91763
2.90578
2.89194
2.87513
2.8551
2.83083
2.95407
2.94263
2.93584
2.92674
2.91668
2.90476
2.89083
2.874
2.8539
2.82955
2.95431
2.94214
2.93491
2.92548
2.91512
2.90305
2.88899
2.87214
2.85193
2.82742
2.95477
2.94184
2.93406
2.92413
2.91335
2.901
2.88673
2.8698
2.84944
2.82474
2.95554
2.94183
2.93357
2.92307
2.91168
2.89886
2.88422
2.86708
2.84647
2.82149
2.95687
2.94249
2.93375
2.92277
2.91082
2.89728
2.88189
2.86429
2.84324
2.81789
2.95894
2.94412
2.93488
2.92345
2.91097
2.8968
2.88041
2.86183
2.83998
2.81399
2.96186
2.94687
2.9373
2.92533
2.91225
2.89745
2.88011
2.86022
2.83698
2.80983
2.96565
2.95072
2.94098
2.92852
2.9148
2.89913
2.88076
2.85961
2.83443
2.80549
2.97026
2.95551
2.94569
2.93285
2.91844
2.9018
2.88219
2.85962
2.8324
2.80113
2.97564
2.96111
2.9512
2.93801
2.92299
2.90528
2.88431
2.86008
2.83084
2.79701
2.98168
2.96734
2.95727
2.9437
2.92812
2.9094
2.88702
2.86106
2.82973
2.7933
2.98835
2.97419
2.96389
2.94986
2.9337
2.914
2.89031
2.86263
2.8291
2.78999
2.99588
2.98188
2.97127
2.95669
2.93988
2.91914
2.89423
2.86475
2.82888
2.78695
3.00467
2.99075
2.97972
2.96451
2.94694
2.92502
2.89878
2.86731
2.82885
2.78373
3.01505
3.00112
2.98953
2.97357
2.95513
2.9318
2.90396
2.87009
2.82862
2.7796
3.02727
3.0132
3.00101
2.98414
2.96468
2.93961
2.90982
2.87298
2.82775
2.774
3.04188
3.02736
3.01452
2.99647
2.97583
2.94873
2.91657
2.87599
2.82607
2.76643
3.05986
3.04421
3.0308
3.01125
2.989
2.95924
2.92409
2.87889
2.82353
2.75681
)
;

boundaryField
{
    inlet
    {
        type            calculated;
        value           uniform 1.40001;
    }
    outlet
    {
        type            calculated;
        value           nonuniform List<scalar> 
100
(
1.64468
1.62082
1.59026
1.55133
1.50292
1.45125
1.39811
1.34405
1.29263
1.24327
1.20163
1.17124
1.14846
1.13079
1.11722
1.10688
1.09939
1.09456
1.09163
1.09003
1.76875
1.76763
1.77049
1.77379
1.77047
1.76406
1.7569
1.75109
1.74533
1.73838
1.72994
1.72089
1.71223
1.70416
1.69549
1.68783
1.67982
1.67182
1.6653
1.659
1.76748
1.74267
1.7333
1.73076
1.68384
1.61698
1.56759
1.5194
1.49113
1.49162
1.49115
1.5062
1.52042
1.55534
1.61843
1.67507
1.70645
1.74191
1.77039
1.77338
1.65906
1.66503
1.6718
1.68032
1.68836
1.6956
1.70353
1.71284
1.72233
1.73108
1.73675
1.74369
1.7514
1.76113
1.76627
1.76455
1.76523
1.7699
1.77991
1.78112
1.09003
1.09163
1.09456
1.0994
1.10688
1.11721
1.13079
1.14848
1.17128
1.20166
1.24326
1.29258
1.34382
1.39775
1.45061
1.50251
1.55093
1.5904
1.6209
1.64537
)
;
    }
    triangle
    {
        type            calculated;
        value           nonuniform List<scalar> 
40
(
3.7921
3.66577
3.57877
3.49313
3.40896
3.32584
3.23449
3.13133
2.97984
2.78681
0.985052
0.960484
0.951577
0.948135
0.944135
0.943659
0.948195
0.955972
0.962153
0.966044
0.966023
0.962203
0.956106
0.948265
0.943453
0.943743
0.947614
0.951156
0.960526
0.984399
3.7921
3.66577
3.57877
3.49313
3.40896
3.32584
3.2345
3.13134
2.97986
2.78683
)
;
    }
    top
    {
        type            symmetryPlane;
    }
    bottom
    {
        type            symmetryPlane;
    }
    defaultFaces
    {
        type            empty;
    }
}


// ************************************************************************* //
