/*--------------------------------*- C++ -*----------------------------------*\
  =========                 |
  \\      /  F ield         | OpenFOAM: The Open Source CFD Toolbox
   \\    /   O peration     | Website:  https://openfoam.org
    \\  /    A nd           | Version:  8
     \\/     M anipulation  |
\*---------------------------------------------------------------------------*/
FoamFile
{
    version     2.0;
    format      ascii;
    class       volVectorField;
    location    "2.2";
    object      U;
}
// * * * * * * * * * * * * * * * * * * * * * * * * * * * * * * * * * * * * * //

dimensions      [0 1 -1 0 0 0 0];

internalField   nonuniform List<vector> 
2600
(
(0.696121 0.0523778 0)
(1.21779 0.15703 0)
(1.48859 0.276017 0)
(1.57309 0.319635 0)
(1.5621 0.27032 0)
(1.44177 0.161721 0)
(1.39696 0.0923602 0)
(1.36788 0.0516476 0)
(1.37744 0.0285855 0)
(1.38939 -0.00624206 0)
(0.238144 -0.112007 0)
(0.840165 0.10911 0)
(1.32212 0.255222 0)
(1.51643 0.298752 0)
(1.5467 0.246089 0)
(1.44086 0.147062 0)
(1.39416 0.0915565 0)
(1.3691 0.0544031 0)
(1.3785 0.0344716 0)
(1.38961 0.00558842 0)
(0.0274046 -0.116075 0)
(0.452629 0.0421339 0)
(1.04723 0.195092 0)
(1.40368 0.263514 0)
(1.50572 0.231232 0)
(1.42767 0.136173 0)
(1.38764 0.0792676 0)
(1.36676 0.0551786 0)
(1.37268 0.0253227 0)
(1.38079 0.00471022 0)
(-0.055153 -0.146383 0)
(0.171898 -0.00477735 0)
(0.711685 0.120575 0)
(1.20423 0.222563 0)
(1.4194 0.210071 0)
(1.39241 0.127416 0)
(1.36547 0.0651596 0)
(1.35376 0.0419119 0)
(1.35545 0.005958 0)
(1.35555 -0.0116709 0)
(-0.105069 -0.142874 0)
(-0.00994178 -0.0468129 0)
(0.376743 0.0583789 0)
(0.914245 0.153858 0)
(1.25436 0.179329 0)
(1.30603 0.118556 0)
(1.30216 0.0809385 0)
(1.30661 0.0471288 0)
(1.30717 0.022784 0)
(1.29647 -0.00987345 0)
(-0.143192 -0.132828 0)
(-0.146559 -0.0530409 0)
(0.0711355 0.0294476 0)
(0.543819 0.117925 0)
(0.977906 0.143782 0)
(1.12356 0.0942934 0)
(1.15399 0.060369 0)
(1.19007 0.0507017 0)
(1.20921 0.0475623 0)
(1.19375 0.00712564 0)
(-0.173851 -0.109164 0)
(-0.258447 -0.0517971 0)
(-0.189088 0.00151126 0)
(0.140062 0.0671784 0)
(0.584851 0.106951 0)
(0.816255 0.0800105 0)
(0.905169 0.0488452 0)
(0.988125 0.041759 0)
(1.05238 0.0150515 0)
(1.05436 0.00513638 0)
(-0.19755 -0.079002 0)
(-0.350864 -0.0394835 0)
(-0.382859 -0.00818832 0)
(-0.212984 0.0210491 0)
(0.163689 0.0540069 0)
(0.450114 0.0678515 0)
(0.614304 0.0530304 0)
(0.755464 0.0192291 0)
(0.87372 -0.000162884 0)
(0.923901 0.00180533 0)
(-0.209687 -0.0454033 0)
(-0.412635 -0.0280966 0)
(-0.490472 -0.0102028 0)
(-0.424591 0.00523486 0)
(-0.128456 0.0401902 0)
(0.174172 0.0593084 0)
(0.394657 0.0429691 0)
(0.58367 0.0221895 0)
(0.746199 0.0182515 0)
(0.842674 1.19839e-06 0)
(-0.220535 -0.014377 0)
(-0.436998 -0.00834548 0)
(-0.525098 -0.00242691 0)
(-0.492254 0.00222461 0)
(-0.238503 0.0179091 0)
(0.0616734 0.0248765 0)
(0.311711 0.0180529 0)
(0.522022 0.0233048 0)
(0.697529 0.0168306 0)
(0.816073 0.00837616 0)
(-0.220297 0.0155532 0)
(-0.436838 0.0101893 0)
(-0.525195 0.00199178 0)
(-0.492577 -0.00827814 0)
(-0.24049 -0.0199116 0)
(0.0590299 -0.0216393 0)
(0.311895 -0.0168183 0)
(0.523979 -0.000350687 0)
(0.69874 -0.00144063 0)
(0.815574 0.00391897 0)
(-0.209312 0.0461785 0)
(-0.412274 0.0288949 0)
(-0.490158 0.00952272 0)
(-0.425455 -0.0129742 0)
(-0.138043 -0.0456277 0)
(0.160792 -0.0505458 0)
(0.399487 -0.04266 0)
(0.593084 -0.0357399 0)
(0.747133 -0.0103438 0)
(0.84108 -0.00777726 0)
(-0.197416 0.0795036 0)
(-0.350395 0.0393622 0)
(-0.381309 0.00646343 0)
(-0.213304 -0.0267311 0)
(0.146099 -0.0515439 0)
(0.427245 -0.0457987 0)
(0.622044 -0.0407343 0)
(0.770378 -0.0457049 0)
(0.873933 -0.0465197 0)
(0.922048 -0.00808409 0)
(-0.173742 0.109573 0)
(-0.257986 0.0517065 0)
(-0.186116 -0.00488667 0)
(0.141006 -0.0762241 0)
(0.563896 -0.112231 0)
(0.793044 -0.0741179 0)
(0.919146 -0.0568084 0)
(1.00351 -0.0401598 0)
(1.04776 -0.027816 0)
(1.05286 4.80659e-05 0)
(-0.14311 0.133447 0)
(-0.146054 0.0532814 0)
(0.0748874 -0.0309217 0)
(0.547146 -0.119713 0)
(0.961715 -0.135679 0)
(1.10914 -0.0937198 0)
(1.16612 -0.0733181 0)
(1.19849 -0.0497454 0)
(1.20299 -0.00981225 0)
(1.19116 -0.00111659 0)
(-0.105083 0.143807 0)
(-0.00937162 0.0480783 0)
(0.380565 -0.0591437 0)
(0.917213 -0.155863 0)
(1.24261 -0.178393 0)
(1.30248 -0.118806 0)
(1.30727 -0.0654458 0)
(1.30848 -0.0437263 0)
(1.30572 -0.0111799 0)
(1.29433 0.00499442 0)
(-0.0552647 0.147049 0)
(0.172434 0.0052833 0)
(0.715333 -0.121709 0)
(1.20603 -0.22314 0)
(1.41139 -0.208415 0)
(1.39386 -0.114506 0)
(1.36967 -0.0811425 0)
(1.35255 -0.0402834 0)
(1.35405 -0.0355411 0)
(1.35405 -0.00697881 0)
(0.0272855 0.116523 0)
(0.453588 -0.0419226 0)
(1.04999 -0.196885 0)
(1.40419 -0.266945 0)
(1.49988 -0.224949 0)
(1.43006 -0.132877 0)
(1.3925 -0.0897788 0)
(1.36511 -0.056041 0)
(1.37143 -0.0374945 0)
(1.3793 0.00509515 0)
(0.237945 0.111235 0)
(0.840979 -0.110549 0)
(1.32386 -0.258148 0)
(1.51676 -0.30073 0)
(1.54222 -0.239972 0)
(1.44462 -0.146652 0)
(1.39698 -0.0855928 0)
(1.36877 -0.0601801 0)
(1.37419 -0.0240651 0)
(1.38734 0.0130621 0)
(0.695384 -0.0522533 0)
(1.21897 -0.15706 0)
(1.48943 -0.27875 0)
(1.5731 -0.320498 0)
(1.55806 -0.266143 0)
(1.44597 -0.160932 0)
(1.39668 -0.0893715 0)
(1.36834 -0.0560659 0)
(1.37467 -0.0179689 0)
(1.38942 0.00881247 0)
(1.2374 0.00508415 0)
(1.46343 -0.171707 0)
(1.56827 -0.294048 0)
(1.59805 -0.346274 0)
(1.56689 -0.290019 0)
(1.44766 -0.170777 0)
(1.39787 -0.0935973 0)
(1.36834 -0.0542594 0)
(1.37579 -0.0216507 0)
(1.38925 0.00464002 0)
(1.36955 0.109136 0)
(1.56011 -0.160113 0)
(1.60527 -0.292339 0)
(1.61168 -0.353668 0)
(1.57523 -0.312378 0)
(1.45615 -0.183918 0)
(1.4083 -0.104312 0)
(1.3694 -0.0566043 0)
(1.37696 -0.0285663 0)
(1.38932 0.00383127 0)
(1.37407 0.150576 0)
(1.57666 -0.146854 0)
(1.61374 -0.287946 0)
(1.61099 -0.355927 0)
(1.58022 -0.330635 0)
(1.4698 -0.205809 0)
(1.42118 -0.115376 0)
(1.3709 -0.0615494 0)
(1.37946 -0.0325754 0)
(1.39007 0.00697461 0)
(1.34033 0.177266 0)
(1.55471 -0.116304 0)
(1.6129 -0.273065 0)
(1.60695 -0.350676 0)
(1.58443 -0.345 0)
(1.48722 -0.231679 0)
(1.43394 -0.125277 0)
(1.37476 -0.0683468 0)
(1.38183 -0.0311373 0)
(1.39092 0.0100418 0)
(1.30818 0.189334 0)
(1.52742 -0.0996233 0)
(1.60035 -0.259687 0)
(1.60194 -0.343051 0)
(1.58686 -0.354964 0)
(1.50681 -0.255581 0)
(1.44567 -0.135196 0)
(1.37991 -0.0705219 0)
(1.38381 -0.0291327 0)
(1.39212 0.0111228 0)
(1.27973 0.193806 0)
(1.49876 -0.0662129 0)
(1.58393 -0.24926 0)
(1.59588 -0.339547 0)
(1.58763 -0.361396 0)
(1.5243 -0.275887 0)
(1.45852 -0.146456 0)
(1.38649 -0.0710424 0)
(1.38617 -0.0281698 0)
(1.39336 0.0103855 0)
(1.25343 0.195527 0)
(1.47143 -0.0382933 0)
(1.56851 -0.231884 0)
(1.59095 -0.340945 0)
(1.58813 -0.366624 0)
(1.54185 -0.298685 0)
(1.4718 -0.160597 0)
(1.39465 -0.0726629 0)
(1.38918 -0.030228 0)
(1.39483 0.00985115 0)
(1.23118 0.193582 0)
(1.44234 -0.013698 0)
(1.55033 -0.200213 0)
(1.58837 -0.334099 0)
(1.58613 -0.371098 0)
(1.55787 -0.32173 0)
(1.48598 -0.179916 0)
(1.40199 -0.0764144 0)
(1.39189 -0.0332043 0)
(1.39733 0.0107965 0)
(1.21167 0.192897 0)
(1.41888 0.00073163 0)
(1.53185 -0.175589 0)
(1.5836 -0.313409 0)
(1.58912 -0.371145 0)
(1.57045 -0.339486 0)
(1.49977 -0.201123 0)
(1.40912 -0.083883 0)
(1.39555 -0.0342236 0)
(1.40117 0.0123975 0)
(1.19623 0.19081 0)
(1.39649 0.0175138 0)
(1.51523 -0.158967 0)
(1.57237 -0.29083 0)
(1.59291 -0.367071 0)
(1.57955 -0.351114 0)
(1.5148 -0.223515 0)
(1.41718 -0.0909357 0)
(1.40038 -0.0342825 0)
(1.40601 0.0141427 0)
(1.18292 0.188369 0)
(1.37605 0.0322722 0)
(1.50067 -0.143103 0)
(1.56339 -0.277746 0)
(1.59461 -0.359738 0)
(1.58388 -0.357398 0)
(1.5282 -0.243135 0)
(1.42798 -0.0983024 0)
(1.40687 -0.0342356 0)
(1.41202 0.0155239 0)
(1.17011 0.184335 0)
(1.35643 0.0435959 0)
(1.48375 -0.120322 0)
(1.55498 -0.265363 0)
(1.59444 -0.35395 0)
(1.5841 -0.359898 0)
(1.54156 -0.26515 0)
(1.44068 -0.106142 0)
(1.41481 -0.0357931 0)
(1.41877 0.0163805 0)
(1.15734 0.179569 0)
(1.33828 0.0508853 0)
(1.4664 -0.101877 0)
(1.54516 -0.244295 0)
(1.59274 -0.349802 0)
(1.58245 -0.36158 0)
(1.55329 -0.285396 0)
(1.45938 -0.120546 0)
(1.42385 -0.0390839 0)
(1.42557 0.0172315 0)
(1.14536 0.174633 0)
(1.32045 0.0569218 0)
(1.44858 -0.0868304 0)
(1.53132 -0.221473 0)
(1.58623 -0.33708 0)
(1.58195 -0.363068 0)
(1.56279 -0.30301 0)
(1.47538 -0.136188 0)
(1.43305 -0.0421703 0)
(1.43265 0.0183831 0)
(1.13423 0.169598 0)
(1.30236 0.0627952 0)
(1.43161 -0.0744003 0)
(1.51695 -0.204185 0)
(1.57607 -0.319433 0)
(1.5805 -0.361646 0)
(1.56955 -0.314699 0)
(1.49662 -0.157503 0)
(1.44195 -0.0453331 0)
(1.43834 0.020317 0)
(1.12399 0.164697 0)
(1.2853 0.0671241 0)
(1.41332 -0.0608185 0)
(1.50226 -0.189125 0)
(1.56332 -0.301987 0)
(1.57727 -0.357847 0)
(1.5756 -0.323322 0)
(1.5126 -0.175801 0)
(1.44856 -0.0483492 0)
(1.44185 0.0212265 0)
(1.11485 0.159996 0)
(1.26888 0.0708579 0)
(1.39546 -0.049549 0)
(1.4865 -0.172865 0)
(1.55149 -0.288717 0)
(1.57304 -0.353372 0)
(1.58059 -0.329829 0)
(1.52648 -0.19643 0)
(1.45368 -0.0527486 0)
(1.44397 0.0220703 0)
(1.1072 0.155604 0)
(1.25397 0.0732563 0)
(1.37799 -0.0397933 0)
(1.46985 -0.156998 0)
(1.53795 -0.270541 0)
(1.57101 -0.351051 0)
(1.58292 -0.334186 0)
(1.53499 -0.215498 0)
(1.46003 -0.0590665 0)
(1.44659 0.0217895 0)
(1.0996 0.15108 0)
(1.24003 0.0751758 0)
(1.36157 -0.0314001 0)
(1.45441 -0.143908 0)
(1.52423 -0.253201 0)
(1.57062 -0.342957 0)
(1.58195 -0.33527 0)
(1.54366 -0.235893 0)
(1.47357 -0.0686199 0)
(1.45064 0.0220625 0)
(1.0935 0.146904 0)
(1.22756 0.0763404 0)
(1.34628 -0.0234746 0)
(1.43952 -0.130846 0)
(1.51145 -0.237528 0)
(1.56704 -0.331894 0)
(1.5788 -0.336229 0)
(1.55164 -0.252398 0)
(1.49857 -0.0817932 0)
(1.45524 0.0216699 0)
(0.377725 0.130361 0)
(0.447569 0.162706 0)
(0.487642 0.215202 0)
(0.532203 0.254078 0)
(0.572115 0.287597 0)
(0.612778 0.315747 0)
(0.6566 0.343412 0)
(0.71172 0.370689 0)
(0.787753 0.408489 0)
(0.926241 0.446031 0)
(0.406937 0.15601 0)
(0.45937 0.176722 0)
(0.4879 0.217753 0)
(0.529047 0.252516 0)
(0.567769 0.285671 0)
(0.609582 0.313934 0)
(0.655227 0.341956 0)
(0.71203 0.369695 0)
(0.789389 0.4055 0)
(0.924186 0.432683 0)
(0.458592 0.149356 0)
(0.498234 0.163305 0)
(0.515536 0.195601 0)
(0.548116 0.227415 0)
(0.580099 0.261582 0)
(0.620041 0.291408 0)
(0.66634 0.321622 0)
(0.725929 0.350242 0)
(0.808583 0.386144 0)
(0.949232 0.400324 0)
(0.508793 0.157437 0)
(0.541684 0.176345 0)
(0.552443 0.206317 0)
(0.580838 0.230424 0)
(0.607424 0.257986 0)
(0.64364 0.282671 0)
(0.686271 0.309818 0)
(0.742927 0.334708 0)
(0.824087 0.365653 0)
(0.960214 0.370118 0)
(0.55297 0.155815 0)
(0.580485 0.174291 0)
(0.589333 0.202806 0)
(0.615751 0.225676 0)
(0.63852 0.252769 0)
(0.67249 0.275929 0)
(0.712927 0.301618 0)
(0.768733 0.323477 0)
(0.849702 0.351021 0)
(0.981236 0.347926 0)
(0.590483 0.159621 0)
(0.61309 0.177361 0)
(0.620916 0.203668 0)
(0.64573 0.224157 0)
(0.666491 0.249102 0)
(0.699402 0.269359 0)
(0.738351 0.293051 0)
(0.792931 0.311376 0)
(0.871306 0.334446 0)
(0.994999 0.328402 0)
(0.623925 0.160372 0)
(0.642442 0.175667 0)
(0.648816 0.198649 0)
(0.671118 0.217385 0)
(0.690045 0.240898 0)
(0.722002 0.259385 0)
(0.759587 0.281645 0)
(0.81274 0.297499 0)
(0.886853 0.316417 0)
(1.00131 0.310213 0)
(0.657297 0.164201 0)
(0.671633 0.178325 0)
(0.676612 0.198318 0)
(0.696092 0.214124 0)
(0.713457 0.234824 0)
(0.74397 0.250535 0)
(0.779782 0.270722 0)
(0.830887 0.284259 0)
(0.900254 0.299857 0)
(1.0051 0.293281 0)
(0.685981 0.168889 0)
(0.697053 0.180947 0)
(0.701875 0.197861 0)
(0.719784 0.210862 0)
(0.736516 0.229046 0)
(0.765662 0.242294 0)
(0.799451 0.260174 0)
(0.84779 0.271684 0)
(0.912115 0.284039 0)
(1.00711 0.27772 0)
(0.708526 0.17252 0)
(0.718188 0.18132 0)
(0.723849 0.195126 0)
(0.741188 0.206134 0)
(0.75797 0.222638 0)
(0.786357 0.23452 0)
(0.81899 0.250803 0)
(0.865406 0.261082 0)
(0.925252 0.270466 0)
(1.01133 0.264442 0)
(0.726779 0.172989 0)
(0.736935 0.179521 0)
(0.743628 0.191248 0)
(0.760241 0.200473 0)
(0.776492 0.214791 0)
(0.80332 0.224948 0)
(0.834333 0.239527 0)
(0.878457 0.248451 0)
(0.934965 0.25695 0)
(1.01337 0.251918 0)
(0.743519 0.172171 0)
(0.754869 0.177416 0)
(0.762359 0.18765 0)
(0.778315 0.195696 0)
(0.794233 0.208389 0)
(0.819539 0.217106 0)
(0.848599 0.229603 0)
(0.889598 0.23711 0)
(0.940433 0.242774 0)
(1.01171 0.239267 0)
(0.758695 0.169461 0)
(0.771014 0.17384 0)
(0.779016 0.182947 0)
(0.794291 0.190055 0)
(0.809789 0.201335 0)
(0.833678 0.209136 0)
(0.861168 0.220382 0)
(0.899298 0.226875 0)
(0.946701 0.232077 0)
(1.01043 0.227679 0)
(0.771885 0.165036 0)
(0.784903 0.168931 0)
(0.793346 0.177386 0)
(0.808158 0.18399 0)
(0.823295 0.194178 0)
(0.845723 0.201093 0)
(0.871457 0.210981 0)
(0.907071 0.217042 0)
(0.951305 0.221297 0)
(1.00938 0.217322 0)
(0.783627 0.159531 0)
(0.797031 0.163153 0)
(0.80574 0.171121 0)
(0.820185 0.177404 0)
(0.835016 0.186818 0)
(0.856277 0.19333 0)
(0.880562 0.202272 0)
(0.913682 0.207567 0)
(0.954416 0.211081 0)
(1.00776 0.207716 0)
(0.794391 0.15322 0)
(0.807944 0.156826 0)
(0.816725 0.164499 0)
(0.830757 0.170577 0)
(0.845137 0.179352 0)
(0.865279 0.185599 0)
(0.888319 0.193797 0)
(0.919353 0.198769 0)
(0.957158 0.201652 0)
(1.00607 0.198719 0)
(0.804915 0.146682 0)
(0.818219 0.150475 0)
(0.826854 0.157992 0)
(0.840424 0.164009 0)
(0.854295 0.172318 0)
(0.873369 0.178379 0)
(0.895245 0.185826 0)
(0.924431 0.190541 0)
(0.959656 0.192865 0)
(1.00486 0.190614 0)
(0.815309 0.140047 0)
(0.827658 0.144047 0)
(0.835686 0.151297 0)
(0.84846 0.157176 0)
(0.861617 0.165032 0)
(0.879707 0.170975 0)
(0.900694 0.177852 0)
(0.928456 0.182504 0)
(0.961722 0.18458 0)
(1.00408 0.182995 0)
(0.826325 0.134415 0)
(0.837247 0.138697 0)
(0.844694 0.14574 0)
(0.856691 0.151443 0)
(0.869113 0.158733 0)
(0.886094 0.164284 0)
(0.905892 0.170392 0)
(0.931851 0.17478 0)
(0.962987 0.17665 0)
(1.00226 0.175627 0)
(0.835876 0.128109 0)
(0.844541 0.132311 0)
(0.851137 0.139035 0)
(0.86243 0.144692 0)
(0.874641 0.151747 0)
(0.891295 0.157336 0)
(0.910647 0.1632 0)
(0.935463 0.167633 0)
(0.964969 0.169447 0)
(1.00175 0.168977 0)
(1.79044 -3.43496e-07 0)
(1.77711 1.18744e-06 0)
(1.76204 -3.38841e-06 0)
(1.74514 6.7991e-06 0)
(1.7252 -1.96284e-05 0)
(1.7021 3.26065e-05 0)
(1.67937 -5.72316e-05 0)
(1.52279 0.000790871 0)
(0.825491 0.00464118 0)
(0.472888 0.0138868 0)
(1.79044 -9.87369e-07 0)
(1.77711 3.40045e-06 0)
(1.76204 -9.5619e-06 0)
(1.74514 1.9116e-05 0)
(1.7252 -5.27732e-05 0)
(1.7021 9.51102e-05 0)
(1.67938 -0.000174497 0)
(1.52201 0.00233376 0)
(0.829006 0.0136413 0)
(0.495235 0.0400491 0)
(1.79044 -1.6301e-06 0)
(1.77711 5.62251e-06 0)
(1.76205 -1.57588e-05 0)
(1.74514 3.15564e-05 0)
(1.72521 -8.64365e-05 0)
(1.7021 0.000154763 0)
(1.67939 -0.000291656 0)
(1.52162 0.00416273 0)
(0.834087 0.0211923 0)
(0.52651 0.0591678 0)
(1.79044 -2.26488e-06 0)
(1.77711 7.81698e-06 0)
(1.76205 -2.18147e-05 0)
(1.74514 4.37813e-05 0)
(1.72522 -0.000118149 0)
(1.70211 0.000210922 0)
(1.67941 -0.000407293 0)
(1.52149 0.00611779 0)
(0.838283 0.0286385 0)
(0.556231 0.0773636 0)
(1.79044 -2.88566e-06 0)
(1.77711 9.97044e-06 0)
(1.76205 -2.76715e-05 0)
(1.74514 5.57088e-05 0)
(1.72524 -0.000148028 0)
(1.70212 0.000262212 0)
(1.67945 -0.000520019 0)
(1.52189 0.00829666 0)
(0.843754 0.0354031 0)
(0.586072 0.0894572 0)
(1.79044 -3.48868e-06 0)
(1.77711 1.2069e-05 0)
(1.76205 -3.32733e-05 0)
(1.74513 6.7198e-05 0)
(1.72526 -0.000175501 0)
(1.70213 0.000308233 0)
(1.6795 -0.000633923 0)
(1.52289 0.0106118 0)
(0.84999 0.0414984 0)
(0.614591 0.100405 0)
(1.79044 -4.07026e-06 0)
(1.77711 1.41e-05 0)
(1.76206 -3.85707e-05 0)
(1.74513 7.8144e-05 0)
(1.72528 -0.000200426 0)
(1.70214 0.000348693 0)
(1.67956 -0.000740403 0)
(1.52442 0.0130061 0)
(0.856323 0.0464411 0)
(0.642532 0.108335 0)
(1.79044 -4.62701e-06 0)
(1.77711 1.60505e-05 0)
(1.76206 -4.35215e-05 0)
(1.74513 8.84333e-05 0)
(1.7253 -0.000222702 0)
(1.70215 0.000383981 0)
(1.67964 -0.000841139 0)
(1.52631 0.0154505 0)
(0.86178 0.0511879 0)
(0.667874 0.115721 0)
(1.79044 -5.15583e-06 0)
(1.77711 1.79083e-05 0)
(1.76207 -4.80934e-05 0)
(1.74513 9.79774e-05 0)
(1.72532 -0.000242303 0)
(1.70216 0.000414375 0)
(1.67973 -0.000935723 0)
(1.52869 0.0179726 0)
(0.867089 0.0550131 0)
(0.691725 0.119995 0)
(1.79044 -5.65394e-06 0)
(1.77711 1.96621e-05 0)
(1.76207 -5.22634e-05 0)
(1.74512 0.000106713 0)
(1.72533 -0.000259348 0)
(1.70217 0.000440606 0)
(1.67983 -0.00102231 0)
(1.53166 0.0205342 0)
(0.871694 0.0584968 0)
(0.71304 0.123811 0)
(1.79044 -6.1189e-06 0)
(1.77711 2.13017e-05 0)
(1.76207 -5.60182e-05 0)
(1.74512 0.0001146 0)
(1.72535 -0.000273971 0)
(1.70217 0.00046344 0)
(1.67993 -0.00109962 0)
(1.53567 0.0231085 0)
(0.876839 0.061612 0)
(0.730676 0.126308 0)
(1.79044 -6.54863e-06 0)
(1.77711 2.28181e-05 0)
(1.76208 -5.93531e-05 0)
(1.74512 0.000121626 0)
(1.72536 -0.000286309 0)
(1.70218 0.000483522 0)
(1.68001 -0.00116799 0)
(1.54097 0.0254632 0)
(0.883497 0.064328 0)
(0.744068 0.128174 0)
(1.79044 -6.94149e-06 0)
(1.7771 2.42046e-05 0)
(1.76208 -6.22719e-05 0)
(1.74512 0.000127801 0)
(1.72538 -0.000296566 0)
(1.70219 0.000501458 0)
(1.68007 -0.00122713 0)
(1.54723 0.0273313 0)
(0.891453 0.0667363 0)
(0.754446 0.129114 0)
(1.79044 -7.29631e-06 0)
(1.7771 2.54563e-05 0)
(1.76208 -6.47858e-05 0)
(1.74512 0.000133158 0)
(1.72539 -0.000304995 0)
(1.7022 0.000518012 0)
(1.68011 -0.00127823 0)
(1.55396 0.0286745 0)
(0.900152 0.0690645 0)
(0.763308 0.129285 0)
(1.79044 -7.61241e-06 0)
(1.7771 2.65705e-05 0)
(1.76209 -6.6911e-05 0)
(1.74511 0.000137732 0)
(1.72539 -0.000311697 0)
(1.70221 0.000533432 0)
(1.68011 -0.00132392 0)
(1.56108 0.029451 0)
(0.909205 0.0713024 0)
(0.771652 0.128995 0)
(1.79044 -7.88964e-06 0)
(1.7771 2.7547e-05 0)
(1.76209 -6.86701e-05 0)
(1.74511 0.000141581 0)
(1.7254 -0.000316877 0)
(1.70222 0.000547781 0)
(1.68008 -0.00135067 0)
(1.56872 0.0294619 0)
(0.918307 0.0733862 0)
(0.779926 0.128087 0)
(1.79044 -8.12834e-06 0)
(1.7771 2.83875e-05 0)
(1.76209 -7.00878e-05 0)
(1.74511 0.000144758 0)
(1.72541 -0.000320683 0)
(1.70224 0.000561192 0)
(1.68003 -0.00138639 0)
(1.57682 0.0289115 0)
(0.927148 0.0754867 0)
(0.788464 0.127006 0)
(1.79044 -8.32925e-06 0)
(1.7771 2.90953e-05 0)
(1.76209 -7.11903e-05 0)
(1.74511 0.000147317 0)
(1.72541 -0.000323184 0)
(1.70226 0.00057394 0)
(1.67994 -0.00141632 0)
(1.58496 0.0277967 0)
(0.935886 0.0771833 0)
(0.797392 0.125524 0)
(1.79044 -8.49419e-06 0)
(1.7771 2.96754e-05 0)
(1.7621 -7.20075e-05 0)
(1.74511 0.000149305 0)
(1.72541 -0.00032454 0)
(1.70228 0.000585798 0)
(1.67983 -0.00144334 0)
(1.59285 0.0262506 0)
(0.944441 0.0785846 0)
(0.80691 0.123873 0)
(1.79044 -8.62492e-06 0)
(1.7771 3.01341e-05 0)
(1.7621 -7.25669e-05 0)
(1.7451 0.000150769 0)
(1.72541 -0.000324845 0)
(1.70231 0.000596408 0)
(1.6797 -0.00147317 0)
(1.60012 0.0244637 0)
(0.952598 0.0796137 0)
(0.816748 0.122363 0)
(1.79044 8.62492e-06 0)
(1.7771 -3.01341e-05 0)
(1.7621 7.25669e-05 0)
(1.7451 -0.00015077 0)
(1.72541 0.000324845 0)
(1.70231 -0.000596409 0)
(1.6797 0.00147317 0)
(1.60012 -0.0244639 0)
(0.952597 -0.0796142 0)
(0.81675 -0.122364 0)
(1.79044 8.49419e-06 0)
(1.7771 -2.96754e-05 0)
(1.7621 7.20075e-05 0)
(1.74511 -0.000149305 0)
(1.72541 0.00032454 0)
(1.70228 -0.000585799 0)
(1.67983 0.00144334 0)
(1.59285 -0.0262509 0)
(0.94444 -0.0785852 0)
(0.806912 -0.123872 0)
(1.79044 8.32925e-06 0)
(1.7771 -2.90953e-05 0)
(1.76209 7.11904e-05 0)
(1.74511 -0.000147317 0)
(1.72541 0.000323184 0)
(1.70226 -0.000573941 0)
(1.67994 0.00141632 0)
(1.58496 -0.027797 0)
(0.935885 -0.0771839 0)
(0.797393 -0.125525 0)
(1.79044 8.12835e-06 0)
(1.7771 -2.83875e-05 0)
(1.76209 7.00879e-05 0)
(1.74511 -0.000144759 0)
(1.72541 0.000320683 0)
(1.70224 -0.000561193 0)
(1.68003 0.00138639 0)
(1.57682 -0.0289118 0)
(0.927148 -0.0754871 0)
(0.788465 -0.127006 0)
(1.79044 7.88965e-06 0)
(1.7771 -2.7547e-05 0)
(1.76209 6.86702e-05 0)
(1.74511 -0.000141581 0)
(1.7254 0.000316877 0)
(1.70222 -0.000547783 0)
(1.68008 0.00135067 0)
(1.56872 -0.0294621 0)
(0.918307 -0.0733865 0)
(0.779926 -0.128087 0)
(1.79044 7.61242e-06 0)
(1.7771 -2.65706e-05 0)
(1.76209 6.69111e-05 0)
(1.74511 -0.000137733 0)
(1.72539 0.000311697 0)
(1.70221 -0.000533433 0)
(1.68011 0.00132393 0)
(1.56108 -0.0294511 0)
(0.909205 -0.0713026 0)
(0.771652 -0.128996 0)
(1.79044 7.29632e-06 0)
(1.7771 -2.54564e-05 0)
(1.76208 6.4786e-05 0)
(1.74512 -0.000133158 0)
(1.72539 0.000304995 0)
(1.7022 -0.000518013 0)
(1.68011 0.00127824 0)
(1.55396 -0.0286746 0)
(0.900152 -0.0690646 0)
(0.763308 -0.129285 0)
(1.79044 6.94151e-06 0)
(1.7771 -2.42047e-05 0)
(1.76208 6.22721e-05 0)
(1.74512 -0.000127802 0)
(1.72538 0.000296566 0)
(1.70219 -0.000501459 0)
(1.68007 0.00122714 0)
(1.54723 -0.0273314 0)
(0.891453 -0.0667364 0)
(0.754447 -0.129115 0)
(1.79044 6.54865e-06 0)
(1.77711 -2.28182e-05 0)
(1.76208 5.93533e-05 0)
(1.74512 -0.000121626 0)
(1.72536 0.00028631 0)
(1.70218 -0.000483523 0)
(1.68001 0.001168 0)
(1.54097 -0.0254632 0)
(0.883497 -0.064328 0)
(0.744068 -0.128174 0)
(1.79044 6.11892e-06 0)
(1.77711 -2.13018e-05 0)
(1.76207 5.60185e-05 0)
(1.74512 -0.000114601 0)
(1.72535 0.000273972 0)
(1.70217 -0.00046344 0)
(1.67993 0.00109963 0)
(1.53567 -0.0231085 0)
(0.876839 -0.061612 0)
(0.730677 -0.126308 0)
(1.79044 5.65397e-06 0)
(1.77711 -1.96623e-05 0)
(1.76207 5.22637e-05 0)
(1.74512 -0.000106713 0)
(1.72533 0.000259349 0)
(1.70217 -0.000440606 0)
(1.67983 0.00102231 0)
(1.53166 -0.0205342 0)
(0.871694 -0.0584969 0)
(0.713041 -0.123811 0)
(1.79044 5.15586e-06 0)
(1.77711 -1.79084e-05 0)
(1.76207 4.80936e-05 0)
(1.74513 -9.79779e-05 0)
(1.72532 0.000242304 0)
(1.70216 -0.000414375 0)
(1.67973 0.000935725 0)
(1.52869 -0.0179726 0)
(0.867089 -0.0550131 0)
(0.691726 -0.119995 0)
(1.79044 4.62704e-06 0)
(1.77711 -1.60506e-05 0)
(1.76206 4.35218e-05 0)
(1.74513 -8.84338e-05 0)
(1.7253 0.000222702 0)
(1.70215 -0.000383982 0)
(1.67964 0.00084114 0)
(1.52631 -0.0154505 0)
(0.861779 -0.0511878 0)
(0.667875 -0.115721 0)
(1.79044 4.07029e-06 0)
(1.77711 -1.41001e-05 0)
(1.76206 3.8571e-05 0)
(1.74513 -7.81445e-05 0)
(1.72528 0.000200427 0)
(1.70214 -0.000348693 0)
(1.67956 0.000740403 0)
(1.52442 -0.013006 0)
(0.856323 -0.046441 0)
(0.642533 -0.108335 0)
(1.79044 3.48871e-06 0)
(1.77711 -1.20692e-05 0)
(1.76205 3.32736e-05 0)
(1.74513 -6.71985e-05 0)
(1.72526 0.000175502 0)
(1.70213 -0.000308233 0)
(1.6795 0.000633921 0)
(1.52289 -0.0106117 0)
(0.84999 -0.0414983 0)
(0.614592 -0.100405 0)
(1.79044 2.8857e-06 0)
(1.77711 -9.97057e-06 0)
(1.76205 2.76719e-05 0)
(1.74514 -5.57093e-05 0)
(1.72524 0.000148029 0)
(1.70212 -0.000262212 0)
(1.67945 0.000520016 0)
(1.52189 -0.00829653 0)
(0.843754 -0.0354029 0)
(0.586073 -0.0894574 0)
(1.79044 2.26491e-06 0)
(1.77711 -7.81712e-06 0)
(1.76205 2.1815e-05 0)
(1.74514 -4.37818e-05 0)
(1.72522 0.000118149 0)
(1.70211 -0.000210921 0)
(1.67941 0.000407288 0)
(1.52149 -0.00611763 0)
(0.838283 -0.0286383 0)
(0.556232 -0.0773639 0)
(1.79044 1.63014e-06 0)
(1.77711 -5.62265e-06 0)
(1.76205 1.57592e-05 0)
(1.74514 -3.15568e-05 0)
(1.72521 8.64368e-05 0)
(1.7021 -0.000154762 0)
(1.67939 0.00029165 0)
(1.52162 -0.00416262 0)
(0.834087 -0.021192 0)
(0.526511 -0.0591683 0)
(1.79044 9.87406e-07 0)
(1.77711 -3.40059e-06 0)
(1.76204 9.56225e-06 0)
(1.74514 -1.91164e-05 0)
(1.7252 5.27735e-05 0)
(1.7021 -9.5109e-05 0)
(1.67938 0.000174489 0)
(1.52201 -0.00233346 0)
(0.829006 -0.0136411 0)
(0.495235 -0.0400497 0)
(1.79044 3.43533e-07 0)
(1.77711 -1.18758e-06 0)
(1.76204 3.38876e-06 0)
(1.74514 -6.79952e-06 0)
(1.7252 1.96286e-05 0)
(1.7021 -3.26052e-05 0)
(1.67937 5.7222e-05 0)
(1.52279 -0.000790486 0)
(0.825491 -0.00464094 0)
(0.472889 -0.0138876 0)
(0.835874 -0.128103 0)
(0.844538 -0.132305 0)
(0.851134 -0.13903 0)
(0.862428 -0.144689 0)
(0.874639 -0.151744 0)
(0.891294 -0.157334 0)
(0.910647 -0.163199 0)
(0.935463 -0.167634 0)
(0.964969 -0.169448 0)
(1.00175 -0.16898 0)
(0.826329 -0.134412 0)
(0.837251 -0.138695 0)
(0.844697 -0.145739 0)
(0.856694 -0.151441 0)
(0.869116 -0.158732 0)
(0.886096 -0.164284 0)
(0.905893 -0.170392 0)
(0.931851 -0.17478 0)
(0.962985 -0.176652 0)
(1.00226 -0.175633 0)
(0.815312 -0.140043 0)
(0.82766 -0.144043 0)
(0.835688 -0.151293 0)
(0.848461 -0.157173 0)
(0.861618 -0.16503 0)
(0.879707 -0.170974 0)
(0.900693 -0.177853 0)
(0.928455 -0.182504 0)
(0.961718 -0.184583 0)
(1.00407 -0.183001 0)
(0.804917 -0.146678 0)
(0.818222 -0.150472 0)
(0.826856 -0.157989 0)
(0.840426 -0.164007 0)
(0.854297 -0.172317 0)
(0.873371 -0.178379 0)
(0.895246 -0.185828 0)
(0.92443 -0.190541 0)
(0.959651 -0.19287 0)
(1.00486 -0.190621 0)
(0.794393 -0.153217 0)
(0.807946 -0.156823 0)
(0.816727 -0.164497 0)
(0.830759 -0.170576 0)
(0.845139 -0.179351 0)
(0.86528 -0.185599 0)
(0.888319 -0.193799 0)
(0.919352 -0.198771 0)
(0.957152 -0.201657 0)
(1.00606 -0.198726 0)
(0.783628 -0.159529 0)
(0.797033 -0.163151 0)
(0.805742 -0.17112 0)
(0.820187 -0.177403 0)
(0.835019 -0.186818 0)
(0.856279 -0.193331 0)
(0.880562 -0.202274 0)
(0.913679 -0.207571 0)
(0.95441 -0.211085 0)
(1.00775 -0.207724 0)
(0.771886 -0.165035 0)
(0.784905 -0.16893 0)
(0.793348 -0.177385 0)
(0.80816 -0.18399 0)
(0.823297 -0.194178 0)
(0.845724 -0.201094 0)
(0.871456 -0.210983 0)
(0.907066 -0.217046 0)
(0.951297 -0.221301 0)
(1.00937 -0.217334 0)
(0.758695 -0.169461 0)
(0.771015 -0.17384 0)
(0.779017 -0.182947 0)
(0.794292 -0.190055 0)
(0.80979 -0.201335 0)
(0.833678 -0.209137 0)
(0.861165 -0.220384 0)
(0.899293 -0.22688 0)
(0.946691 -0.232083 0)
(1.01041 -0.227693 0)
(0.743519 -0.172172 0)
(0.75487 -0.177416 0)
(0.76236 -0.18765 0)
(0.778315 -0.195696 0)
(0.794233 -0.208389 0)
(0.819538 -0.217106 0)
(0.848595 -0.229606 0)
(0.889591 -0.237113 0)
(0.940418 -0.24278 0)
(1.01169 -0.239282 0)
(0.72678 -0.172989 0)
(0.736935 -0.179521 0)
(0.743629 -0.191249 0)
(0.760241 -0.200473 0)
(0.77649 -0.214792 0)
(0.803317 -0.224949 0)
(0.834328 -0.239528 0)
(0.878448 -0.248453 0)
(0.934948 -0.25696 0)
(1.01334 -0.251928 0)
(0.708527 -0.17252 0)
(0.718189 -0.18132 0)
(0.723849 -0.195126 0)
(0.741187 -0.206134 0)
(0.757968 -0.222638 0)
(0.786353 -0.23452 0)
(0.818984 -0.250804 0)
(0.865394 -0.261085 0)
(0.925233 -0.270477 0)
(1.01131 -0.264446 0)
(0.685982 -0.168888 0)
(0.697053 -0.180946 0)
(0.701875 -0.197861 0)
(0.719784 -0.210862 0)
(0.736515 -0.229046 0)
(0.765659 -0.242294 0)
(0.799444 -0.260176 0)
(0.847777 -0.271686 0)
(0.912095 -0.284046 0)
(1.0071 -0.277726 0)
(0.657298 -0.164201 0)
(0.671633 -0.178326 0)
(0.676613 -0.198319 0)
(0.696091 -0.214123 0)
(0.713455 -0.234824 0)
(0.743967 -0.250535 0)
(0.779773 -0.270723 0)
(0.830873 -0.28426 0)
(0.900233 -0.299859 0)
(1.00507 -0.293291 0)
(0.623926 -0.160372 0)
(0.642443 -0.175667 0)
(0.648816 -0.198649 0)
(0.671118 -0.217385 0)
(0.690043 -0.240898 0)
(0.721998 -0.259385 0)
(0.759578 -0.281646 0)
(0.812726 -0.297499 0)
(0.886832 -0.316415 0)
(1.00127 -0.310228 0)
(0.590484 -0.159621 0)
(0.613091 -0.177361 0)
(0.620916 -0.203668 0)
(0.64573 -0.224157 0)
(0.66649 -0.249102 0)
(0.699397 -0.269359 0)
(0.738342 -0.293051 0)
(0.792918 -0.311376 0)
(0.871279 -0.334439 0)
(0.994952 -0.328432 0)
(0.552971 -0.155815 0)
(0.580486 -0.174291 0)
(0.589333 -0.202806 0)
(0.615751 -0.225676 0)
(0.638518 -0.25277 0)
(0.672486 -0.275928 0)
(0.712919 -0.301618 0)
(0.768721 -0.323475 0)
(0.849673 -0.351012 0)
(0.981207 -0.347945 0)
(0.508794 -0.157437 0)
(0.541685 -0.176345 0)
(0.552443 -0.206317 0)
(0.580838 -0.230425 0)
(0.607423 -0.257987 0)
(0.643637 -0.282671 0)
(0.686265 -0.309818 0)
(0.742918 -0.334705 0)
(0.824066 -0.365647 0)
(0.960196 -0.3701 0)
(0.458593 -0.149356 0)
(0.498235 -0.163306 0)
(0.515537 -0.195602 0)
(0.548116 -0.227416 0)
(0.580097 -0.261582 0)
(0.620039 -0.291408 0)
(0.666335 -0.321622 0)
(0.725922 -0.350239 0)
(0.808574 -0.386138 0)
(0.949224 -0.400296 0)
(0.406938 -0.156011 0)
(0.459371 -0.176723 0)
(0.4879 -0.217754 0)
(0.529047 -0.252516 0)
(0.567768 -0.285671 0)
(0.60958 -0.313933 0)
(0.655223 -0.341955 0)
(0.712023 -0.369691 0)
(0.789383 -0.405495 0)
(0.924185 -0.432652 0)
(0.377726 -0.130362 0)
(0.44757 -0.162707 0)
(0.487643 -0.215202 0)
(0.532203 -0.254079 0)
(0.572114 -0.287597 0)
(0.612776 -0.315746 0)
(0.656596 -0.343411 0)
(0.711714 -0.370687 0)
(0.787748 -0.408488 0)
(0.92624 -0.446003 0)
(1.09349 -0.146911 0)
(1.22754 -0.076374 0)
(1.34626 0.023417 0)
(1.43959 0.130878 0)
(1.51152 0.237687 0)
(1.56681 0.331932 0)
(1.57896 0.336129 0)
(1.55171 0.251622 0)
(1.4963 0.0805197 0)
(1.45506 -0.0219759 0)
(1.09959 -0.151085 0)
(1.24001 -0.0751949 0)
(1.36157 0.0313737 0)
(1.45445 0.143854 0)
(1.52435 0.253446 0)
(1.57035 0.343092 0)
(1.58212 0.335187 0)
(1.54362 0.235481 0)
(1.47378 0.0683062 0)
(1.4514 -0.0218809 0)
(1.10719 -0.155607 0)
(1.25396 -0.0732415 0)
(1.37796 0.0397335 0)
(1.46992 0.157014 0)
(1.53812 0.270906 0)
(1.57072 0.350828 0)
(1.58278 0.333946 0)
(1.53468 0.215408 0)
(1.46109 0.0589978 0)
(1.44769 -0.021685 0)
(1.11485 -0.16 0)
(1.26885 -0.0708412 0)
(1.39546 0.049552 0)
(1.48659 0.172949 0)
(1.55159 0.288806 0)
(1.5728 0.353167 0)
(1.58028 0.329469 0)
(1.52602 0.195747 0)
(1.45461 0.0523768 0)
(1.44487 -0.0221044 0)
(1.12399 -0.164708 0)
(1.28529 -0.0670883 0)
(1.41331 0.0608718 0)
(1.5023 0.189093 0)
(1.5635 0.30217 0)
(1.57713 0.357865 0)
(1.57525 0.322959 0)
(1.51213 0.174437 0)
(1.44916 0.0474885 0)
(1.44229 -0.0215484 0)
(1.13423 -0.169622 0)
(1.30235 -0.0627665 0)
(1.43157 0.0744496 0)
(1.51702 0.204066 0)
(1.57626 0.319699 0)
(1.5803 0.361681 0)
(1.56924 0.314568 0)
(1.49591 0.156214 0)
(1.44231 0.044236 0)
(1.43851 -0.0200372 0)
(1.14536 -0.174669 0)
(1.32046 -0.0568949 0)
(1.44852 0.0867947 0)
(1.53145 0.221446 0)
(1.58646 0.337474 0)
(1.58177 0.363054 0)
(1.56237 0.302632 0)
(1.47521 0.136535 0)
(1.43347 0.0414008 0)
(1.43279 -0.0180317 0)
(1.15733 -0.179605 0)
(1.33828 -0.0509081 0)
(1.46638 0.101866 0)
(1.54524 0.244263 0)
(1.59296 0.349958 0)
(1.58227 0.361622 0)
(1.55304 0.284833 0)
(1.45859 0.120484 0)
(1.42427 0.0391391 0)
(1.42591 -0.016873 0)
(1.1701 -0.184355 0)
(1.35646 -0.0436039 0)
(1.48372 0.120344 0)
(1.55507 0.265157 0)
(1.59458 0.354099 0)
(1.58407 0.36008 0)
(1.54097 0.263849 0)
(1.44123 0.105608 0)
(1.41521 0.0361374 0)