/*--------------------------------*- C++ -*----------------------------------*\
  =========                 |
  \\      /  F ield         | OpenFOAM: The Open Source CFD Toolbox
   \\    /   O peration     | Website:  https://openfoam.org
    \\  /    A nd           | Version:  7
     \\/     M anipulation  |
\*---------------------------------------------------------------------------*/
FoamFile
{
    version     2.0;
    format      ascii;
    class       volScalarField;
    location    "0.3";
    object      rho;
}
// * * * * * * * * * * * * * * * * * * * * * * * * * * * * * * * * * * * * * //

dimensions      [1 -3 0 0 0 0 0];

internalField   nonuniform List<scalar> 
3225
(
0.587777
0.588464
0.590028
0.590337
0.590373
0.696603
0.693186
0.689575
0.685043
0.680094
0.672041
0.656601
0.634595
0.612821
0.596904
0.587707
0.583375
0.582673
0.584546
0.587531
0.588999
0.59002
0.699113
0.695675
0.691808
0.686832
0.681136
0.67219
0.655965
0.633082
0.610746
0.593996
0.584085
0.579867
0.579721
0.582392
0.586121
0.588474
0.58999
0.702534
0.699093
0.69497
0.689366
0.682836
0.673162
0.656381
0.633214
0.611122
0.594773
0.583766
0.579277
0.578886
0.58174
0.585594
0.588652
0.590487
0.705762
0.702355
0.698083
0.692087
0.68498
0.674681
0.657532
0.634379
0.612556
0.595202
0.584142
0.580384
0.579586
0.581811
0.585728
0.589218
0.591455
0.708284
0.704914
0.700568
0.694248
0.686619
0.675718
0.658055
0.634559
0.612652
0.596404
0.585419
0.582127
0.580959
0.582534
0.586392
0.589995
0.592282
0.708284
0.704914
0.700568
0.694248
0.686619
0.675718
0.658055
0.634559
0.612652
0.596404
0.585419
0.582127
0.580959
0.582534
0.586392
0.589995
0.592282
0.705762
0.702355
0.698083
0.692087
0.68498
0.674681
0.657532
0.634379
0.612556
0.595202
0.584142
0.580384
0.579586
0.581811
0.585728
0.589218
0.591455
0.702534
0.699093
0.69497
0.689366
0.682836
0.673162
0.656381
0.633214
0.611122
0.594773
0.583766
0.579277
0.578886
0.58174
0.585594
0.588652
0.590487
0.699113
0.695675
0.691808
0.686832
0.681136
0.67219
0.655965
0.633082
0.610746
0.593996
0.584085
0.579867
0.579721
0.582392
0.586121
0.588474
0.58999
0.696603
0.693186
0.689575
0.685043
0.680094
0.672041
0.656601
0.634595
0.612821
0.596904
0.587707
0.583375
0.582673
0.584546
0.587531
0.588999
0.59002
0.695521
0.691904
0.688416
0.684395
0.680209
0.673065
0.658966
0.638672
0.618253
0.603238
0.594247
0.589368
0.587777
0.588464
0.590028
0.590337
0.590373
0.696416
0.692501
0.689008
0.685324
0.681724
0.675325
0.662784
0.644679
0.626282
0.612336
0.603084
0.596922
0.593746
0.59295
0.593262
0.592648
0.591297
0.698825
0.694555
0.690828
0.68735
0.684433
0.679101
0.668585
0.652839
0.636353
0.623061
0.612833
0.60464
0.599306
0.596722
0.595586
0.594376
0.592238
0.702022
0.697345
0.693007
0.689419
0.687387
0.683724
0.675628
0.662724
0.647457
0.633883
0.621808
0.611099
0.603456
0.598949
0.596369
0.594799
0.592387
0.705243
0.700155
0.69501
0.690985
0.689725
0.688437
0.683221
0.67367
0.659099
0.643934
0.629166
0.615759
0.606136
0.600103
0.595982
0.59356
0.591337
0.70786
0.702285
0.696271
0.691606
0.690635
0.691104
0.688698
0.682433
0.66924
0.652514
0.634903
0.619308
0.608337
0.601102
0.595341
0.591501
0.588966
0.70876
0.703051
0.696365
0.690971
0.689637
0.690851
0.690592
0.686502
0.675253
0.658485
0.639637
0.623189
0.611689
0.603629
0.596262
0.590402
0.586808
0.707412
0.702116
0.695265
0.68919
0.687085
0.688371
0.68901
0.686387
0.677088
0.662023
0.6443
0.628712
0.617569
0.608915
0.599587
0.591461
0.586208
0.704907
0.700244
0.693681
0.687366
0.684429
0.684786
0.685198
0.683218
0.675825
0.663586
0.648985
0.635639
0.62559
0.616633
0.605432
0.594579
0.586893
0.701519
0.697717
0.691975
0.685988
0.682376
0.681361
0.680929
0.678663
0.672507
0.663413
0.652579
0.642192
0.633667
0.624805
0.612299
0.599103
0.588576
0.697976
0.695116
0.6905
0.685098
0.681013
0.678897
0.677296
0.674345
0.668882
0.662123
0.6543
0.646594
0.639577
0.630776
0.617571
0.602584
0.589714
0.695247
0.693382
0.689681
0.684765
0.68065
0.677817
0.675221
0.671473
0.666168
0.660798
0.654991
0.648987
0.64248
0.633187
0.619664
0.603696
0.589331
0.693425
0.69203
0.689428
0.685328
0.681581
0.678579
0.675028
0.670394
0.664761
0.660224
0.655847
0.6508
0.643808
0.632897
0.618796
0.602514
0.587929
0.692986
0.691767
0.690033
0.686775
0.683522
0.680785
0.677343
0.672357
0.666069
0.661752
0.658606
0.653894
0.645098
0.63202
0.617141
0.600695
0.586542
0.694389
0.692907
0.691372
0.688559
0.686226
0.684278
0.681422
0.676748
0.670457
0.666386
0.663534
0.657559
0.64573
0.631177
0.616041
0.599565
0.585345
0.696224
0.694241
0.692612
0.690205
0.688983
0.688336
0.686652
0.683208
0.677452
0.673033
0.667782
0.658597
0.645273
0.629718
0.614963
0.598922
0.584767
0.69786
0.695267
0.693137
0.691024
0.690915
0.691635
0.691237
0.688808
0.682846
0.676664
0.670039
0.659185
0.643571
0.627617
0.613102
0.597918
0.58432
0.698882
0.695662
0.692811
0.690808
0.691409
0.693111
0.693682
0.69127
0.685657
0.679268
0.670663
0.657057
0.639323
0.62349
0.609628
0.595872
0.583393
0.698641
0.695034
0.691216
0.689003
0.689576
0.691757
0.693186
0.691342
0.686239
0.678836
0.668112
0.651546
0.632927
0.617738
0.604522
0.59263
0.581738
0.696486
0.693203
0.688992
0.686309
0.686068
0.687569
0.689156
0.688219
0.682965
0.674675
0.662357
0.644934
0.626728
0.611369
0.598958
0.588697
0.579322
0.694066
0.691555
0.687736
0.684794
0.683505
0.683181
0.68337
0.682184
0.677244
0.669012
0.656808
0.639525
0.621017
0.605839
0.593737
0.584506
0.576034
0.691278
0.68968
0.686875
0.68421
0.68219
0.679964
0.677647
0.674424
0.668881
0.661732
0.650683
0.634195
0.616412
0.601192
0.589054
0.579897
0.571698
0.688042
0.687827
0.686078
0.684087
0.68168
0.678118
0.673388
0.668008
0.661436
0.654921
0.645103
0.629592
0.612566
0.597228
0.584651
0.574795
0.566644
0.685108
0.685529
0.685479
0.684205
0.681882
0.677719
0.671171
0.663564
0.655604
0.649168
0.640422
0.625871
0.609184
0.593266
0.580029
0.569719
0.561561
0.682228
0.683581
0.684661
0.684545
0.68296
0.678666
0.671049
0.661958
0.652722
0.645734
0.637362
0.623013
0.605701
0.588495
0.574816
0.564456
0.556443
0.680511
0.68192
0.684029
0.684845
0.683891
0.680539
0.673867
0.663886
0.653303
0.645346
0.636152
0.620657
0.601691
0.583076
0.569205
0.559075
0.55153
0.681591
0.682031
0.684027
0.685047
0.684964
0.682742
0.677565
0.668407
0.657445
0.647596
0.636175
0.618091
0.596509
0.577137
0.563994
0.554098
0.547194
0.688398
0.686956
0.68689
0.686507
0.686182
0.685205
0.681802
0.674249
0.663499
0.651524
0.63664
0.614589
0.590591
0.571666
0.559581
0.549873
0.54355
0.703476
0.699605
0.696388
0.6914
0.688593
0.687454
0.685184
0.679843
0.669903
0.655456
0.636274
0.609898
0.584946
0.567382
0.556815
0.547024
0.540551
0.722842
0.718032
0.713558
0.704592
0.695118
0.690134
0.686909
0.681466
0.67239
0.656803
0.633952
0.604801
0.580516
0.565165
0.555645
0.545328
0.537803
0.738792
0.734203
0.729992
0.72233
0.710266
0.696294
0.687346
0.680307
0.670996
0.654946
0.629978
0.600402
0.578391
0.565017
0.556075
0.544833
0.535357
0.75127
0.746857
0.741574
0.735347
0.726819
0.710663
0.691319
0.678201
0.667013
0.650046
0.624871
0.597009
0.577889
0.566555
0.558218
0.546249
0.533775
0.760336
0.75602
0.749943
0.743838
0.737549
0.72499
0.702356
0.678918
0.662984
0.644542
0.619973
0.595018
0.578767
0.569531
0.561746
0.549632
0.533387
0.767445
0.763235
0.756765
0.749943
0.744081
0.73525
0.71754
0.687119
0.662155
0.641198
0.616811
0.594597
0.581141
0.57371
0.566422
0.554565
0.535984
0.772283
0.768449
0.762594
0.755643
0.749307
0.742373
0.730681
0.705444
0.670335
0.643428
0.616925
0.596309
0.585405
0.578533
0.570443
0.55896
0.541036
0.774699
0.771532
0.767159
0.761153
0.754943
0.748713
0.740384
0.722678
0.69098
0.653702
0.623069
0.601104
0.590757
0.582856
0.573317
0.563787
0.548935
0.77523
0.772782
0.769977
0.765689
0.760942
0.755269
0.748187
0.735457
0.711548
0.673477
0.635907
0.609637
0.596923
0.586455
0.574779
0.567432
0.557473
0.774752
0.772903
0.771192
0.768695
0.765876
0.761874
0.755444
0.744544
0.725906
0.694067
0.653312
0.620977
0.603242
0.588991
0.576458
0.571479
0.566029
0.774927
0.772745
0.771762
0.770513
0.769549
0.76801
0.763183
0.752812
0.735867
0.709064
0.669047
0.631729
0.608806
0.59098
0.578511
0.574587
0.572425
0.776254
0.774273
0.773081
0.77239
0.773051
0.773877
0.771693
0.762844
0.745671
0.718563
0.679404
0.639237
0.611605
0.592662
0.582559
0.578807
0.576692
0.779871
0.777748
0.776271
0.775786
0.777533
0.780127
0.780484
0.773799
0.75655
0.728152
0.687054
0.643367
0.612243
0.594073
0.58726
0.584308
0.580536
0.786372
0.78385
0.781431
0.780356
0.782308
0.786482
0.788764
0.784443
0.768618
0.739263
0.695358
0.647193
0.611882
0.594591
0.591494
0.590694
0.585096
0.795141
0.791526
0.786808
0.784302
0.785822
0.790979
0.795035
0.79281
0.779657
0.752447
0.707279
0.653425
0.612184
0.594298
0.593263
0.594577
0.589243
0.802421
0.798092
0.791183
0.786459
0.787637
0.793502
0.799356
0.798704
0.787798
0.764531
0.721766
0.664089
0.615236
0.593888
0.592283
0.594549
0.591024
0.806549
0.801271
0.79351
0.787676
0.7881
0.793947
0.801586
0.803299
0.794539
0.773711
0.735646
0.67864
0.622909
0.595326
0.589699
0.591818
0.590143
0.807461
0.801743
0.794615
0.788971
0.78888
0.793716
0.802504
0.807306
0.801437
0.782342
0.748898
0.695435
0.636162
0.601409
0.587721
0.585825
0.585047
0.804872
0.801898
0.79803
0.794153
0.793158
0.79543
0.803538
0.810949
0.808535
0.792259
0.763084
0.714253
0.653884
0.61176
0.588956
0.578509
0.574977
0.800675
0.800272
0.800565
0.799795
0.800911
0.801499
0.806027
0.814689
0.815966
0.803949
0.778601
0.734526
0.675219
0.624041
0.591954
0.574698
0.564612
0.794722
0.797001
0.800292
0.801877
0.805186
0.808265
0.812575
0.820198
0.823599
0.815299
0.792589
0.753593
0.697609
0.6392
0.596503
0.57383
0.559193
0.789562
0.793335
0.797998
0.800013
0.804147
0.811182
0.819214
0.828009
0.831913
0.825543
0.804237
0.768699
0.71647
0.656177
0.60563
0.577077
0.558437
0.784769
0.790642
0.794703
0.795809
0.798537
0.807882
0.821363
0.83404
0.840203
0.83483
0.813828
0.777513
0.728824
0.670509
0.617901
0.585976
0.563908
0.777593
0.78399
0.78472
0.785678
0.788425
0.798146
0.815122
0.833553
0.844076
0.840506
0.820685
0.785011
0.735049
0.677987
0.627405
0.594725
0.570654
0.759968
0.762771
0.759326
0.761898
0.768924
0.781379
0.798816
0.820431
0.836224
0.838546
0.823126
0.788756
0.738451
0.68194
0.632377
0.599174
0.57369
0.69403
0.724056
0.717251
0.726699
0.739031
0.753831
0.772949
0.795671
0.815738
0.8251
0.816094
0.783231
0.736358
0.68066
0.632378
0.599395
0.573255
0.621346
0.697612
0.692877
0.706155
0.715833
0.726984
0.746497
0.770724
0.790708
0.802173
0.797843
0.771796
0.723919
0.6708
0.627066
0.591653
0.564055
0.879066
0.712299
0.692319
0.704355
0.709335
0.715027
0.732388
0.754439
0.773246
0.782411
0.777021
0.753848
0.711864
0.661688
0.622324
0.584855
0.556344
1.05115
0.772986
0.723099
0.731276
0.729875
0.72717
0.734971
0.750763
0.7676
0.775047
0.769055
0.746863
0.706173
0.657831
0.620832
0.582527
0.555675
1.16106
0.895319
0.772588
0.775137
0.771792
0.757739
0.755144
0.76586
0.778651
0.781566
0.77293
0.749697
0.709049
0.661588
0.624311
0.588098
0.567968
1.23286
0.996806
0.838944
0.802929
0.807618
0.800737
0.793925
0.79685
0.804805
0.804741
0.79025
0.762886
0.722276
0.672122
0.639774
0.613549
0.598568
1.28629
1.06699
0.908594
0.84116
0.824716
0.828269
0.830866
0.834806
0.835226
0.829163
0.814026
0.78869
0.750201
0.704273
0.673974
0.64871
0.631423
1.32642
1.13093
0.967722
0.88198
0.841926
0.844227
0.849679
0.859319
0.861907
0.855525
0.844056
0.822076
0.7875
0.74559
0.706788
0.679462
0.670604
1.35949
1.18657
1.0245
0.920372
0.867625
0.853762
0.857635
0.866532
0.873973
0.876139
0.867808
0.84623
0.815438
0.776738
0.738095
0.720408
0.714967
1.38711
1.23451
1.0767
0.966975
0.89732
0.864236
0.865042
0.869456
0.879281
0.883854
0.875809
0.854834
0.828637
0.795235
0.765311
0.752541
0.738189
1.41051
1.27421
1.12584
1.01438
0.934041
0.880258
0.873748
0.874687
0.881475
0.88547
0.877915
0.857285
0.834753
0.807172
0.777698
0.763171
0.746962
1.43179
1.30752
1.16955
1.06147
0.976061
0.904015
0.886653
0.881685
0.882093
0.883186
0.876658
0.85661
0.837444
0.814777
0.785408
0.76865
0.748921
1.45064
1.33663
1.20804
1.10527
1.0178
0.934329
0.9071
0.892101
0.884781
0.883787
0.877169
0.85844
0.84091
0.820273
0.79186
0.773526
0.755079
1.46725
1.3617
1.24252
1.14419
1.05685
0.970112
0.931633
0.906348
0.890469
0.88745
0.880847
0.863158
0.846756
0.827619
0.799417
0.780398
0.766283
1.48266
1.38344
1.27252
1.17942
1.0929
1.00485
0.96002
0.924292
0.899351
0.894509
0.887188
0.870374
0.855717
0.837857
0.808692
0.788596
0.780875
1.49682
1.40345
1.29914
1.21014
1.12637
1.03849
0.988618
0.94423
0.910209
0.904251
0.894987
0.878153
0.86491
0.848902
0.819778
0.800131
0.793626
1.50973
1.4222
1.32359
1.23841
1.15688
1.06962
1.01718
0.96852
0.924145
0.913821
0.901845
0.882879
0.869575
0.8573
0.831583
0.809505
0.80106
1.52107
1.43969
1.34611
1.26459
1.18597
1.0987
1.04408
0.995074
0.941657
0.924759
0.908553
0.885882
0.872259
0.863182
0.842187
0.816998
0.805463
1.53051
1.45546
1.367
1.28845
1.21355
1.12702
1.06941
1.02182
0.962418
0.936766
0.917582
0.889406
0.873985
0.867298
0.850611
0.825244
0.808408
1.53882
1.46935
1.38626
1.31054
1.23935
1.15477
1.09374
1.04809
0.985606
0.949173
0.92964
0.897867
0.877119
0.870224
0.857925
0.833874
0.811457
1.54693
1.48179
1.40415
1.33083
1.26379
1.18242
1.11633
1.07293
1.0126
0.962957
0.941781
0.910131
0.8825
0.872934
0.86398
0.84159
0.815484
1.55532
1.49332
1.42084
1.34957
1.28648
1.2102
1.13909
1.09489
1.04012
0.982616
0.955681
0.925918
0.890707
0.875045
0.867328
0.847524
0.821854
1.56394
1.50397
1.43608
1.36685
1.30696
1.23684
1.16296
1.1154
1.06581
1.0059
0.971841
0.944583
0.905553
0.879634
0.870426
0.852264
0.827275
1.57241
1.51387
1.44967
1.38248
1.32528
1.26149
1.18706
1.13528
1.09052
1.0312
0.988989
0.962985
0.925424
0.888388
0.874034
0.857361
0.8324
1.58046
1.52346
1.46222
1.39654
1.34112
1.28371
1.21159
1.15441
1.11264
1.05752
1.00806
0.979933
0.944496
0.901086
0.880652
0.864275
0.83845
1.58789
1.53298
1.47447
1.41006
1.35467
1.30281
1.23544
1.17439
1.13214
1.08113
1.0285
0.997498
0.963054
0.916525
0.890444
0.874163
0.846685
1.59462
1.54227
1.48682
1.42377
1.36711
1.31918
1.25759
1.19438
1.15093
1.10274
1.04833
1.01489
0.982323
0.934791
0.903109
0.88608
0.857708
1.60064
1.5507
1.49877
1.43791
1.37943
1.33306
1.27771
1.21436
1.16883
1.12325
1.06825
1.03133
1.00092
0.955478
0.918869
0.899518
0.870186
1.60604
1.55754
1.50936
1.45179
1.39225
1.34511
1.29524
1.23388
1.18641
1.14263
1.08815
1.04768
1.01879
0.976445
0.936323
0.914686
0.88406
1.61092
1.56347
1.51808
1.4647
1.40525
1.35639
1.31033
1.25216
1.20357
1.16147
1.10819
1.06367
1.03597
0.997197
0.953609
0.929951
0.900794
1.61547
1.56851
1.52514
1.4763
1.41828
1.3677
1.32347
1.26889
1.22008
1.17956
1.12845
1.08004
1.05196
1.01681
0.971503
0.944352
0.91825
1.62014
1.57327
1.53061
1.4864
1.43124
1.37936
1.33559
1.28416
1.23575
1.19691
1.14867
1.09717
1.06701
1.03539
0.989986
0.958746
0.93606
1.62528
1.57823
1.53535
1.49488
1.4437
1.39148
1.34749
1.29838
1.25036
1.21313
1.16849
1.11546
1.08141
1.05282
1.00978
0.973444
0.95276
1.63075
1.58399
1.54021
1.50165
1.45494
1.40372
1.35947
1.3119
1.2639
1.2277
1.18718
1.13479
1.09592
1.06909
1.03024
0.989802
0.967495
1.63597
1.5903
1.54526
1.50654
1.46424
1.41537
1.37136
1.32494
1.27658
1.24024
1.20406
1.15462
1.11096
1.0841
1.05029
1.00812
0.980738
1.64021
1.59679
1.5512
1.51124
1.47166
1.42588
1.38281
1.33762
1.289
1.25111
1.21861
1.17388
1.12697
1.09781
1.06869
1.0281
0.994085
1.64302
1.60284
1.55778
1.51659
1.47774
1.43512
1.39386
1.35019
1.30176
1.2616
1.23091
1.19165
1.14402
1.11082
1.08501
1.0485
1.00913
1.6447
1.60805
1.56469
1.52277
1.48362
1.44326
1.40442
1.36288
1.31544
1.27294
1.24157
1.2075
1.16211
1.12397
1.09908
1.06773
1.0268
1.64581
1.61209
1.57162
1.52977
1.49003
1.45059
1.41419
1.37538
1.32991
1.28573
1.25187
1.22134
1.18038
1.13829
1.11122
1.08477
1.04656
1.64689
1.61479
1.57803
1.53736
1.49707
1.45762
1.4228
1.38693
1.34412
1.29983
1.26297
1.23322
1.19752
1.15438
1.12252
1.09911
1.06622
1.64827
1.61664
1.58336
1.54505
1.50493
1.46477
1.43008
1.39691
1.35682
1.3143
1.27534
1.24344
1.21242
1.17174
1.13482
1.11082
1.08361
1.65013
1.61818
1.58724
1.55227
1.51347
1.47252
1.43658
1.40537
1.36778
1.32786
1.28879
1.2537
1.22479
1.18889
1.14906
1.12116
1.09802
1.6531
1.62009
1.58999
1.55843
1.52221
1.48126
1.44372
1.41302
1.37764
1.33991
1.30292
1.26541
1.23506
1.20413
1.16512
1.13246
1.10942
1.65702
1.623
1.59266
1.56332
1.53059
1.49097
1.45203
1.42095
1.38736
1.35071
1.3166
1.27871
1.24543
1.21698
1.18158
1.14588
1.11909
1.6618
1.6272
1.59604
1.56792
1.53827
1.50117
1.46165
1.42963
1.39745
1.36107
1.32899
1.29286
1.25718
1.22801
1.19639
1.16118
1.12967
1.66676
1.63233
1.60027
1.57158
1.54494
1.51095
1.47188
1.43882
1.40765
1.37152
1.34003
1.30639
1.27001
1.23875
1.20852
1.17672
1.14257
1.6713
1.63811
1.60546
1.57554
1.55016
1.51945
1.48182
1.4479
1.41739
1.38185
1.35002
1.31831
1.28277
1.25024
1.21853
1.19016
1.15749
1.67495
1.64406
1.61148
1.58032
1.55395
1.52664
1.49102
1.45659
1.42643
1.39168
1.35934
1.3287
1.29436
1.26228
1.22851
1.20063
1.17248
1.67731
1.64969
1.61797
1.586
1.55811
1.5323
1.49941
1.46497
1.43499
1.40103
1.36822
1.33832
1.30454
1.27403
1.23963
1.20935
1.18533
1.67928
1.65447
1.62464
1.59244
1.56331
1.53736
1.50701
1.47311
1.44329
1.41015
1.37681
1.34777
1.31395
1.28471
1.25164
1.21861
1.19594
1.68058
1.65815
1.63105
1.59923
1.56953
1.54255
1.51384
1.48089
1.45136
1.41923
1.38527
1.35707
1.32335
1.29415
1.26366
1.22898
1.20556
1.68194
1.66056
1.63639
1.60586
1.57578
1.54804
1.51998
1.48803
1.45892
1.4281
1.39362
1.36587
1.33282
1.30278
1.2748
1.24015
1.21537
1.68416
1.66205
1.64036
1.61171
1.58189
1.5536
1.52551
1.49433
1.46562
1.43632
1.40171
1.37398
1.34208
1.31124
1.2849
1.25149
1.22569
1.68721
1.66361
1.64279
1.6163
1.58761
1.55878
1.53068
1.50005
1.4715
1.44368
1.40943
1.38158
1.35103
1.31991
1.29441
1.26257
1.23642
1.69125
1.66606
1.64445
1.61971
1.5928
1.56402
1.53581
1.50557
1.47701
1.45049
1.41705
1.38911
1.35984
1.32903
1.30394
1.27335
1.24724
1.69573
1.66916
1.64651
1.62223
1.59724
1.56916
1.54106
1.51125
1.48263
1.45721
1.42488
1.39698
1.36876
1.33857
1.31385
1.28404
1.25782
1.6998
1.67318
1.64884
1.62436
1.60089
1.57382
1.54628
1.51715
1.48861
1.46401
1.43298
1.40527
1.37783
1.34825
1.3241
1.29488
1.26801
1.70304
1.67694
1.65223
1.62689
1.60407
1.57817
1.55143
1.52312
1.49474
1.47072
1.44104
1.41373
1.38691
1.35771
1.33432
1.30599
1.27797
1.70541
1.68031
1.65535
1.62952
1.60709
1.5822
1.55621
1.52881
1.50078
1.47728
1.44891
1.42207
1.39596
1.36686
1.3441
1.31718
1.28804
1.7066
1.68319
1.65843
1.63246
1.61016
1.58586
1.56067
1.53448
1.507
1.48394
1.45669
1.43021
1.40498
1.37591
1.35329
1.32807
1.29847
1.70685
1.68538
1.66143
1.63578
1.61358
1.58977
1.56551
1.54062
1.51368
1.4909
1.46456
1.4382
1.41398
1.38511
1.36203
1.33833
1.30915
1.70684
1.68712
1.66446
1.63949
1.61765
1.59446
1.57099
1.54717
1.52068
1.49807
1.47253
1.44608
1.42282
1.39449
1.37058
1.34774
1.31975
1.70761
1.68895
1.66752
1.64349
1.62227
1.59959
1.57645
1.55344
1.52752
1.50513
1.48043
1.45381
1.43121
1.4038
1.37909
1.35633
1.32974
1.70904
1.69068
1.67047
1.64774
1.62707
1.60453
1.58147
1.55923
1.53396
1.51182
1.48799
1.46128
1.43888
1.41255
1.38737
1.36428
1.33878
1.71098
1.69239
1.67345
1.65217
1.63178
1.60938
1.58647
1.56482
1.54011
1.51813
1.49512
1.46841
1.44584
1.42045
1.39521
1.37177
1.34688
1.71329
1.69431
1.67638
1.65626
1.63638
1.61439
1.59162
1.57043
1.54616
1.52414
1.5018
1.47521
1.45234
1.42762
1.40253
1.37892
1.35429
1.71579
1.69663
1.67936
1.66027
1.64103
1.61951
1.59697
1.57622
1.55227
1.52998
1.50811
1.48175
1.45861
1.43445
1.40951
1.38578
1.36125
1.71845
1.69957
1.68295
1.66461
1.64565
1.62457
1.60247
1.58211
1.55843
1.53564
1.51405
1.48808
1.46474
1.44106
1.41633
1.3924
1.36787
1.72146
1.70308
1.68689
1.66885
1.6499
1.62906
1.60742
1.58744
1.56417
1.54101
1.51947
1.49403
1.47064
1.44739
1.42294
1.39877
1.37425
1.72497
1.70688
1.69068
1.67267
1.65375
1.63301
1.61145
1.59177
1.56918
1.54583
1.52435
1.49949
1.476
1.45313
1.42921
1.40498
1.38051
1.72849
1.71046
1.69404
1.67598
1.65707
1.63638
1.61493
1.59553
1.57359
1.55016
1.52869
1.50436
1.48082
1.4583
1.43515
1.41117
1.38682
1.73154
1.71352
1.69693
1.67871
1.65967
1.63917
1.61806
1.59878
1.57752
1.55417
1.53279
1.50899
1.48546
1.46324
1.44103
1.41751
1.39326
1.73392
1.71594
1.69932
1.68085
1.66164
1.64172
1.62113
1.60188
1.58098
1.55792
1.53677
1.51365
1.4903
1.46836
1.44705
1.42405
1.3997
1.73563
1.71778
1.70117
1.68252
1.66346
1.64426
1.62413
1.60496
1.58428
1.56144
1.54057
1.51842
1.49562
1.47393
1.45316
1.43045
1.40586
1.73679
1.71915
1.70266
1.68417
1.66546
1.64674
1.62705
1.60803
1.58749
1.56467
1.54398
1.52307
1.501
1.47923
1.45865
1.43624
1.41162
1.73775
1.72043
1.70411
1.68594
1.66751
1.6492
1.62983
1.61093
1.59047
1.56761
1.5471
1.52729
1.50579
1.48372
1.46337
1.44151
1.41715
1.73878
1.72187
1.70564
1.68769
1.66951
1.65163
1.63244
1.61342
1.59296
1.5704
1.5503
1.53113
1.51014
1.48796
1.46781
1.44659
1.42268
1.73996
1.72347
1.70721
1.68932
1.67136
1.6539
1.63468
1.61534
1.59516
1.57363
1.55387
1.53501
1.51444
1.49232
1.47231
1.45174
1.42837
1.74115
1.72509
1.70882
1.6909
1.67302
1.65568
1.63635
1.61717
1.59791
1.57722
1.55771
1.5391
1.51891
1.49688
1.47698
1.45707
1.43422
1.74229
1.72667
1.71042
1.69243
1.67439
1.65704
1.63817
1.61977
1.60118
1.58104
1.56183
1.54358
1.52371
1.50163
1.48172
1.46249
1.44013
1.74344
1.72814
1.71188
1.69377
1.67575
1.65882
1.64072
1.62279
1.60465
1.58511
1.56627
1.5483
1.52839
1.50619
1.48638
1.46782
1.44598
1.74465
1.72941
1.71302
1.69493
1.67746
1.66131
1.64357
1.62583
1.60823
1.58933
1.57048
1.55224
1.53236
1.51044
1.49085
1.47295
1.45179
1.74584
1.73047
1.71386
1.69607
1.67967
1.66411
1.64654
1.62878
1.61155
1.59303
1.57403
1.55567
1.53603
1.51456
1.49522
1.47792
1.45767
1.74688
1.73133
1.71465
1.69754
1.68217
1.66697
1.64945
1.6316
1.6145
1.59628
1.57727
1.55893
1.53972
1.51868
1.4996
1.48287
1.46355
1.74774
1.73208
1.71563
1.69947
1.68478
1.66975
1.65229
1.63422
1.61705
1.59899
1.58039
1.56236
1.54348
1.52296
1.50418
1.48786
1.46912
1.74855
1.73291
1.71697
1.70176
1.68744
1.67236
1.65479
1.63644
1.61926
1.60177
1.5837
1.56587
1.54743
1.52766
1.50913
1.4928
1.47412
1.74955
1.73402
1.71859
1.70411
1.69007
1.67469
1.6567
1.63837
1.62186
1.60483
1.58706
1.56944
1.55174
1.53284
1.51415
1.49736
1.47844
1.75079
1.73542
1.72049
1.70655
1.69255
1.67658
1.65806
1.64063
1.62497
1.60824
1.59066
1.57331
1.55628
1.53784
1.51866
1.50133
1.48244
1.75216
1.73697
1.72246
1.70893
1.69476
1.67801
1.65949
1.64341
1.62839
1.61207
1.59457
1.57723
1.56036
1.5421
1.52272
1.50508
1.4864
1.75354
1.73856
1.72443
1.7111
1.69647
1.67917
1.66156
1.64647
1.63209
1.61593
1.59814
1.58047
1.56356
1.54584
1.52664
1.50881
1.49047
1.75478
1.74003
1.72633
1.71295
1.69772
1.68054
1.66427
1.64994
1.63567
1.61926
1.60123
1.58348
1.56663
1.54936
1.53046
1.5126
1.49485
1.75575
1.74129
1.7281
1.71457
1.69899
1.68256
1.66738
1.65359
1.63889
1.62204
1.60384
1.58625
1.56982
1.55289
1.53426
1.51657
1.49983
1.75642
1.74239
1.72988
1.7163
1.70072
1.68496
1.67071
1.65707
1.64175
1.62432
1.60585
1.58914
1.57316
1.55658
1.53826
1.521
1.50511
1.75693
1.74377
1.73186
1.71827
1.70273
1.68751
1.67389
1.66016
1.64433
1.62602
1.60806
1.59227
1.57683
1.5607
1.54287
1.52587
1.50987
1.75795
1.74563
1.73394
1.72024
1.70475
1.68995
1.67667
1.66276
1.64637
1.62776
1.61089
1.59588
1.58107
1.56533
1.54768
1.53009
1.51365
1.75959
1.74784
1.73595
1.90579
1.87892
1.84594
1.80351
1.74139
1.63099
1.89542
1.86719
1.83264
1.78732
1.7188
1.58097
1.8915
1.86231
1.8272
1.78102
1.70992
1.57109
1.888
1.8577
1.82113
1.77273
1.69845
1.55864
1.88602
1.85465
1.81646
1.76542
1.68848
1.5519
1.88464
1.85205
1.81207
1.75866
1.68031
1.54985
1.88316
1.84955
1.80817
1.75298
1.67402
1.55034
1.88097
1.84668
1.8044
1.74808
1.66943
1.55232
1.87822
1.84355
1.80077
1.74393
1.66673
1.55647
1.87513
1.84027
1.79721
1.7407
1.66605
1.56238
1.87193
1.83685
1.79371
1.73818
1.6664
1.56933
1.86863
1.83326
1.7901
1.73557
1.66649
1.57624
1.86518
1.82957
1.78623
1.73241
1.66577
1.58217
1.8616
1.82591
1.78225
1.72901
1.66487
1.58708
1.858
1.82239
1.77856
1.7263
1.66467
1.59135
1.85443
1.81905
1.7757
1.72485
1.66548
1.59539
1.85086
1.81593
1.7737
1.7244
1.66716
1.59962
1.84732
1.81299
1.77211
1.72421
1.66922
1.60451
1.84406
1.81023
1.77038
1.7239
1.67159
1.61032
1.84137
1.8077
1.76844
1.72352
1.67419
1.61688
1.83935
1.80554
1.76678
1.72344
1.67665
1.6235
1.83777
1.804
1.76604
1.72389
1.6788
1.6292
1.83623
1.80317
1.76613
1.72479
1.6808
1.63374
1.8345
1.80281
1.76662
1.72591
1.68301
1.63775
1.83267
1.80237
1.76712
1.72722
1.68561
1.64174
1.83099
1.8015
1.76737
1.72879
1.68862
1.64581
1.82962
1.80031
1.76749
1.73053
1.69174
1.64982
1.82869
1.7994
1.76777
1.73226
1.69468
1.65368
1.8283
1.79921
1.76838
1.73379
1.69729
1.6576
1.82833
1.79977
1.76932
1.73519
1.69961
1.66186
1.8286
1.8008
1.7704
1.73661
1.70172
1.66616
1.82884
1.80166
1.77135
1.73809
1.7037
1.66968
1.82876
1.80194
1.77196
1.73946
1.70557
1.67202
1.82834
1.80152
1.77208
1.74041
1.70718
1.67344
1.82762
1.80068
1.77161
1.74068
1.70835
1.67436
1.8268
1.79988
1.77092
1.74038
1.70898
1.67519
1.82626
1.79952
1.7706
1.74011
1.70933
1.67616
1.82603
1.79964
1.77086
1.74039
1.70991
1.67742
1.82564
1.79978
1.77139
1.74133
1.71113
1.67921
1.82479
1.7995
1.77166
1.74265
1.71315
1.68184
1.8234
1.79858
1.77138
1.74358
1.71535
1.68563
1.82153
1.79702
1.77067
1.74392
1.71683
1.68999
1.81939
1.79519
1.76958
1.74371
1.71746
1.69374
1.81738
1.79347
1.76841
1.74342
1.71776
1.6957
1.81585
1.7922
1.76747
1.74319
1.71812
1.69644
1.81488
1.79166
1.76714
1.74324
1.71879
1.69706
1.81425
1.79157
1.76745
1.74372
1.71977
1.6979
1.81353
1.79185
1.76856
1.74481
1.72108
1.69895
1.81252
1.79225
1.77039
1.74687
1.72319
1.70046
1.81136
1.79242
1.77222
1.7498
1.72653
1.70292
1.81023
1.79231
1.77355
1.75289
1.73086
1.70676
1.80912
1.79197
1.77446
1.75547
1.73511
1.71171
1.80821
1.79169
1.77532
1.75747
1.73835
1.7167
1.80782
1.79167
1.77611
1.7591
1.74075
1.72074
1.80814
1.79198
1.77652
1.75992
1.74226
1.72353
1.80969
1.79284
1.7766
1.75995
1.74271
1.72496
1.81229
1.79481
1.77716
1.75972
1.74226
1.72509
1.81459
1.79745
1.77871
1.7599
1.7416
1.72422
1.81593
1.7995
1.78098
1.76137
1.74159
1.72344
1.81641
1.8007
1.78265
1.76315
1.74278
1.72373
1.80102
1.78385
1.76427
1.74337
1.72449
1.80056
1.7844
1.76514
1.74446
1.72606
1.79928
1.78386
1.76568
1.7461
1.72828
1.79772
1.78261
1.76611
1.74799
1.73077
1.79654
1.78147
1.76691
1.74998
1.73323
1.79582
1.78141
1.76786
1.75165
1.73559
1.79581
1.78198
1.76861
1.75311
1.7381
1.79692
1.78322
1.7694
1.75472
1.74097
1.79908
1.78508
1.77055
1.75679
1.74397
1.80164
1.78724
1.77238
1.75947
1.7468
1.80402
1.78932
1.7749
1.76241
1.74929
1.80613
1.79139
1.77769
1.76514
1.75125
1.80803
1.79374
1.78049
1.76741
1.75263
1.80982
1.79617
1.78301
1.76902
1.75363
1.81147
1.79834
1.78505
1.77018
1.75446
1.81289
1.80015
1.7866
1.77109
1.75526
1.81404
1.8016
1.78764
1.77179
1.75607
1.8151
1.80262
1.78819
1.77235
1.75686
1.81593
1.80313
1.78835
1.77284
1.7577
1.81642
1.80317
1.7883
1.77337
1.75864
1.81642
1.80283
1.7883
1.77404
1.75965
1.81599
1.80245
1.78862
1.77488
1.76065
1.81548
1.80245
1.7893
1.77575
1.76158
1.81527
1.80291
1.79006
1.7765
1.76242
1.81559
1.80365
1.79064
1.77701
1.76323
1.81638
1.80426
1.79088
1.77729
1.76415
1.81724
1.80459
1.79085
1.77762
1.76525
1.81784
1.80464
1.79079
1.77832
1.76658
1.81812
1.80455
1.79115
1.77973
1.76796
1.81811
1.80458
1.79244
1.78143
1.76926
1.81776
1.80504
1.79412
1.78319
1.77033
1.81735
1.80589
1.79598
1.78467
1.77109
1.81718
1.80705
1.79762
1.78557
1.77155
1.81766
1.80858
1.79867
1.78577
1.77208
1.81891
)
;

boundaryField
{
    inlet
    {
        type            calculated;
        value           nonuniform 0();
    }
    outlet
    {
        type            calculated;
        value           nonuniform 0();
    }
    triangle
    {
        type            calculated;
        value           nonuniform List<scalar> 
71
(
1.90579
1.87892
1.84594
1.80351
1.74139
1.63099
0.696603
0.699113
0.702534
0.705762
0.708284
0.708284
0.705762
0.702534
0.699113
0.696603
0.695521
0.696416
0.698825
0.702022
0.705243
0.70786
0.70876
0.707412
0.704907
0.701519
0.697976
0.695247
0.693425
0.692986
0.694389
0.696224
0.69786
0.698882
0.698641
0.696486
0.694066
0.691278
0.688042
0.685108
0.682228
0.680511
0.681591
0.688398
0.703476
0.722842
0.738792
0.75127
0.760336
0.767445
0.772283
0.774699
0.77523
0.774752
0.774927
0.776254
0.779871
0.786372
0.795141
0.802421
0.806549
0.807461
0.804872
0.800675
0.794722
0.789562
0.784769
0.777593
0.759968
0.69403
0.621346
)
;
    }
    top
    {
        type            symmetryPlane;
    }
    bottom
    {
        type            symmetryPlane;
    }
    defaultFaces
    {
        type            empty;
    }
    procBoundary21to13
    {
        type            processor;
        value           nonuniform List<scalar> 
18
(
0.593746
0.59295
0.593262
0.592648
0.591297
0.695521
0.691904
0.688416
0.684395
0.680209
0.673065
0.658966
0.638672
0.618253
0.603238
0.594247
0.589368
0.589368
)
;
    }
    procBoundary21to14
    {
        type            processor;
        value           nonuniform List<scalar> 
13
(
0.59082
0.591332
0.591637
0.592062
0.592932
0.593718
0.593718
0.592932
0.592062
0.591637
0.591332
0.59082
0.590629
)
;
    }
    procBoundary21to20
    {
        type            processor;
        value           nonuniform List<scalar> 
96
(
1.92813
1.91964
1.91736
1.9147
1.91328
1.91247
1.91146
1.90971
1.90736
1.90459
1.9017
1.89875
1.89567
1.89232
1.88868
1.88492
1.88119
1.87763
1.87437
1.87156
1.86926
1.86733
1.86541
1.86315
1.86057
1.85815
1.85644
1.85554
1.8551
1.85467
1.85408
1.85343
1.85285
1.85248
1.8523
1.85216
1.85179
1.85112
1.85014
1.8487
1.84683
1.84477
1.84269
1.84076
1.83904
1.83742
1.83579
1.83403
1.83207
1.82991
1.82787
1.82614
1.825
1.82466
1.82516
1.8266
1.82833
1.82962
1.8304
1.83066
1.81612
1.81612
1.81477
1.81298
1.81182
1.81184
1.81188
1.81195
1.8124
1.81342
1.81479
1.81642
1.81838
1.82034
1.82218
1.82382
1.82522