/*--------------------------------*- C++ -*----------------------------------*\
  =========                 |
  \\      /  F ield         | OpenFOAM: The Open Source CFD Toolbox
   \\    /   O peration     | Website:  https://openfoam.org
    \\  /    A nd           | Version:  7
     \\/     M anipulation  |
\*---------------------------------------------------------------------------*/
FoamFile
{
    version     2.0;
    format      ascii;
    class       volScalarField;
    location    "0.3";
    object      T;
}
// * * * * * * * * * * * * * * * * * * * * * * * * * * * * * * * * * * * * * //

dimensions      [0 0 0 1 0 0 0];

internalField   nonuniform List<scalar> 
3225
(
0.880349
0.889303
0.89743
0.90275
0.906004
0.767985
0.767512
0.768087
0.768453
0.770536
0.778339
0.795604
0.821074
0.846296
0.863819
0.873708
0.879884
0.88604
0.893265
0.900205
0.904729
0.907631
0.769111
0.768597
0.769022
0.769326
0.771663
0.780463
0.80025
0.828811
0.856189
0.874022
0.883044
0.888047
0.893009
0.898871
0.904624
0.908792
0.911488
0.770638
0.770101
0.77041
0.770572
0.772968
0.782608
0.80417
0.835002
0.864172
0.882727
0.891199
0.895832
0.900076
0.904972
0.909807
0.913903
0.916611
0.772073
0.77154
0.771793
0.771888
0.774272
0.784259
0.806801
0.83892
0.869199
0.887695
0.896229
0.901569
0.905475
0.909525
0.913983
0.918049
0.921016
0.773187
0.772667
0.772888
0.7729
0.775139
0.785031
0.807672
0.83999
0.870581
0.890057
0.89858
0.904382
0.908088
0.91161
0.91591
0.919952
0.922983
0.773187
0.772667
0.772888
0.7729
0.775139
0.785031
0.807672
0.83999
0.870581
0.890057
0.89858
0.904382
0.908088
0.91161
0.91591
0.919952
0.922983
0.772073
0.77154
0.771793
0.771888
0.774272
0.784259
0.806801
0.83892
0.869199
0.887695
0.896229
0.901569
0.905475
0.909525
0.913983
0.918049
0.921016
0.770638
0.770101
0.77041
0.770572
0.772968
0.782608
0.80417
0.835002
0.864172
0.882727
0.891199
0.895832
0.900076
0.904972
0.909807
0.913903
0.916611
0.769111
0.768597
0.769022
0.769326
0.771663
0.780463
0.80025
0.828811
0.856189
0.874022
0.883044
0.888047
0.893009
0.898871
0.904624
0.908792
0.911488
0.767985
0.767512
0.768087
0.768453
0.770536
0.778339
0.795604
0.821074
0.846296
0.863819
0.873708
0.879884
0.88604
0.893265
0.900205
0.904729
0.907631
0.767494
0.766954
0.767622
0.768142
0.770135
0.776745
0.79106
0.812929
0.835682
0.852867
0.864023
0.872158
0.880349
0.889303
0.89743
0.90275
0.906004
0.767873
0.767223
0.767949
0.768582
0.770479
0.775726
0.787098
0.805155
0.825326
0.84229
0.854872
0.865079
0.875466
0.886294
0.895882
0.902435
0.906057
0.7689
0.768113
0.768824
0.769518
0.771195
0.775423
0.784329
0.798822
0.816265
0.832719
0.846376
0.858215
0.870357
0.882934
0.894133
0.902236
0.906678
0.770259
0.769277
0.769764
0.77043
0.77205
0.775525
0.782509
0.794158
0.808829
0.824243
0.838214
0.850887
0.864077
0.877988
0.890935
0.901075
0.906947
0.771632
0.77041
0.770524
0.771045
0.772707
0.775977
0.781717
0.791249
0.803344
0.817043
0.830314
0.842776
0.856181
0.87093
0.885393
0.897783
0.906024
0.772756
0.771242
0.770904
0.771234
0.772874
0.77628
0.781306
0.789237
0.799379
0.811139
0.822826
0.834272
0.847227
0.862251
0.87781
0.892329
0.903433
0.773137
0.771534
0.770814
0.770874
0.772287
0.775673
0.780519
0.787519
0.796119
0.806029
0.816026
0.82628
0.838538
0.853454
0.869729
0.885909
0.899674
0.772531
0.771106
0.770246
0.770004
0.770977
0.773942
0.77863
0.785207
0.792859
0.801399
0.810194
0.819621
0.831303
0.845843
0.862173
0.879662
0.895753
0.771388
0.770234
0.769445
0.769102
0.769629
0.7719
0.775913
0.781596
0.788726
0.796762
0.805123
0.814312
0.825741
0.839887
0.855908
0.873898
0.891727
0.769824
0.769036
0.768564
0.768292
0.768542
0.770024
0.773051
0.777551
0.783657
0.791545
0.800198
0.809756
0.82129
0.835224
0.850945
0.868961
0.887615
0.768155
0.767762
0.767737
0.767639
0.767714
0.768619
0.77062
0.773829
0.778811
0.786273
0.795288
0.805391
0.817311
0.831202
0.846758
0.864444
0.883237
0.766845
0.76686
0.767178
0.767305
0.767411
0.767989
0.769209
0.771286
0.775198
0.782145
0.791098
0.801414
0.813544
0.827518
0.842981
0.860115
0.87865
0.765944
0.766153
0.766967
0.767465
0.767768
0.768265
0.7689
0.77021
0.773263
0.77951
0.788167
0.798459
0.810504
0.824191
0.839622
0.856324
0.874636
0.765684
0.765961
0.767174
0.768022
0.76857
0.769141
0.769715
0.770674
0.772904
0.778391
0.786814
0.797036
0.808667
0.82194
0.837527
0.853949
0.871941
0.766172
0.766344
0.767667
0.768778
0.769762
0.770612
0.771203
0.77192
0.77352
0.778553
0.786775
0.796633
0.807556
0.821067
0.836923
0.853133
0.870603
0.766707
0.766701
0.768073
0.769442
0.77098
0.772357
0.773208
0.77409
0.775427
0.779719
0.786745
0.795822
0.807107
0.821012
0.837268
0.853498
0.870467
0.767102
0.766885
0.768133
0.769648
0.771759
0.773778
0.774981
0.776002
0.776926
0.779958
0.786437
0.795565
0.807211
0.82185
0.83864
0.855081
0.871398
0.767309
0.766861
0.767821
0.769405
0.771913
0.774392
0.775917
0.776766
0.777668
0.780409
0.786081
0.794898
0.807139
0.823133
0.84099
0.857761
0.873393
0.767053
0.766454
0.766969
0.768479
0.771061
0.773752
0.775615
0.776626
0.777706
0.779954
0.784829
0.793603
0.806998
0.825112
0.843881
0.860797
0.875749
0.76597
0.76546
0.7658
0.767217
0.769488
0.77184
0.773701
0.77499
0.776006
0.777925
0.782773
0.792607
0.808239
0.827905
0.846991
0.86337
0.877503
0.764786
0.764518
0.765005
0.766546
0.768409
0.769879
0.771052
0.772096
0.773174
0.775408
0.781374
0.79313
0.810866
0.831434
0.849743
0.86479
0.878093
0.763396
0.763454
0.764369
0.766162
0.76783
0.768477
0.768497
0.768517
0.769143
0.772295
0.780302
0.794576
0.814416
0.83501
0.851726
0.8651
0.877541
0.761751
0.762395
0.763776
0.765909
0.767458
0.767588
0.76662
0.765663
0.765706
0.769706
0.779949
0.796776
0.81829
0.83823
0.852701
0.864298
0.875774
0.760196
0.761136
0.763325
0.765821
0.767374
0.767299
0.765588
0.763727
0.763238
0.767923
0.780115
0.799492
0.822159
0.840634
0.852789
0.862272
0.872829
0.758723
0.760066
0.762812
0.765941
0.767768
0.767633
0.765449
0.763038
0.762134
0.76708
0.781125
0.802729
0.825648
0.841695
0.851553
0.858923
0.868737
0.757867
0.759225
0.76237
0.765994
0.76822
0.768388
0.766647
0.763948
0.762619
0.767733
0.783343
0.806361
0.828419
0.841681
0.84869
0.854412
0.863696
0.758264
0.759177
0.762243
0.765968
0.768737
0.769353
0.768191
0.766082
0.764995
0.770304
0.786748
0.810029
0.830019
0.840413
0.845022
0.84918
0.857955
0.761104
0.761152
0.763313
0.76645
0.769239
0.770461
0.770021
0.768816
0.768365
0.774012
0.790776
0.813198
0.8306
0.838169
0.84099
0.843495
0.851476
0.767256
0.766426
0.767414
0.768426
0.770078
0.771448
0.771594
0.771424
0.772053
0.778033
0.794403
0.815377
0.830563
0.835674
0.837118
0.837836
0.844002
0.775174
0.774114
0.774781
0.774072
0.772718
0.772472
0.772418
0.772312
0.773846
0.780609
0.796772
0.816627
0.830258
0.83392
0.833439
0.832168
0.835362
0.781713
0.780763
0.781559
0.78156
0.779218
0.775022
0.772609
0.771941
0.773622
0.781196
0.797899
0.817543
0.830375
0.833533
0.8307
0.826362
0.825718
0.786753
0.785876
0.786204
0.786899
0.786303
0.781247
0.774284
0.771189
0.772429
0.780488
0.798219
0.81856
0.831234
0.834097
0.829091
0.820502
0.815819
0.790262
0.789458
0.789474
0.790209
0.790763
0.787467
0.77896
0.771693
0.771261
0.779464
0.798564
0.81988
0.832611
0.835221
0.827968
0.815479
0.806268
0.792893
0.792158
0.792017
0.792458
0.793277
0.791798
0.785483
0.775386
0.771354
0.779133
0.799255
0.821688
0.834283
0.836773
0.82756
0.81191
0.798462
0.794572
0.794003
0.794118
0.794508
0.79509
0.794578
0.791144
0.783286
0.775392
0.78125
0.801139
0.824432
0.836787
0.83861
0.827178
0.809376
0.793468
0.795294
0.794979
0.79568
0.796491
0.797011
0.796839
0.795131
0.790516
0.78539
0.787564
0.805889
0.828501
0.840033
0.84033
0.826742
0.808652
0.79277
0.795323
0.795249
0.796536
0.798074
0.799107
0.799105
0.79808
0.795888
0.794973
0.797654
0.813255
0.834105
0.844431
0.842084
0.825957
0.807669
0.793268
0.795015
0.795107
0.796758
0.798991
0.800825
0.801418
0.800661
0.799598
0.801157
0.807356
0.82235
0.840682
0.849271
0.843729
0.82591
0.807986
0.795046
0.794961
0.794887
0.796747
0.799395
0.802019
0.803587
0.803462
0.802714
0.804942
0.813865
0.829993
0.846492
0.853492
0.845301
0.826776
0.809487
0.797863
0.79539
0.795407
0.797092
0.799806
0.803027
0.805675
0.806578
0.806357
0.808338
0.817046
0.833918
0.850003
0.855812
0.846939
0.83006
0.813372
0.801643
0.796773
0.796759
0.798252
0.800829
0.804361
0.807844
0.809736
0.810272
0.811977
0.819492
0.835177
0.850882
0.85661
0.849118
0.835225
0.819441
0.806807
0.799314
0.799173
0.800261
0.802409
0.805858
0.809921
0.812566
0.81396
0.815885
0.822059
0.835703
0.850644
0.856431
0.851666
0.841653
0.82732
0.813789
0.802745
0.80218
0.802358
0.803764
0.806822
0.811189
0.814531
0.816509
0.818948
0.824915
0.836711
0.850281
0.856017
0.854053
0.847967
0.835768
0.822357
0.805594
0.804679
0.803995
0.804343
0.80706
0.811597
0.815723
0.81795
0.820318
0.826435
0.837507
0.850128
0.856028
0.856149
0.853326
0.844012
0.831833
0.807205
0.805865
0.80482
0.804563
0.806799
0.811196
0.816085
0.818867
0.820858
0.826208
0.837005
0.849808
0.85667
0.858639
0.857882
0.85196
0.841858
0.807556
0.806011
0.805119
0.804815
0.806684
0.810564
0.815775
0.81947
0.821545
0.82582
0.835735
0.848723
0.857722
0.861936
0.862154
0.858904
0.851503
0.806475
0.805946
0.806055
0.806399
0.807893
0.810612
0.815304
0.819881
0.822552
0.825965
0.834741
0.847147
0.858102
0.864606
0.865623
0.863223
0.858652
0.804669
0.804988
0.806471
0.807946
0.810188
0.812155
0.815233
0.820432
0.824006
0.827096
0.834757
0.845974
0.85747
0.864902
0.866247
0.865376
0.862492
0.801904
0.803196
0.805879
0.808338
0.811464
0.814066
0.81701
0.82187
0.825885
0.828924
0.835026
0.845027
0.855463
0.863076
0.865042
0.86524
0.863831
0.799602
0.801691
0.805049
0.808187
0.812023
0.816129
0.820172
0.825085
0.829115
0.831767
0.835859
0.844052
0.852919
0.859306
0.862175
0.864563
0.863645
0.798548
0.802202
0.80701
0.811057
0.814633
0.819475
0.824988
0.830902
0.835049
0.836917
0.838526
0.84307
0.850677
0.855675
0.858676
0.863601
0.864742
0.80012
0.808608
0.818109
0.823642
0.825871
0.828697
0.833771
0.840303
0.844626
0.845521
0.844916
0.84604
0.849427
0.85256
0.855913
0.862174
0.865246
0.815195
0.836061
0.85037
0.853639
0.852036
0.851359
0.852748
0.856395
0.859673
0.859809
0.857362
0.855185
0.853382
0.853385
0.85558
0.861986
0.865895
0.861123
0.902368
0.902904
0.89765
0.890387
0.886723
0.884972
0.883938
0.88412
0.883034
0.878587
0.872059
0.866703
0.861571
0.860397
0.865137
0.869092
0.934552
0.967814
0.944697
0.932003
0.925132
0.921743
0.91941
0.916143
0.9142
0.912739
0.907979
0.900134
0.889494
0.879996
0.875851
0.874473
0.874984
0.95862
0.940741
0.935466
0.938887
0.940269
0.939343
0.938671
0.938497
0.939525
0.940273
0.936728
0.929858
0.920421
0.909302
0.902879
0.894409
0.886825
0.951031
0.883708
0.896155
0.916298
0.929267
0.935665
0.940406
0.945443
0.950273
0.953879
0.951923
0.946974
0.938726
0.928001
0.921205
0.908875
0.895291
0.961613
0.88713
0.862316
0.874988
0.892051
0.905797
0.919097
0.933008
0.941976
0.949755
0.949421
0.945997
0.938058
0.926719
0.918422
0.905702
0.892226
0.978921
0.903347
0.848364
0.847432
0.856231
0.868399
0.88298
0.898453
0.912
0.924998
0.930936
0.929451
0.923272
0.909425
0.899508
0.887113
0.869764
0.994582
0.923273
0.862908
0.838538
0.839736
0.846204
0.856556
0.867192
0.875821
0.884503
0.89429
0.895563
0.891798
0.880849
0.86844
0.851216
0.82982
1.0052
0.94339
0.88413
0.84799
0.837357
0.83982
0.84479
0.851004
0.8553
0.859342
0.864559
0.864404
0.860626
0.850757
0.8349
0.8169
0.803081
1.01267
0.959609
0.904474
0.864469
0.843934
0.840042
0.841674
0.844764
0.847381
0.851619
0.851001
0.847322
0.840748
0.829617
0.814906
0.804342
0.797576
1.01811
0.972386
0.920938
0.882667
0.856319
0.843072
0.842154
0.843143
0.846172
0.848961
0.846622
0.840259
0.832144
0.8207
0.809024
0.802523
0.794886
1.02231
0.982213
0.935167
0.898141
0.869786
0.849622
0.844279
0.843959
0.846245
0.848209
0.845673
0.838313
0.830108
0.81952
0.807266
0.80067
0.793193
1.02619
0.990102
0.947254
0.912246
0.882977
0.857184
0.848866
0.846123
0.84645
0.847054
0.844763
0.837184
0.829521
0.82001
0.807549
0.80029
0.79168
1.02975
0.996942
0.957652
0.924969
0.895434
0.865784
0.855387
0.849642
0.84718
0.846901
0.84433
0.836881
0.829472
0.82063
0.808625
0.801049
0.793212
1.03299
1.00283
0.966915
0.936124
0.907002
0.87649
0.862805
0.853835
0.848331
0.847217
0.844544
0.837323
0.830496
0.822617
0.811104
0.803412
0.797555
1.03619
1.008
0.974948
0.946185
0.917769
0.887351
0.871746
0.859057
0.850149
0.848406
0.845555
0.83887
0.833046
0.826007
0.814427
0.806366
0.803167
1.03931
1.0129
0.982124
0.954924
0.927821
0.898092
0.880998
0.865195
0.852773
0.850673
0.8472
0.840716
0.835678
0.82957
0.818202
0.810335
0.807612
1.04226
1.01761
0.988776
0.962995
0.937005
0.908038
0.890346
0.873143
0.856945
0.853255
0.848807
0.841625
0.836671
0.832101
0.822147
0.813364
0.809954
1.04483
1.02204
0.994911
0.970472
0.945776
0.917294
0.899122
0.882028
0.862764
0.856708
0.850722
0.842206
0.837185
0.833861
0.825769
0.815822
0.811303
1.04686
1.02598
1.00056
0.977239
0.95405
0.926254
0.907331
0.890986
0.869899
0.860793
0.853785
0.843231
0.837559
0.835175
0.828781
0.818816
0.812294
1.04854
1.02934
1.00567
0.983418
0.9617
0.934944
0.915136
0.899734
0.877928
0.865104
0.858093
0.846299
0.838612
0.836205
0.83156
0.822186
0.813501
1.05013
1.03223
1.0103
0.988983
0.96883
0.943489
0.922286
0.907923
0.887254
0.869911
0.862446
0.850848
0.840592
0.837237
0.833957
0.825318
0.815193
1.05173
1.03481
1.01452
0.994011
0.975323
0.951939
0.929417
0.915061
0.896648
0.876811
0.867423
0.856681
0.843678
0.838059
0.835346
0.827791
0.817839
1.05337
1.03711
1.01826
0.998549
0.981061
0.959903
0.936841
0.921652
0.905298
0.884936
0.873183
0.863539
0.849314
0.839836
0.83664
0.829792
0.820106
1.05494
1.03918
1.02151
1.00257
0.986101
0.967157
0.944271
0.927979
0.913533
0.893702
0.879269
0.870265
0.856812
0.843243
0.83814
0.831916
0.822266
1.0564
1.04117
1.02448
1.00615
0.990395
0.97362
0.951793
0.934039
0.920839
0.902746
0.886027
0.876457
0.863968
0.848177
0.840804
0.834743
0.824802
1.05773
1.04319
1.02741
1.00962
0.994052
0.979151
0.959086
0.940386
0.927267
0.910805
0.893252
0.882857
0.870901
0.854138
0.844687
0.838711
0.828191
1.05894
1.04521
1.03044
1.01323
0.997468
0.983925
0.965875
0.946768
0.933476
0.918183
0.900263
0.889184
0.878051
0.861122
0.849654
0.843435
0.832635
1.06007
1.04712
1.03346
1.01706
1.00096
0.988055
0.9721
0.953204
0.939436
0.925197
0.907317
0.89517
0.884922
0.868938
0.855762
0.848704
0.837589
1.06118
1.04874
1.03626
1.02095
1.00473
0.991759
0.97762
0.959551
0.94534
0.931859
0.914362
0.901121
0.891505
0.876782
0.862448
0.854575
0.84302
1.06232
1.0503
1.03871
1.02472
1.00869
0.995354
0.982496
0.965573
0.95115
0.938352
0.921443
0.906934
0.897808
0.884469
0.869004
0.860407
0.849452
1.06357
1.05181
1.04089
1.02827
1.01279
0.999073
0.986869
0.971174
0.956792
0.944607
0.928562
0.912853
0.903647
0.891659
0.875694
0.86583
0.856038
1.06504
1.05343
1.0428
1.03156
1.01699
1.00299
0.991011
0.976359
0.962187
0.950604
0.935608
0.918985
0.909095
0.898376
0.882486
0.871148
0.862625
1.06683
1.05528
1.04466
1.03452
1.02115
1.00712
0.99513
0.981242
0.967244
0.956208
0.942441
0.925429
0.914238
0.904576
0.889602
0.876464
0.868664
1.06887
1.05747
1.04668
1.0371
1.02502
1.01133
0.999293
0.985899
0.971938
0.961231
0.948815
0.932111
0.919313
0.910248
0.896776
0.882257
0.873851
1.07097
1.05993
1.04883
1.03923
1.02839
1.01539
1.00341
0.990374
0.976313
0.965547
0.954496
0.938815
0.924452
0.915348
0.903623
0.888601
0.878377
1.07291
1.06251
1.05128
1.04133
1.03124
1.0191
1.00738
0.99468
0.980535
0.969247
0.95932
0.945169
0.92978
0.919865
0.909728
0.895354
0.882837
1.07457
1.06503
1.05393
1.04362
1.03369
1.0224
1.01116
0.998876
0.984765
0.972727
0.963302
0.950872
0.935297
0.924005
0.914967
0.902062
0.887806
1.07598
1.06734
1.05667
1.04611
1.03604
1.02533
1.01472
1.00301
0.989154
0.976344
0.96663
0.955792
0.940976
0.928062
0.919312
0.908214
0.893584
1.07726
1.06935
1.0594
1.04879
1.03847
1.02794
1.01795
1.00695
0.993637
0.980269
0.969705
0.959912
0.946528
0.932379
0.922909
0.913515
0.899982
1.07852
1.07097
1.06193
1.05156
1.04099
1.03035
1.02071
1.01047
0.997878
0.984435
0.97288
0.963272
0.951557
0.93716
0.926156
0.917851
0.906266
1.07981
1.07229
1.06409
1.05425
1.04362
1.03266
1.02294
1.01338
1.0015
0.988544
0.976311
0.965991
0.955751
0.942239
0.929694
0.921294
0.911769
1.08115
1.07343
1.06573
1.05667
1.04628
1.03499
1.02479
1.01567
1.00444
0.992211
0.979938
0.968628
0.959073
0.947177
0.933853
0.924306
0.916304
1.08265
1.07451
1.06689
1.05863
1.04882
1.03741
1.02664
1.01756
1.00689
0.995284
0.983656
0.971653
0.961711
0.951493
0.938611
0.92769
0.919903
1.08424
1.07569
1.06785
1.06005
1.05106
1.03991
1.02866
1.01938
1.00917
0.99788
0.987157
0.975132
0.964394
0.955091
0.94354
0.931837
0.923006
1.08585
1.07699
1.0688
1.06118
1.05291
1.04235
1.03087
1.02128
1.01146
1.00029
0.990248
0.978878
0.967557
0.958197
0.948022
0.936683
0.926496
1.08731
1.07833
1.06974
1.06184
1.05429
1.04451
1.03312
1.02323
1.01374
1.00271
0.99296
0.982488
0.971132
0.961309
0.951761
0.941696
0.930831
1.08845
1.07963
1.07075
1.0624
1.05512
1.04619
1.03521
1.02512
1.01589
1.00514
0.995435
0.985711
0.974794
0.964771
0.954945
0.946132
0.935896
1.08914
1.0808
1.07181
1.06305
1.05543
1.04744
1.03706
1.02692
1.0179
1.00752
0.997826
0.988599
0.978227
0.968516
0.958218
0.949701
0.94102
1.0893
1.08173
1.07289
1.06385
1.05582
1.04827
1.03872
1.02869
1.01988
1.00989
1.00022
0.991394
0.981361
0.972282
0.961926
0.952754
0.945454
1.08919
1.0823
1.07392
1.06483
1.0565
1.04899
1.04025
1.03053
1.02192
1.01234
1.00269
0.994271
0.98438
0.975803
0.965958
0.955984
0.949125
1.08883
1.08248
1.07486
1.06593
1.05754
1.04987
1.04172
1.03241
1.02406
1.01494
1.00526
0.99722
0.987475
0.978991
0.96999
0.959522
0.952383
1.08841
1.08232
1.07555
1.06707
1.05871
1.05098
1.04317
1.0343
1.02622
1.01762
1.00791
1.0001
0.990633
0.981927
0.973691
0.963215
0.955559
1.08826
1.08205
1.07599
1.06814
1.06001
1.05229
1.04463
1.03611
1.02828
1.02022
1.01057
1.00281
0.993711
0.984751
0.976958
0.966805
0.958716
1.08846
1.08193
1.07621
1.06906
1.06138
1.05367
1.04615
1.03791
1.03021
1.02265
1.01314
1.00535
0.996622
0.987523
0.979882
0.970109
0.961781
1.08899
1.08223
1.07643
1.06987
1.0628
1.05524
1.0478
1.03975
1.0321
1.02492
1.01565
1.00778
0.999356
0.990255
0.982606
0.973077
0.96463
1.08981
1.08285
1.07694
1.07065
1.06419
1.05691
1.04957
1.04168
1.03401
1.02711
1.01811
1.01016
1.00193
0.992888
0.985205
0.975773
0.967171
1.09072
1.08391
1.07771
1.07147
1.06549
1.05852
1.05135
1.04364
1.03595
1.02921
1.02049
1.01247
1.00431
0.99531
0.987657
0.978279
0.969388
1.09162
1.08508
1.07888
1.07249
1.06671
1.06005
1.05307
1.04552
1.03779
1.03109
1.02262
1.01457
1.00644
0.997412
0.989869
0.980675
0.971394
1.09246
1.08626
1.08006
1.07356
1.06787
1.06143
1.05456
1.04716
1.0394
1.0327
1.02444
1.01638
1.00832
0.999208
0.991769
0.982961
0.973368
1.0931
1.08736
1.08122
1.07466
1.06894
1.06256
1.05579
1.04857
1.04081
1.03406
1.02597
1.01789
1.00998
1.00081
0.993385
0.985104
0.975452
1.09353
1.08826
1.08227
1.07573
1.06993
1.06355
1.05688
1.04984
1.04207
1.03525
1.02729
1.01916
1.01149
1.00237
0.994844
0.987085
0.977685
1.09384
1.08897
1.0832
1.0767
1.07086
1.0645
1.05787
1.05096
1.04317
1.03628
1.02846
1.02027
1.01289
1.00398
0.996304
0.988927
0.980043
1.09422
1.08952
1.08394
1.07753
1.07169
1.0653
1.0586
1.05178
1.04403
1.03713
1.02952
1.02131
1.01417
1.00564
0.997877
0.990698
0.982423
1.09458
1.08979
1.08441
1.0782
1.07233
1.0658
1.059
1.05229
1.04466
1.03782
1.03048
1.02231
1.01536
1.00728
0.999569
0.992498
0.984755
1.0949
1.08984
1.08462
1.07862
1.07269
1.06609
1.05924
1.05264
1.04517
1.03842
1.03139
1.02335
1.01651
1.00889
1.00136
0.994391
0.987032
1.09509
1.08979
1.08459
1.0787
1.0728
1.06625
1.05942
1.05297
1.04569
1.03904
1.03233
1.02449
1.01775
1.01052
1.00323
0.99641
0.989306
1.09508
1.08958
1.08439
1.07863
1.0728
1.06637
1.05966
1.05343
1.04636
1.03979
1.03339
1.02579
1.01917
1.01229
1.00523
0.998533
0.9916
1.09484
1.08924
1.08412
1.0785
1.07278
1.06653
1.06006
1.05408
1.04725
1.04073
1.03458
1.02728
1.02079
1.01422
1.00737
1.00074
0.993902
1.09442
1.08886
1.08383
1.07836
1.07276
1.06672
1.06052
1.05481
1.04827
1.04184
1.03589
1.02892
1.02255
1.01624
1.00958
1.00296
0.996184
1.09399
1.08852
1.08359
1.0783
1.07284
1.06698
1.06096
1.05552
1.04935
1.04304
1.03728
1.03061
1.02434
1.01822
1.01177
1.00518
0.998442
1.09359
1.08826
1.08348
1.07834
1.07304
1.06734
1.06152
1.05633
1.05051
1.04433
1.03871
1.03229
1.02608
1.02011
1.01391
1.00739
1.00069
1.09325
1.08815
1.08351
1.07848
1.07329
1.0678
1.06225
1.05724
1.05174
1.04571
1.0402
1.034
1.02782
1.02195
1.01601
1.00962
1.00292
1.09304
1.08815
1.08363
1.07868
1.07362
1.06846
1.06319
1.05831
1.05301
1.04713
1.04173
1.03575
1.02963
1.02383
1.01812
1.01185
1.00509
1.09294
1.08821
1.08383
1.079
1.07416
1.06933
1.06429
1.05951
1.05433
1.04854
1.04324
1.03752
1.03154
1.02578
1.0202
1.01397
1.00712
1.09293
1.08836
1.08418
1.07956
1.07494
1.07033
1.06547
1.06078
1.05566
1.04989
1.04462
1.03922
1.03341
1.0276
1.02203
1.01586
1.00897
1.09305
1.08873
1.08475
1.08034
1.07587
1.07141
1.06667
1.06203
1.05693
1.05113
1.04588
1.04074
1.03506
1.02912
1.02358
1.01754
1.0107
1.09344
1.08936
1.0855
1.0812
1.07684
1.07252
1.06784
1.06315
1.05803
1.05228
1.0471
1.04209
1.03651
1.03052
1.025
1.01911
1.01238
1.09405
1.09016
1.08634
1.08209
1.0778
1.07359
1.06888
1.06408
1.059
1.05348
1.04835
1.04339
1.03789
1.03188
1.02638
1.02065
1.01408
1.09477
1.09102
1.08722
1.08297
1.07869
1.0745
1.06973
1.06493
1.06005
1.05471
1.04961
1.04468
1.03925
1.03325
1.02776
1.02222
1.01579
1.09552
1.0919
1.0881
1.08382
1.07947
1.07524
1.07055
1.06592
1.06116
1.05593
1.05088
1.04602
1.04067
1.03464
1.02914
1.02378
1.01749
1.09629
1.09275
1.08892
1.08457
1.08019
1.07602
1.07149
1.06694
1.06227
1.05717
1.05219
1.0474
1.04202
1.03595
1.03048
1.02531
1.01917
1.09706
1.0935
1.0896
1.08522
1.08092
1.07692
1.07244
1.06791
1.06335
1.0584
1.05341
1.04853
1.04315
1.03716
1.03175
1.02676
1.02083
1.09777
1.09414
1.09014
1.08579
1.08173
1.07783
1.07337
1.0688
1.06433
1.05946
1.05442
1.0495
1.04418
1.03831
1.03298
1.02817
1.0225
1.09838
1.09466
1.0906
1.08638
1.08254
1.07871
1.07424
1.06963
1.06517
1.06038
1.05533
1.05041
1.04521
1.03947
1.03421
1.02956
1.02416
1.09888
1.09509
1.09105
1.08703
1.08334
1.07953
1.07506
1.07038
1.06589
1.06113
1.05619
1.05136
1.04625
1.04065
1.03549
1.03096
1.02573
1.0993
1.09548
1.09153
1.08773
1.08412
1.08028
1.07576
1.071
1.06651
1.0619
1.0571
1.05232
1.04734
1.04195
1.03686
1.03234
1.02714
1.09971
1.09589
1.09204
1.08841
1.08486
1.08093
1.07629
1.07153
1.06722
1.06273
1.05801
1.05329
1.04852
1.04337
1.03825
1.03361
1.02836
1.10014
1.09633
1.09259
1.08909
1.08553
1.08145
1.07668
1.07215
1.06805
1.06364
1.05898
1.05434
1.04975
1.04474
1.0395
1.03472
1.02948
1.10056
1.09678
1.09314
1.08973
1.08613
1.08184
1.07707
1.07289
1.06896
1.06467
1.06003
1.0554
1.05086
1.04591
1.04062
1.03577
1.03059
1.10096
1.09722
1.09367
1.09031
1.08659
1.08216
1.07762
1.0737
1.06995
1.0657
1.06099
1.05627
1.05173
1.04693
1.04169
1.0368
1.03173
1.10131
1.09762
1.09418
1.0908
1.08693
1.08253
1.07834
1.07462
1.0709
1.06659
1.06182
1.05708
1.05256
1.04789
1.04275
1.03785
1.03296
1.10158
1.09796
1.09465
1.09123
1.08727
1.08306
1.07915
1.07558
1.07175
1.06733
1.06252
1.05783
1.05342
1.04885
1.04379
1.03895
1.03434
1.10177
1.09826
1.09512
1.09169
1.08773
1.0837
1.08003
1.0765
1.07251
1.06794
1.06306
1.05861
1.05432
1.04985
1.04488
1.04017
1.0358
1.10192
1.09863
1.09564
1.09221
1.08826
1.08436
1.08086
1.07731
1.07319
1.06839
1.06365
1.05944
1.05531
1.05097
1.04614
1.0415
1.03712
1.10219
1.09911
1.09618
1.09272
1.08879
1.085
1.08159
1.07799
1.07373
1.06885
1.0644
1.06041
1.05645
1.05222
1.04745
1.04266
1.03817
1.10262
1.09968
1.0967
1.17803
1.17171
1.16363
1.15284
1.13635
1.11056
1.17447
1.16778
1.15922
1.14758
1.12934
1.09211
1.17129
1.16436
1.15558
1.14358
1.1246
1.08472
1.16776
1.16059
1.1514
1.13873
1.1188
1.07827
1.16426
1.15685
1.14723
1.13381
1.11305
1.07329
1.1607
1.15295
1.14284
1.12876
1.10755
1.06945
1.15699
1.14894
1.13845
1.12389
1.1025
1.06644
1.15317
1.1449
1.13415
1.1193
1.09802
1.06405
1.14947
1.14104
1.13013
1.11515
1.09428
1.06257
1.14605
1.13751
1.12651
1.11164
1.0915
1.06207
1.14307
1.1344
1.12336
1.10879
1.08951
1.06224
1.14052
1.13171
1.12066
1.10638
1.08792
1.06274
1.13836
1.12944
1.11833
1.10427
1.08654
1.06336
1.13652
1.12753
1.11632
1.10243
1.08539
1.06396
1.13492
1.1259
1.11464
1.101
1.08463
1.06451
1.13347
1.12448
1.11332
1.10003
1.08425
1.06501
1.1321
1.12319
1.11228
1.09937
1.08414
1.06556
1.13076
1.12197
1.11137
1.09876
1.08413
1.06628
1.1295
1.1208
1.11042
1.09812
1.08416
1.06719
1.12836
1.11966
1.10937
1.09744
1.08416
1.06823
1.12736
1.11858
1.10837
1.09677
1.08409
1.06925
1.12644
1.11761
1.10753
1.09618
1.08392
1.07002
1.12549
1.11677
1.10684
1.09565
1.08366
1.07048
1.12446
1.11599
1.10621
1.09513
1.08341
1.07081
1.12335
1.11514
1.10554
1.09464
1.08329
1.07119
1.12221
1.11413
1.10476
1.0942
1.0833
1.07169
1.1211
1.11299
1.10391
1.09381
1.08337
1.07229
1.12004
1.11187
1.10311
1.09347
1.08352
1.07302
1.11903
1.1109
1.10241
1.09319
1.08376
1.07395
1.11809
1.11014
1.10188
1.09304
1.08412
1.07518
1.11722
1.10956
1.10153
1.09305
1.08462
1.07662
1.11639
1.10906
1.10136
1.0933
1.08531
1.07803
1.11556
1.10861
1.10132
1.09376
1.08619
1.0793
1.11478
1.10818
1.10138
1.09436
1.08719
1.08046
1.11416
1.10792
1.10152
1.09498
1.08825
1.0816
1.11386
1.10793
1.10182
1.09562
1.0893
1.08278
1.11387
1.10823
1.1024
1.09639
1.09037
1.08405
1.11411
1.10887
1.10329
1.09744
1.09157
1.08541
1.11458
1.10971
1.1044
1.09875
1.09299
1.08689
1.11513
1.11059
1.10555
1.10022
1.09462
1.08853
1.11573
1.11145
1.10666
1.10162
1.09627
1.09037
1.11636
1.11226
1.10771
1.10288
1.09766
1.09221
1.11706
1.11309
1.10866
1.10393
1.09871
1.09373
1.11789
1.11397
1.10957
1.10484
1.09952
1.09459
1.11888
1.11494
1.11043
1.10561
1.10015
1.09489
1.12
1.11599
1.11126
1.10623
1.1006
1.09494
1.12112
1.11699
1.11204
1.10671
1.10088
1.09487
1.12207
1.11789
1.11283
1.10715
1.10106
1.09468
1.12277
1.11862
1.1136
1.10767
1.10129
1.09447
1.12317
1.11902
1.11414
1.10822
1.10164
1.09443
1.12329
1.1191
1.11426
1.10852
1.10206
1.09469
1.12322
1.11893
1.11408
1.10849
1.10233
1.09522
1.12304
1.11856
1.11372
1.10821
1.10232
1.09586
1.12269
1.11802
1.11315
1.10778
1.10217
1.0964
1.12224
1.11732
1.1124
1.10722
1.10197
1.09683
1.12188
1.11661
1.11155
1.10659
1.10175
1.09716
1.12163
1.11622
1.11096
1.10607
1.1015
1.09733
1.12128
1.11616
1.1109
1.10594
1.10139
1.09737
1.12082
1.11613
1.11123
1.10633
1.1016
1.09749
1.12037
1.11611
1.11159
1.10694
1.1022
1.09787
1.11612
1.11203
1.10752
1.10273
1.09834
1.11615
1.11249
1.10812
1.10337
1.09891
1.1161
1.11275
1.10865
1.10406
1.09949
1.11608
1.1128
1.10904
1.10463
1.09987
1.11618
1.11278
1.10928
1.10492
1.09999
1.11627
1.11284
1.10936
1.10491
1.09985
1.1164
1.1129
1.10922
1.10466
1.09947
1.11668
1.11294
1.10882
1.10408
1.09895
1.11694
1.11282
1.10814
1.10333
1.09838
1.117
1.11244
1.10737
1.10262
1.09784
1.11672
1.11175
1.10663
1.10204
1.09743
1.11606
1.11089
1.10598
1.1016
1.09719
1.11513
1.11009
1.10552
1.10134
1.09709
1.11416
1.1095
1.10531
1.10124
1.09711
1.11331
1.10915
1.10528
1.10126
1.0973
1.11272
1.10903
1.10537
1.10142
1.09769
1.11242
1.10907
1.10555
1.10174
1.09823
1.11239
1.10925
1.10583
1.10219
1.09885
1.11252
1.10952
1.10616
1.10274
1.09953
1.11278
1.10982
1.10656
1.10334
1.10024
1.11307
1.11014
1.10704
1.104
1.10094
1.11337
1.11052
1.10761
1.10467
1.10158
1.11373
1.11102
1.10824
1.10529
1.10214
1.11418
1.11161
1.10884
1.10582
1.10261
1.11474
1.1122
1.10932
1.10622
1.10302
1.11535
1.1127
1.10966
1.1065
1.1034
1.1159
1.11305
1.10986
1.10674
1.10378
1.11632
1.11327
1.11001
1.10703
1.10418
1.11659
1.1134
1.11022
1.10745
1.10458
1.11674
1.11353
1.11061
1.10792
1.10493
1.11677
1.11372
1.11107
1.10839
1.10523
1.11675
1.11398
1.11157
1.10879
1.10544
1.11677
1.11431
1.11201
1.10904
1.10558
1.11692
1.11472
1.11229
1.10912
1.10573
1.11726
)
;

boundaryField
{
    inlet
    {
        type            fixedValue;
        value           nonuniform 0();
    }
    outlet
    {
        type            inletOutlet;
        inletValue      nonuniform 0();
        value           nonuniform 0();
    }
    triangle
    {
        type            zeroGradient;
    }
    top
    {
        type            symmetryPlane;
    }
    bottom
    {
        type            symmetryPlane;
    }
    defaultFaces
    {
        type            empty;
    }
    procBoundary21to13
    {
        type            processor;
        value           nonuniform List<scalar> 
18
(
0.875466
0.886294
0.895882
0.902435
0.906057
0.767494
0.766954
0.767622
0.768142
0.770135
0.776745
0.79106
0.812929
0.835682
0.852867
0.864023
0.872158
0.872158
)
;
    }
    procBoundary21to14
    {
        type            processor;
        value           nonuniform List<scalar> 
13
(
0.907771
0.909461
0.913294
0.918476
0.92315
0.925267
0.925267
0.92315
0.918476
0.913294
0.909461
0.907771
0.907863
)
;
    }
    procBoundary21to20
    {
        type            processor;
        value           nonuniform List<scalar> 
96
(
1.18303
1.1799
1.17703
1.17363
1.17023
1.16681
1.16327
1.15963
1.15612
1.15291
1.15012
1.14777
1.14581
1.1441
1.14255
1.14109
1.13972
1.13841
1.13718
1.13605
1.13502
1.13406
1.13309
1.13199
1.13078
1.12956
1.12845
1.12747
1.12653
1.12553
1.12444
1.12331
1.12222
1.12123
1.12042
1.11984
1.11952
1.1194
1.11943
1.11958
1.11986
1.12028
1.12086
1.12162
1.12255
1.12357
1.1246
1.12553
1.12628
1.12677
1.127
1.12708
1.12713
1.12711
1.12703
1.12693
1.12664
1.12607
1.12533
1.12458
1.11994
1.11994
1.11946
1.11914
1.11912
1.11948
1.1199
1.12025
1.12056
1.12082
1.12088
1.12073
1.12034
1.11964
1.11868
1.11763
1.11668
1.11599
1.11564
1.11556
1.1157
1.11594
1.11622
1.1165
1.11681
1.11719
1.11764
1.11819
1.11876
1.11926
1.11961
1.11977
1.11978
1.1197
1.1196
1.11959
)
;
    }
    procBoundary21to22
    {
        type            processor;
        value           nonuniform List<scalar> 
146
(
0.908833
0.909774
0.910113
0.909885
0.909176
0.907924