/*--------------------------------*- C++ -*----------------------------------*\
  =========                 |
  \\      /  F ield         | OpenFOAM: The Open Source CFD Toolbox
   \\    /   O peration     | Website:  https://openfoam.org
    \\  /    A nd           | Version:  8
     \\/     M anipulation  |
\*---------------------------------------------------------------------------*/
FoamFile
{
    version     2.0;
    format      ascii;
    class       volScalarField;
    location    "2.3";
    object      rho;
}
// * * * * * * * * * * * * * * * * * * * * * * * * * * * * * * * * * * * * * //

dimensions      [1 -3 0 0 0 0 0];

internalField   nonuniform List<scalar> 
2600
(
1.00246
1.01134
1.08757
1.22486
1.4138
1.67226
1.86056
1.92108
1.88367
1.80174
0.965185
0.94669
1.02729
1.20057
1.4074
1.67172
1.85115
1.90882
1.88737
1.79785
0.944977
0.915137
0.972678
1.1667
1.39649
1.66712
1.83228
1.86906
1.87644
1.79084
0.946147
0.897095
0.933589
1.11381
1.37378
1.65716
1.82635
1.84952
1.8263
1.7474
0.957218
0.890764
0.906136
1.06036
1.31517
1.59481
1.78766
1.84402
1.78391
1.6943
0.970431
0.897167
0.897699
1.02511
1.25454
1.5048
1.68199
1.75989
1.74077
1.65724
0.975634
0.901771
0.905277
1.02075
1.21634
1.43354
1.59098
1.64404
1.66822
1.60894
0.973392
0.902196
0.910321
1.01584
1.18111
1.37418
1.53022
1.59807
1.59628
1.54996
0.965815
0.895255
0.893955
0.993586
1.15932
1.36648
1.52452
1.57057
1.54967
1.52606
0.960798
0.887282
0.885461
0.986598
1.15833
1.37316
1.5162
1.53939
1.54435
1.52573
0.960346
0.887375
0.885725
0.982171
1.16028
1.37
1.48806
1.5516
1.55773
1.51766
0.965093
0.894957
0.894663
0.992864
1.15946
1.36406
1.49809
1.55745
1.5835
1.53531
0.972485
0.901971
0.909603
1.01328
1.18316
1.37283
1.5251
1.59385
1.60207
1.55908
0.975588
0.901898
0.904118
1.01612
1.21743
1.42913
1.59673
1.67785
1.64694
1.5841
0.971425
0.897831
0.896798
1.02356
1.25488
1.51276
1.70222
1.74055
1.72432
1.65085
0.95873
0.892122
0.905473
1.06021
1.31858
1.61344
1.76347
1.79824
1.8127
1.73108
0.947231
0.898262
0.933256
1.11133
1.37764
1.64792
1.8
1.87472
1.84964
1.75999
0.945392
0.915888
0.971716
1.16289
1.39278
1.66312
1.85327
1.90292
1.85259
1.76416
0.965463
0.946842
1.02509
1.1962
1.40139
1.68363
1.86916
1.90055
1.86651
1.78488
1.0032
1.01066
1.08622
1.22006
1.40952
1.687
1.86681
1.90221
1.8886
1.81147
1.24426
1.09735
1.14312
1.2395
1.4059
1.67758
1.84702
1.90644
1.89268
1.81545
1.50159
1.17498
1.19854
1.25675
1.39071
1.64914
1.83623
1.9063
1.88623
1.80941
1.71769
1.25927
1.24405
1.26734
1.366
1.60855
1.82441
1.90159
1.87284
1.80223
1.87871
1.37107
1.2877
1.27584
1.34216
1.5657
1.80538
1.88917
1.86799
1.80082
2.00399
1.48601
1.34163
1.28765
1.33007
1.52589
1.77815
1.87471
1.86652
1.80293
2.10136
1.58221
1.39267
1.3081
1.32913
1.48789
1.74277
1.86095
1.86167
1.79876
2.18091
1.66981
1.43221
1.32678
1.32916
1.4493
1.70625
1.84546
1.85244
1.79075
2.24462
1.75184
1.47431
1.34275
1.32651
1.41349
1.67147
1.82758
1.84083
1.78285
2.29594
1.82195
1.52939
1.36341
1.32375
1.386
1.63266
1.80606
1.8338
1.7761
2.33835
1.8801
1.58419
1.40021
1.32657
1.37002
1.58914
1.78304
1.82949
1.76963
2.37523
1.93585
1.6316
1.44098
1.33921
1.36153
1.54559
1.76207
1.82517
1.76105
2.40956
1.99001
1.67971
1.47463
1.35605
1.36712
1.50861
1.74265
1.81763
1.75166
2.4428
2.04101
1.73112
1.51101
1.37204
1.3706
1.47532
1.72
1.8089
1.74307
2.4748
2.08805
1.78005
1.55612
1.39215
1.37391
1.44646
1.69098
1.80117
1.73579
2.50395
2.13215
1.8249
1.60134
1.42459
1.3773
1.4238
1.65553
1.7933
1.72934
2.52963
2.17291
1.86877
1.64134
1.46413
1.38461
1.40837
1.61651
1.78342
1.72261
2.55196
2.21025
1.91243
1.68096
1.49877
1.39713
1.40048
1.57582
1.76865
1.71501
2.57163
2.24468
1.9541
1.72204
1.53141
1.41035
1.39631
1.53506
1.74795
1.7074
2.58904
2.27661
1.99311
1.76175
1.56678
1.42269
1.39537
1.49703
1.72222
1.69977
2.60465
2.30648
2.02987
1.79852
1.6022
1.43917
1.39605
1.46313
1.69566
1.69173
3.85046
3.72145
3.63274
3.54554
3.45995
3.37573
3.28346
3.17903
3.02604
2.83112
3.68653
3.56272
3.50574
3.44136
3.37632
3.30404
3.2186
3.11089
2.95201
2.71703
3.64312
3.55393
3.50831
3.44825
3.38789
3.31861
3.23393
3.12367
2.96226
2.73928
3.5793
3.51205
3.47556
3.42226
3.36892
3.30174
3.21811
3.10664
2.9476
2.7229
3.52252
3.47066
3.44185
3.39336
3.34382
3.2783
3.1973
3.08701
2.93336
2.70744
3.47084
3.42914
3.40351
3.35862
3.31314
3.24986
3.17215
3.06384
2.91683
2.69654
3.42161
3.38745
3.36414
3.32259
3.28019
3.21856
3.14417
3.03861
2.89892
2.69329
3.36502
3.33849
3.3183
3.28173
3.24312
3.18443
3.11424
3.01271
2.88146
2.69328
3.31165
3.29243
3.27612
3.24398
3.20812
3.15219
3.08598
2.98914
2.86661
2.69507
3.27186
3.25654
3.24156
3.21141
3.17713
3.12386
3.06133
2.96955
2.85564
2.69931
3.24872
3.23213
3.2158
3.18612
3.1525
3.1013
3.04175
2.95482
2.84874
2.70617
3.23578
3.21533
3.19722
3.16769
3.13433
3.08489
3.0278
2.94564
2.84601
2.71551
3.22559
3.20234
3.18317
3.15388
3.12078
3.07314
3.01836
2.94075
2.8471
2.72712
3.21522
3.19006
3.17034
3.14155
3.1091
3.06355
3.01118
2.93813
2.85021
2.73928
3.20421
3.17766
3.15762
3.12939
3.09785
3.05449
3.00461
2.93614
2.85363
2.75064
3.19186
3.16451
3.14447
3.11694
3.08651
3.04534
2.99796
2.93385
2.85645
2.76061
3.17767
3.15041
3.1309
3.10432
3.07521
3.0362
2.99122
2.93112
2.85848
2.76896
3.16116
3.13536
3.11697
3.09166
3.064
3.02715
2.98453
2.92819
2.85992
2.77613
3.1426
3.1199
3.10319
3.07942
3.05333
3.01856
2.97819
2.92532
2.86108
2.78248
3.12347
3.10469
3.08971
3.06773
3.04334
3.01067
2.97246
2.92285
2.86221
2.78822
1.40466
1.41479
1.42658
1.44014
1.45675
1.47709
1.49681
1.72413
3.00529
3.38006
1.40466
1.41479
1.42658
1.44014
1.45674
1.47709
1.49682
1.7235
3.00234
3.3738
1.40466
1.41479
1.42657
1.44014
1.45673
1.4771
1.49684
1.72232
2.99624
3.36592
1.40466
1.41479
1.42657
1.44015
1.45672
1.47711
1.49685
1.7206
2.98646
3.35564
1.40466
1.41479
1.42657
1.44015
1.4567
1.47713
1.49687
1.71833
2.97496
3.34237
1.40466
1.41479
1.42657
1.44016
1.45668
1.47715
1.49688
1.71571
2.96313
3.32477
1.40466
1.41479
1.42657
1.44016
1.45667
1.47716
1.49688
1.71267
2.95099
3.30487
1.40466
1.41479
1.42656
1.44017
1.45665
1.47718
1.49688
1.70912
2.93989
3.28627
1.40466
1.41479
1.42656
1.44017
1.45663
1.4772
1.49686
1.70496
2.92996
3.27105
1.40466
1.41479
1.42656
1.44018
1.45661
1.47721
1.49684
1.70022
2.9196
3.25825
1.40466
1.41479
1.42655
1.44018
1.4566
1.47722
1.49682
1.69491
2.90781
3.24751
1.40466
1.41479
1.42655
1.44019
1.45659
1.47723
1.49679
1.68912
2.89418
3.23768
1.40466
1.4148
1.42655
1.44019
1.45658
1.47724
1.49677
1.68298
2.87928
3.2283
1.40466
1.4148
1.42654
1.4402
1.45657
1.47724
1.49677
1.67667
2.86373
3.21931
1.40466
1.4148
1.42654
1.4402
1.45656
1.47724
1.49678
1.67012
2.84814
3.2105
1.40466
1.4148
1.42654
1.44021
1.45656
1.47723
1.49682
1.66247
2.83341
3.202
1.40466
1.4148
1.42654
1.44021
1.45655
1.47722
1.49687
1.65389
2.81971
3.19391
1.40466
1.4148
1.42653
1.44021
1.45655
1.47721
1.49696
1.64433
2.80671
3.18642
1.40466
1.4148
1.42653
1.44022
1.45654
1.47719
1.49707
1.6337
2.79428
3.17991
1.40465
1.4148
1.42653
1.44022
1.45654
1.47718
1.4972
1.62229
2.78205
3.17426
1.40465
1.4148
1.42653
1.44022
1.45654
1.47718
1.4972
1.62229
2.78205
3.17426
1.40466
1.4148
1.42653
1.44022
1.45654
1.47719
1.49707
1.6337
2.79427
3.17991
1.40466
1.4148
1.42653
1.44021
1.45655
1.47721
1.49696
1.64433
2.80671
3.18642
1.40466
1.4148
1.42654
1.44021
1.45655
1.47722
1.49687
1.65389
2.81971
3.19391
1.40466
1.4148
1.42654
1.44021
1.45656
1.47723
1.49682
1.66247
2.83341
3.202
1.40466
1.4148
1.42654
1.4402
1.45656
1.47724
1.49678
1.67012
2.84814
3.2105
1.40466
1.4148
1.42654
1.4402
1.45657
1.47724
1.49677
1.67667
2.86373
3.21931
1.40466
1.4148
1.42655
1.44019
1.45658
1.47724
1.49677
1.68298
2.87927
3.2283
1.40466
1.41479
1.42655
1.44019
1.45659
1.47723
1.49679
1.68912
2.89418
3.23768
1.40466
1.41479
1.42655
1.44018
1.4566
1.47722
1.49682
1.69491
2.90781
3.24751
1.40466
1.41479
1.42656
1.44018
1.45661
1.47721
1.49684
1.70022
2.9196
3.25825
1.40466
1.41479
1.42656
1.44017
1.45663
1.4772
1.49686
1.70496
2.92996
3.27105
1.40466
1.41479
1.42656
1.44017
1.45665
1.47718
1.49688
1.70912
2.93989
3.28627
1.40466
1.41479
1.42657
1.44016
1.45667
1.47716
1.49688
1.71267
2.95099
3.30487
1.40466
1.41479
1.42657
1.44016
1.45668
1.47715
1.49688
1.71571
2.96313
3.32477
1.40466
1.41479
1.42657
1.44015
1.4567
1.47713
1.49687
1.71833
2.97496
3.34237
1.40466
1.41479
1.42657
1.44015
1.45672
1.47711
1.49685
1.7206
2.98646
3.35564
1.40466
1.41479
1.42657
1.44014
1.45673
1.4771
1.49684
1.72232
2.99624
3.36592
1.40466
1.41479
1.42658
1.44014
1.45674
1.47709
1.49682
1.7235
3.00234
3.3738
1.40466
1.41479
1.42658
1.44014
1.45675
1.47709
1.49681
1.72414
3.00529
3.38006
3.12347
3.10469
3.08971
3.06774
3.04335
3.01068
2.97248
2.92287
2.86224
2.78826
3.14261
3.1199
3.10319
3.07943
3.05334
3.01857
2.97821
2.92535
2.86111
2.78251
3.16116
3.13537
3.11698
3.09167
3.06401
3.02717
2.98455
2.92822
2.85995
2.77615
3.17768
3.15041
3.13091
3.10434
3.07522
3.03622
2.99125
2.93115
2.85851
2.76899
3.19186
3.16451
3.14448
3.11695
3.08653
3.04536
2.99798
2.93387
2.85648
2.76064
3.20421
3.17767
3.15763
3.1294
3.09787
3.05451
3.00464
2.93616
2.85366
2.75066
3.21522
3.19007
3.17035
3.14156
3.10912
3.06357
3.01121
2.93815
2.85023
2.7393
3.22559
3.20234
3.18318
3.15389
3.12079
3.07315
3.01838
2.94077
2.84711
2.72713
3.23578
3.21534
3.19723
3.1677
3.13434
3.08491
3.02782
2.94566
2.84602
2.71549
3.24872
3.23214
3.21581
3.18614
3.15252
3.10132
3.04177
2.95484
2.84874
2.70614
3.27187
3.25655
3.24157
3.21143
3.17714
3.12388
3.06135
2.96956
2.85563
2.69927
3.31167
3.29244
3.27614
3.24399
3.20813
3.15221
3.08599
2.98915
2.86659
2.69501
3.36503
3.33851
3.31832
3.28175
3.24314
3.18445
3.11426
3.01271
2.88143
2.69321
3.42162
3.38747
3.36415
3.32261
3.28021
3.21858
3.14418
3.03861
2.89888
2.69322
3.47085
3.42915
3.40352
3.35864
3.31315
3.24987
3.17216
3.06383
2.91679
2.69644
3.52253
3.47066
3.44186
3.39337
3.34383
3.27831
3.19731
3.087
2.93331
2.70728
3.5793
3.51205
3.47557
3.42227
3.36893
3.30175
3.21812
3.10663
2.94755
2.7227
3.64313
3.55394
3.50831
3.44826
3.3879
3.31862
3.23394
3.12367
2.96221
2.73908
3.68653
3.56273
3.50575
3.44137
3.37633
3.30405
3.21861
3.11088
2.95196
2.71687
3.85046
3.72145
3.63274
3.54554
3.45996
3.37574
3.28347
3.17902
3.026
2.83098
2.60465
2.30631
2.0297
1.7986
1.60234
1.43924
1.39615
1.46402
1.69668
1.69131
2.58904
2.27644
1.9929
1.76177
1.5671
1.42279
1.39542
1.4971
1.7223
1.69932
2.57163
2.24456
1.95389
1.72209
1.53193
1.41033
1.39615
1.53494
1.74698
1.70719
2.55195
2.21017
1.91223
1.68115
1.49966
1.39681
1.40027
1.57669
1.76733
1.71476
2.5296
2.17278
1.86861
1.64183
1.46473
1.38419
1.40824
1.61822
1.78291
1.72195
2.50388
2.13193
1.82481
1.60181
1.42524
1.37684
1.42296
1.65513
1.79366
1.72872
2.47471
2.08775
1.78001
1.5566
1.39304
1.3734
1.44486
1.68709
1.80164
1.73551
2.4427
2.04072
1.73099
1.512
1.37252
1.37008
1.47396
1.71592
1.80839
1.74352
2.40947
1.98971
1.67965
1.47602
1.35622
1.36646
1.50808
1.7426
1.81639
1.75237
2.37512
1.93556
1.63171
1.4424
1.33927
1.36055
1.54357
1.76527
1.82387
1.76086
2.33819
1.87985
1.58446
1.40127
1.32691
1.36845
1.5838
1.78531
1.8305
1.76825
2.29577
1.8217
1.52956
1.3644
1.32437
1.38475
1.62742
1.80402
1.8367
1.7758
2.2445
1.75164
1.47426
1.3445
1.3269
1.41202
1.67041
1.82306
1.84318
1.78412
2.18083
1.66985
1.4319
1.32901
1.32962
1.44568
1.70975
1.84541
1.85007
1.79238
2.10121
1.58267
1.39192
1.31027
1.32965
1.4809
1.74365
1.86735
1.85726
1.79818
2.00368
1.4867
1.34042
1.29005
1.33241
1.51943
1.77213
1.88097
1.86614
1.80046
1.87808
1.37183
1.2864
1.27907
1.3455
1.56392
1.79578
1.88841
1.87537
1.80437
1.71677
1.25957
1.24348
1.27066
1.36928
1.60894
1.81878
1.89063
1.88088
1.80823
1.50084
1.1745
1.19849
1.26086
1.39313
1.64427
1.84457
1.89717
1.88181
1.8102
1.24388
1.09731
1.14319
1.24423
1.40877
1.66495
1.85896
1.91678
1.88037
1.80849
2.82305
2.70733
2.55661
2.38801
2.19837
1.99576
1.78925
1.60338
1.38078
1.12404
2.82258
2.70673
2.55427
2.38501
2.19497
1.99233
1.78646
1.59983
1.37745
1.12601
2.82167
2.7048
2.55086
2.38028
2.18945
1.98668
1.78158
1.59349
1.37174
1.12932
2.82013
2.70121
2.54646
2.37327
2.18147
1.97861
1.77452
1.58421
1.36417
1.13491
2.8179
2.69657
2.54043
2.36439
2.17115
1.96821
1.76525
1.57152
1.35501
1.14303
2.81484
2.69062
2.53248
2.35352
2.15864
1.95568
1.75372
1.5557
1.3455
1.1541
2.8108
2.68315
2.52241
2.34036
2.14374
1.94089
1.73976
1.53623
1.33658
1.16857
2.80568
2.67386
2.5099
2.3246
2.12622
1.92351
1.72288
1.51361
1.32985
1.18675
2.79936
2.66254
2.49482
2.30611
2.10579
1.90355
1.7031
1.48801
1.32496
1.21058
2.79174
2.64915
2.47704
2.28434
2.08234
1.88041
1.67963
1.46095
1.32037
1.24118
2.78263
2.63351
2.45623
2.25951
2.05552
1.85441
1.65284
1.43383
1.31254
1.28162
2.77188
2.61536
2.43222
2.23123
2.02591
1.82524
1.62255
1.40922
1.30371
1.32908
2.75944
2.59441
2.40478
2.19988
1.99301
1.79307
1.58892
1.38966
1.30197
1.37776
2.74543
2.57045
2.37355
2.16483
1.95698
1.75769
1.55337
1.37745
1.30853
1.42932
2.73002
2.54329
2.33819
2.12563
1.91792
1.7186
1.51568
1.3728
1.32839
1.48119
2.71324
2.51264
2.29804
2.08241
1.87431
1.67603
1.48155
1.37067
1.3638
1.53358
2.69482
2.47808
2.25291
2.03331
1.82778
1.62844
1.4507
1.36911
1.41629
1.58373
2.67448
2.43934
2.20172
1.97889
1.77521
1.57847
1.4309
1.37075
1.48919
1.62333
2.65182
2.39623
2.14457
1.91805
1.71738
1.52454
1.41411
1.38859
1.56939
1.6535
2.6257
2.34721
2.08141
1.85105
1.65383
1.474
1.40244
1.42496
1.64644
1.677
2.6257
2.34727
2.08146
1.85111
1.65377
1.47396
1.40229
1.42438
1.64599
1.67727
2.65181
2.39623
2.14464
1.91809
1.71746
1.52456
1.41404
1.38821
1.56902
1.65331
2.67445
2.43933
2.20177
1.97898
1.77525
1.57857
1.4309
1.37053
1.48829
1.6232
2.6948
2.47808
2.25293
2.03331
1.82787
1.62856
1.45071
1.36897
1.41545
1.58326
2.71322
2.51262
2.29802
2.0824
1.87436
1.67616
1.48166
1.37062
1.36316
1.53305
2.73001
2.54327
2.33816
2.12563
1.91795
1.7187
1.5158
1.37271
1.32802
1.48061
2.74542
2.57043
2.37353
2.16481
1.95701
1.75777
1.55347
1.3774
1.30838
1.42877
2.75943
2.5944
2.40475
2.19987
1.99299
1.79311
1.589
1.38966
1.30193
1.3775
2.77188
2.61535
2.4322
2.2312
2.02589
1.82525
1.62257
1.40924
1.30371
1.32909
2.78264
2.63351
2.45621
2.25949
2.0555
1.85441
1.65284
1.4338
1.31255
1.28189
2.79174
2.64915
2.47702
2.28432
2.08231
1.8804
1.67963
1.4609
1.32045
1.24148
2.79937
2.66254
2.49481
2.3061
2.10577
1.90353
1.70308
1.48797
1.32504
1.21082
2.80569
2.67386
2.5099
2.32459
2.1262
1.9235
1.72286
1.51355
1.32987
1.1869
2.81081
2.68316
2.52241
2.34036
2.14373
1.94087
1.73973
1.53618
1.33657
1.16864
2.81484
2.69063
2.53248
2.35352
2.15864
1.95567
1.7537
1.55566
1.34547
1.15412
2.8179
2.69657
2.54043
2.36439
2.17115
1.96821
1.76524
1.5715
1.35498
1.14303
2.82013
2.70122
2.54647
2.37328
2.18148
1.97862
1.77453
1.5842
1.36416
1.1349
2.82166
2.7048
2.55086
2.38029
2.18946
1.9867
1.78159
1.59349
1.37173
1.1293
2.82258
2.70673
2.55428
2.38502
2.19499
1.99235
1.78648
1.59984
1.37744
1.126
2.82305
2.70733
2.55662
2.38802
2.19839
1.99578
1.78928
1.6034
1.38077
1.12402
3.10418
3.08812
3.07413
3.05395
3.03116
3.00077
2.96499
2.91927
2.86321
2.79532
3.08604
3.07138
3.05833
3.0398
3.0185
2.99053
2.95745
2.91622
2.86569
2.80525
3.07186
3.0574
3.04515
3.02796
3.00801
2.98228
2.95163
2.91422
2.86835
2.81394
3.06068
3.04609
3.03447
3.01826
2.99947
2.9757
2.94732
2.91325
2.87134
2.82207
3.05188
3.03704
3.02589
3.01049
2.99277
2.97077
2.94448
2.91313
2.8747
2.82986
3.04484
3.02976
3.01903
3.00441
2.98775
2.96741
2.94301
2.9139
2.87866
2.83759
3.03907
3.02384
3.0136
2.99979
2.98414
2.96532
2.94259
2.91562
2.88328
2.84541
3.03417
3.019
3.00929
2.99626
2.9815
2.96398
2.94285
2.91811
2.88838
2.85317
3.03002
3.01508
3.00589
2.99358
2.9797
2.96336
2.94373
2.92096
2.89342
2.86041
3.0266
3.01203
3.00339
2.9918
2.97877
2.96338
2.94498
2.9237
2.89785
2.86667
3.02401
3.0099
3.00179
2.99085
2.97845
2.96379
2.94646
2.92621
2.90156
2.87183
3.02228
3.00861
3.00088
2.99047
2.97858
2.96462
2.94803
2.92842
2.90461
2.87604
3.02137
3.00805
3.00054
2.99047
2.97906
2.96563
2.9495
2.93031
2.90711
2.87947
3.02107
3.00795
3.00058
2.99074
2.97967
2.96651
2.95066
2.9318
2.90913
2.88228
3.02111
3.00815
3.00081
2.9911
2.98011
2.96703
2.95139
2.9328
2.91064
2.88446
3.02121
3.00848
3.00107
2.99132
2.9803
2.96722
2.95172
2.93335
2.91163
2.88605
3.02119
3.0087
3.00118
2.99134
2.98025
2.96714
2.95172
2.9335
2.91216
2.88706
3.02138
3.00902
3.00135
2.99137
2.98018
2.96697
2.95157
2.9334
2.91231
2.88759
3.02144
3.00913
3.00131
2.99125
2.97999
2.96669
2.95131
2.93317
2.91226
2.88774
3.02134
3.00919
3.00139
2.99128
2.98001
2.96664
2.95122
2.93306
2.91222
2.88775
1.40465
1.4148
1.42653
1.44022
1.45653
1.47715
1.4974
1.60744
2.76658
3.16816
1.40465
1.4148
1.42653
1.44023
1.45653
1.47712
1.49765
1.59008
2.74763
3.1615
1.40465
1.4148
1.42653
1.44023
1.45652
1.4771
1.49791
1.57452
2.72837
3.1557
1.40465
1.41481
1.42652
1.44024
1.45652
1.47708
1.4982
1.56162
2.7084
3.1506
1.40465
1.41481
1.42652
1.44024
1.45651
1.47708
1.49848
1.55149
2.68661
3.14618
1.40465
1.41481
1.42652
1.44024
1.4565
1.47708
1.49883
1.54353
2.66274
3.14222
1.40465
1.41481
1.42652
1.44025
1.4565
1.47708
1.49919
1.53781
2.63793
3.13853
1.40465
1.41481
1.42652
1.44025
1.45649
1.47709
1.49955
1.53398
2.6129
3.13493
1.40465
1.41481
1.42652
1.44025
1.45649
1.47711
1.49989
1.53142
2.58849
3.13141
1.40465
1.41481
1.42652
1.44026
1.4565
1.47711
1.50022
1.52976
2.56539
3.12806
1.40465
1.41481
1.42652
1.44026
1.4565
1.47709
1.50055
1.52872
2.54405
3.12503
1.40465
1.41481
1.42651
1.44026
1.45652
1.47701
1.5009
1.52812
2.52471
3.12238
1.40465
1.41481
1.42651
1.44026
1.45654
1.47689
1.50126
1.5278
2.50752
3.12015
1.40465
1.41481
1.42651
1.44026
1.45656
1.47673
1.50162
1.52767
2.49257
3.11828
1.40465
1.41481
1.42651
1.44026
1.45659
1.47657
1.50198
1.52764
2.48004
3.11653
1.40465
1.41481
1.42651
1.44026
1.45662
1.47642
1.50233
1.52765
2.47033
3.11448
1.40465
1.41482
1.42651
1.44025
1.45666
1.47629
1.50267
1.52766
2.46348
3.11196
1.40465
1.41482
1.42651
1.44025
1.45668
1.47617
1.50296
1.52765
2.45879
3.10985
1.40465
1.41482
1.42651
1.44024
1.45671
1.47611
1.50316
1.52764
2.45548
3.1083
1.40465
1.41482
1.42651
1.44024
1.45672
1.47605
1.50342
1.52762
2.45367
3.10742
1.40465
1.41482
1.42651
1.44024
1.45672
1.47605
1.50342
1.52762
2.45367
3.10742
1.40465
1.41482
1.42651
1.44024
1.45671
1.47611
1.50316
1.52764
2.45547
3.1083
1.40465
1.41482
1.42651
1.44025
1.45668
1.47617
1.50296
1.52765
2.45879
3.10985
1.40465
1.41482
1.42651
1.44025
1.45666
1.47629
1.50267
1.52766
2.46348
3.11196
1.40465
1.41481
1.42651
1.44026
1.45662
1.47642
1.50233
1.52765
2.47032
3.11448
1.40465
1.41481
1.42651
1.44026
1.45659
1.47657
1.50198
1.52764
2.48004
3.11653
1.40465
1.41481
1.42651
1.44026
1.45656
1.47673
1.50162
1.52767
2.49257
3.11828
1.40465
1.41481
1.42651
1.44026
1.45654
1.47689
1.50126
1.5278
2.50752
3.12015
1.40465
1.41481
1.42651
1.44026
1.45652
1.47701
1.5009
1.52812
2.52471
3.12238
1.40465
1.41481
1.42652
1.44026
1.4565
1.47709
1.50055
1.52872
2.54405
3.12503
1.40465
1.41481
1.42652
1.44026
1.4565
1.47711
1.50022
1.52976
2.56539
3.12806
1.40465
1.41481
1.42652
1.44025
1.45649
1.47711
1.49989
1.53142
2.58849
3.13141
1.40465
1.41481
1.42652
1.44025
1.45649
1.47709
1.49955
1.53398
2.6129
3.13493
1.40465
1.41481
1.42652
1.44025
1.4565
1.47708
1.49919
1.53781
2.63793
3.13853
1.40465
1.41481
1.42652
1.44024
1.4565
1.47708
1.49883
1.54353
2.66274
3.14222
1.40465
1.41481
1.42652
1.44024
1.45651
1.47708
1.49848
1.55149
2.68661
3.14617
1.40465
1.41481
1.42652
1.44024
1.45652
1.47708
1.4982
1.56162
2.7084
3.1506
1.40465
1.4148
1.42653
1.44023
1.45652
1.4771
1.49791
1.57452
2.72836
3.1557
1.40465
1.4148
1.42653
1.44023
1.45653
1.47712
1.49765
1.59008
2.74763
3.1615
1.40465
1.4148
1.42653
1.44022
1.45653
1.47715
1.4974
1.60744
2.76658
3.16816
3.02134
3.00919
3.00139
2.99129
2.98001
2.96664
2.95123
2.93306
2.91223
2.88775
3.02144
3.00913
3.00132
2.99125
2.98
2.9667
2.95131
2.93318
2.91226
2.88774
3.02138
3.00902
3.00135
2.99137
2.98019
2.96697
2.95157
2.9334
2.91231
2.88759
3.02119
3.0087
3.00119
2.99134
2.98026
2.96714
2.95172
2.9335
2.91216
2.88706
3.02121
3.00848
3.00107
2.99132
2.9803
2.96722
2.95172
2.93335
2.91163
2.88605
3.02111
3.00815
3.00081
2.9911
2.98011
2.96703
2.95139
2.93281
2.91064
2.88446
3.02107
3.00795
3.00058
2.99074
2.97967
2.96651
2.95066
2.9318
2.90913
2.88227
3.02137
3.00805
3.00054
2.99047
2.97906
2.96563
2.9495
2.9303
2.9071
2.87946
3.02228
3.00861
3.00088
2.99047
2.97858
2.96461
2.94803
2.92841
2.9046
2.87603
3.02401
3.0099
3.00179
2.99085
2.97845
2.96379
2.94646
2.9262
2.90155
2.87182
3.0266
3.01203
3.00339
2.99179
2.97877
2.96337
2.94497
2.92369
2.89784
2.86666
3.03002
3.01508
3.00589
2.99358
2.9797
2.96335
2.94372
2.92095
2.89341
2.8604
3.03417
3.019
3.00929
2.99625
2.98149
2.96398
2.94284
2.91811
2.88837
2.85317
3.03906
3.02384
3.01359
2.99978
2.98413
2.96531
2.94258
2.91561
2.88327
2.84541
3.04484
3.02975
3.01903
3.00441
2.98775
2.96741
2.94301
2.9139
2.87866
2.8376
3.05188
3.03704
3.02589
3.01048
2.99276
2.97077
2.94447
2.91313
2.87471
2.82987
3.06068
3.04608
3.03446
3.01825
2.99947
2.9757
2.94732
2.91325
2.87135
2.82208
3.07185
3.0574
3.04515
3.02795
3.00801
2.98228
2.95164
2.91423
2.86837
2.81396
3.08604
3.07138
3.05833
3.0398
3.0185
2.99053
2.95746
2.91624
2.86572
2.80528
3.10418
3.08812
3.07413
3.05395
3.03117
3.00078
2.965
2.9193
2.86323
2.79535
)
;

boundaryField
{
    inlet
    {
        type            calculated;
        value           uniform 1.40001;
    }
    outlet
    {
        type            calculated;
        value           nonuniform List<scalar> 
100
(
1.67737
1.6534
1.62326
1.5833
1.53309
1.48066
1.4288
1.37753
1.32912
1.28193
1.24152
1.21087
1.18695
1.16869
1.15415
1.14305
1.13491
1.12931
1.126
1.12402
1.81575
1.81018
1.8025
1.80074
1.80304
1.79904
1.79117
1.78313
1.77622
1.76984
1.76135
1.75193
1.74328
1.73588
1.72946
1.72277
1.71517
1.7075
1.69983
1.6918
1.80187
1.79849
1.79101
1.74633
1.69482
1.65824
1.60945
1.54978
1.5249
1.5255
1.51827
1.53687
1.55917
1.58384
1.65003
1.73095
1.76163
1.76468
1.78374
1.81125
1.69138
1.69938
1.7073
1.7149
1.72207
1.72885
1.73568
1.74374
1.75261
1.76108
1.76846
1.7761
1.78448
1.79265
1.79838
1.8006
1.80459
1.80851
1.81039
1.80849
1.12404
1.12602
1.12933
1.13493
1.14306
1.15413
1.16861
1.1868
1.21062
1.24122
1.28166
1.32911
1.37779
1.42936
1.48123
1.53362
1.58377
1.62339
1.65358
1.6771
)
;
    }
    triangle
    {
        type            calculated;
        value           nonuniform List<scalar> 
40
(
3.85046
3.72145
3.63274
3.54554
3.45995
3.37573
3.28346
3.17903
3.02604
2.83112
1.00246
0.965185
0.944977
0.946147
0.957218
0.970431
0.975634
0.973392
0.965815
0.960798
0.960346
0.965093
0.972485
0.975588
0.971425
0.95873
0.947231
0.945392
0.965463
1.0032
3.85046
3.72145
3.63274
3.54554
3.45996
3.37574
3.28347
3.17902
3.026
2.83098
)
;
    }
    top
    {
        type            symmetryPlane;
    }
    bottom
    {
        type            symmetryPlane;
    }
    defaultFaces
    {
        type            empty;
    }
}


// ************************************************************************* //
