/*--------------------------------*- C++ -*----------------------------------*\
  =========                 |
  \\      /  F ield         | OpenFOAM: The Open Source CFD Toolbox
   \\    /   O peration     | Website:  https://openfoam.org
    \\  /    A nd           | Version:  8
     \\/     M anipulation  |
\*---------------------------------------------------------------------------*/
FoamFile
{
    version     2.0;
    format      ascii;
    class       volScalarField;
    location    "2.3";
    object      T;
}
// * * * * * * * * * * * * * * * * * * * * * * * * * * * * * * * * * * * * * //

dimensions      [0 0 0 1 0 0 0];

internalField   nonuniform List<scalar> 
2600
(
1.25193
1.18271
1.09142
1.03744
1.05115
1.09411
1.13575
1.15081
1.14211
1.12499
1.3053
1.24221
1.14498
1.07183
1.07576
1.10882
1.14232
1.1557
1.15084
1.13341
1.31532
1.2732
1.19663
1.1201
1.1116
1.13247
1.15337
1.15954
1.16232
1.14808
1.31904
1.27669
1.23326
1.17456
1.15896
1.17158
1.18207
1.1797
1.17483
1.16508
1.32321
1.27721
1.25457
1.23289
1.21366
1.22008
1.22609
1.22474
1.20778
1.19482
1.32729
1.28395
1.2747
1.28968
1.2861
1.28593
1.27866
1.27547
1.26328
1.24397
1.32865
1.28993
1.29439
1.33694
1.36167
1.36509
1.34914
1.3288
1.3205
1.29314
1.32715
1.2922
1.30238
1.35506
1.39826
1.41538
1.40785
1.39002
1.36369
1.32306
1.32319
1.28959
1.29396
1.3455
1.40112
1.43992
1.44566
1.42535
1.38616
1.34231
1.32087
1.28563
1.28919
1.34014
1.40146
1.4486
1.45709
1.43092
1.39858
1.35319
1.32063
1.28575
1.28934
1.33781
1.4029
1.44762
1.44688
1.43469
1.40325
1.35018
1.32285
1.28956
1.29432
1.34495
1.4012
1.43963
1.43739
1.42032
1.39707
1.34504
1.32675
1.29211
1.30183
1.35324
1.39682
1.41596
1.40998
1.39164
1.36252
1.32441
1.32879
1.28989
1.29311
1.3324
1.357
1.36622
1.3583
1.34418
1.30878
1.28211
1.3281
1.28417
1.27302
1.28449
1.28024
1.292
1.29318
1.27218
1.25379
1.23824
1.32439
1.27793
1.25309
1.22764
1.20997
1.22884
1.2247
1.21243
1.21263
1.20231
1.32019
1.27753
1.2325
1.16905
1.15735
1.17093
1.17809
1.18504
1.17843
1.16673
1.31617
1.27398
1.19618
1.11594
1.10878
1.13238
1.16071
1.16592
1.15468
1.14098
1.30587
1.24275
1.14442
1.06881
1.07275
1.11293
1.14703
1.15216
1.14532
1.13104
1.25248
1.18284
1.09149
1.03479
1.04924
1.09832
1.1365
1.14593
1.14363
1.12842
1.19965
1.11449
1.04653
1.00997
1.03055
1.08716
1.1276
1.14311
1.14019
1.12333
1.17049
1.06944
1.01858
0.992542
1.01534
1.07728
1.12451
1.14098
1.13628
1.11791
1.16866
1.05291
1.00572
0.98233
1.00356
1.06753
1.1233
1.13981
1.13312
1.11451
1.17246
1.05069
1.0026
0.978301
0.995326
1.05821
1.12141
1.13882
1.13285
1.11343
1.18319
1.05798
1.00428
0.97876
0.991899
1.05
1.1178
1.13834
1.13435
1.11382
1.19809
1.07213
1.01214
0.984378
0.992341
1.04244
1.11218
1.13904
1.13619
1.11345
1.21435
1.09082
1.02304
0.990979
0.995686
1.03487
1.10584
1.14057
1.1372
1.11301
1.22956
1.11123
1.03655
0.99694
0.999357
1.02716
1.09886
1.14178
1.13709
1.113
1.2432
1.13005
1.05374
1.00557
1.00096
1.02048
1.08941
1.14183
1.13726
1.11376
1.25503
1.14644
1.0706
1.01926
1.00307
1.01587
1.07716
1.13947
1.13734
1.115
1.26487
1.16201
1.08508
1.03293
1.0076
1.01284
1.06371
1.13346
1.13722
1.11553
1.27274
1.17626
1.09903
1.04327
1.01257
1.01292
1.05145
1.12411
1.13622
1.11535
1.27892
1.18838
1.11264
1.05338
1.01617
1.01073
1.04011
1.1126
1.13423
1.11481
1.2838
1.19825
1.12427
1.06492
1.0192
1.00926
1.02955
1.09984
1.13156
1.11387
1.28769
1.2065
1.13378
1.07543
1.02524
1.00842
1.02068
1.08627
1.12802
1.11236
1.29103
1.2136
1.14242
1.08384
1.03338
1.00858
1.01395
1.07255
1.12373
1.11018
1.29418
1.22
1.15079
1.09187
1.04042
1.01067
1.00958
1.05919
1.11868
1.10771
1.29736
1.22613
1.15882
1.10035
1.04726
1.01348
1.00681
1.04654
1.11276
1.10552
1.3005
1.23218
1.16655
1.10876
1.05529
1.01602
1.00577
1.03492
1.10558
1.10365
1.3035
1.23815
1.17417
1.11682
1.06376
1.01988
1.00541
1.02467
1.09736
1.10192
1.57732
1.55652
1.54222
1.5271
1.51112
1.49462
1.47633
1.45511
1.42355
1.40148
1.54506
1.52371
1.51343
1.50131
1.48858
1.47427
1.45739
1.43588
1.40367
1.36264
1.52927
1.51244
1.50183
1.48905
1.47682
1.46326
1.44696
1.42548
1.39363
1.34911
1.51153
1.49827
1.48851
1.47597
1.46416
1.4504
1.43401
1.41241
1.38147
1.33617
1.49545
1.48471
1.47674
1.4653
1.45407
1.44035
1.42418
1.40273
1.37299
1.32882
1.47927
1.47083
1.46472
1.45519
1.44556
1.43273
1.41734
1.39627
1.36784
1.32603
1.46653
1.46069
1.45627
1.4483
1.43986
1.42775
1.41318
1.39267
1.36571
1.32662
1.46183
1.45631
1.45191
1.44448
1.43655
1.42485
1.41092
1.39101
1.36539
1.3291
1.45889
1.45431
1.45006
1.44282
1.43491
1.42328
1.40974
1.39036
1.36591
1.33247
1.45602
1.45208
1.44789
1.44078
1.43292
1.42153
1.40844
1.38973
1.36648
1.33544
1.4523
1.44835
1.44409
1.43722
1.42961
1.41865
1.40613
1.3883
1.36642
1.33744
1.44734
1.44299
1.43871
1.43216
1.42485
1.41445
1.40255
1.38576
1.36536
1.33834
1.44223
1.4374
1.43299
1.42661
1.41949
1.40958
1.39827
1.38249
1.36344
1.33853
1.43746
1.43225
1.42769
1.42138
1.41437
1.40487
1.39405
1.37921
1.36138
1.33847
1.43318
1.42772
1.42307
1.41682
1.40994
1.40081
1.39043
1.37646
1.35965
1.33846
1.42929
1.4237
1.41906
1.41294
1.40624
1.3975
1.38755
1.37437
1.35852
1.33877
1.42565
1.42009
1.41557
1.40964
1.40319
1.39484
1.38533
1.37288
1.35794
1.33948
1.42203
1.41674
1.41244
1.40677
1.4006
1.39266
1.38358
1.37183
1.35774
1.34045
1.41832
1.41359
1.40961
1.40424
1.39837
1.39082
1.38216
1.37106
1.35773
1.34148
1.41462
1.41059
1.40695
1.40192
1.39637
1.38921
1.38096
1.37048
1.3578
1.34247
1.00133
1.00421
1.00754
1.01136
1.01601
1.02168
1.02702
1.10235
1.41138
1.48896
1.00133
1.00421
1.00754
1.01137
1.016
1.02169
1.02702
1.10234
1.41134
1.48617
1.00133
1.00421
1.00754
1.01137
1.016
1.02169
1.02703
1.10235
1.41211
1.48143
1.00133
1.00421
1.00754
1.01137
1.016
1.02169
1.02703
1.10233
1.41358
1.47633
1.00133
1.00421
1.00754
1.01137
1.01599
1.0217
1.02703
1.1021
1.41505
1.47237
1.00133
1.00421
1.00754
1.01137
1.01599
1.0217
1.02703
1.10158
1.41579
1.47002
1.00133
1.00421
1.00754
1.01137
1.01598
1.02171
1.02703
1.10076
1.41556
1.46863
1.00133
1.00421
1.00754
1.01137
1.01598
1.02171
1.02703
1.09967
1.414
1.46657
1.00133
1.00421
1.00754
1.01137
1.01597
1.02172
1.02703
1.09831
1.411
1.46334
1.00133
1.00421
1.00754
1.01138
1.01597
1.02172
1.02702
1.09667
1.40723
1.4588
1.00133
1.00421
1.00754
1.01138
1.01596
1.02172
1.02701
1.09472
1.40342
1.45361
1.00133
1.00421
1.00754
1.01138
1.01596
1.02173
1.02701
1.09243
1.39992
1.44839
1.00133
1.00421
1.00754
1.01138
1.01596
1.02173
1.027
1.08985
1.39672
1.44346
1.00133
1.00421
1.00754
1.01138
1.01595
1.02173
1.027
1.08707
1.3936
1.43899
1.00133
1.00421
1.00753
1.01138
1.01595
1.02173
1.027
1.08415
1.39034
1.43509
1.00133
1.00421
1.00753
1.01138
1.01595
1.02173
1.02701
1.08095
1.38692
1.43187
1.00133
1.00421
1.00753
1.01138
1.01595
1.02172
1.02703
1.07757
1.38336
1.4293
1.00133
1.00421
1.00753
1.01139
1.01595
1.02172
1.02705
1.07399
1.37969
1.4273
1.00133
1.00421
1.00753
1.01139
1.01595
1.02171
1.02708
1.0702
1.37606
1.42574
1.00133
1.00421
1.00753
1.01139
1.01595
1.02171
1.02712
1.06627
1.37253
1.42447
1.00133
1.00421
1.00753
1.01139
1.01595
1.02171
1.02712
1.06627
1.37253
1.42447
1.00133
1.00421
1.00753
1.01139
1.01595
1.02171
1.02708
1.0702
1.37606
1.42574
1.00133
1.00421
1.00753
1.01139
1.01595
1.02172
1.02705
1.07399
1.37969
1.4273
1.00133
1.00421
1.00753
1.01138
1.01595
1.02172
1.02703
1.07757
1.38335
1.4293
1.00133
1.00421
1.00753
1.01138
1.01595
1.02173
1.02701
1.08095
1.38692
1.43187
1.00133
1.00421
1.00753
1.01138
1.01595
1.02173
1.027
1.08415
1.39034
1.43509
1.00133
1.00421
1.00754
1.01138
1.01595
1.02173
1.027
1.08707
1.3936
1.43899
1.00133
1.00421
1.00754
1.01138
1.01596
1.02173
1.027
1.08985
1.39672
1.44346
1.00133
1.00421
1.00754
1.01138
1.01596
1.02173
1.02701
1.09243
1.39992
1.4484
1.00133
1.00421
1.00754
1.01138
1.01596
1.02172
1.02701
1.09472
1.40342
1.45361
1.00133
1.00421
1.00754
1.01138
1.01597
1.02172
1.02702
1.09667
1.40723
1.4588
1.00133
1.00421
1.00754
1.01137
1.01597
1.02172
1.02703
1.09831
1.411
1.46334
1.00133
1.00421
1.00754
1.01137
1.01598
1.02171
1.02703
1.09967
1.414
1.46657
1.00133
1.00421
1.00754
1.01137
1.01598
1.02171
1.02703
1.10076
1.41556
1.46863
1.00133
1.00421
1.00754
1.01137
1.01599
1.0217
1.02703
1.10158
1.41579
1.47002
1.00133
1.00421
1.00754
1.01137
1.01599
1.0217
1.02703
1.1021
1.41505
1.47237
1.00133
1.00421
1.00754
1.01137
1.016
1.02169
1.02703
1.10232
1.41358
1.47633
1.00133
1.00421
1.00754
1.01137
1.016
1.02169
1.02703
1.10235
1.41211
1.48143
1.00133
1.00421
1.00754
1.01137
1.016
1.02169
1.02702
1.10234
1.41134
1.48617
1.00133
1.00421
1.00754
1.01136
1.01601
1.02168
1.02702
1.10235
1.41138
1.48896
1.41462
1.41059
1.40695
1.40192
1.39637
1.38921
1.38096
1.37048
1.3578
1.34248
1.41832
1.41359
1.40961
1.40424
1.39837
1.39082
1.38216
1.37107
1.35774
1.34149
1.42203
1.41675
1.41245
1.40677
1.4006
1.39266
1.38358
1.37184
1.35774
1.34045
1.42565
1.42009
1.41557
1.40965
1.4032
1.39485
1.38533
1.37289
1.35794
1.33948
1.42929
1.4237
1.41906
1.41295
1.40625
1.3975
1.38755
1.37438
1.35853
1.33878
1.43318
1.42772
1.42307
1.41683
1.40994
1.40081
1.39043
1.37646
1.35966
1.33846
1.43747
1.43225
1.42769
1.42138
1.41437
1.40487
1.39406
1.37921
1.36138
1.33847
1.44223
1.4374
1.43299
1.42661
1.41949
1.40958
1.39827
1.38249
1.36345
1.33853
1.44734
1.44299
1.43871
1.43217
1.42485
1.41445
1.40255
1.38577
1.36536
1.33834
1.4523
1.44835
1.44409
1.43723
1.42961
1.41866
1.40613
1.3883
1.36642
1.33744
1.45602
1.45208
1.44789
1.44078
1.43293
1.42154
1.40844
1.38973
1.36648
1.33543
1.45889
1.45431
1.45006
1.44282
1.43491
1.42328
1.40974
1.39036
1.36591
1.33246
1.46183
1.45631
1.45191
1.44448
1.43655
1.42485
1.41092
1.39101
1.36539
1.32909
1.46653
1.46069
1.45627
1.4483
1.43986
1.42776
1.41318
1.39267
1.3657
1.32661
1.47927
1.47083
1.46473
1.45519
1.44556
1.43273
1.41735
1.39627
1.36784
1.32601
1.49545
1.48471
1.47674
1.4653
1.45407
1.44035
1.42418
1.40273
1.37299
1.32879
1.51153
1.49827
1.48851
1.47597
1.46416
1.4504
1.43402
1.4124
1.38146
1.33613
1.52927
1.51244
1.50183
1.48905
1.47682
1.46327
1.44696
1.42548
1.39362
1.34908
1.54506
1.52371
1.51343
1.50131
1.48858
1.47427
1.45739
1.43588
1.40366
1.36261
1.57732
1.55652
1.54222
1.5271
1.51112
1.49462
1.47633
1.45511
1.42355
1.40145
1.3035
1.23812
1.17413
1.11684
1.06379
1.01991
1.00543
1.02492
1.09758
1.10176
1.3005
1.23214
1.1665
1.10877
1.05537
1.01606
1.00579
1.03495
1.10553
1.10348
1.29736
1.22611
1.15877
1.10036
1.0474
1.01349
1.00677
1.04652
1.11248
1.10543
1.29418
1.21998
1.15075
1.09192
1.04067
1.01057
1.00953
1.05945
1.11833
1.10763
1.29102
1.21357
1.14238
1.08396
1.03356
1.00843
1.01392
1.07303
1.12357
1.10998
1.28767
1.20646
1.13376
1.07556
1.02542
1.00827
1.02043
1.08621
1.12808
1.11213
1.28378
1.19818
1.12427
1.06505
1.01943
1.00914
1.02909
1.09886
1.13175
1.11379
1.27889
1.18832
1.11263
1.05365
1.01626
1.01059
1.03973
1.11151
1.13428
1.11497
1.27272
1.17619
1.09903
1.04366
1.0126
1.01269
1.05131
1.12412
1.13596
1.11549
1.26484
1.16194
1.08513
1.03334
1.0076
1.01252
1.06315
1.13451
1.13688
1.1154
1.25499
1.14638
1.0707
1.01959
1.00314
1.01538
1.0757
1.14
1.13784
1.11457
1.24315
1.12998
1.05382
1.00588
1.00111
1.02009
1.08799
1.14119
1.13818
1.11381
1.22951
1.11116
1.03659
0.997335
0.999518
1.02668
1.09865
1.14074
1.13773
1.1137
1.21429
1.09077
1.02303
0.991475
0.995774
1.03382
1.10695
1.14053
1.13668
1.11374
1.19798
1.07215
1.01204
0.984906
0.992434
1.04043
1.11262
1.14058
1.13512
1.11355
1.18301
1.05801
1.00417
0.979444
0.99255
1.04808
1.11645
1.13956
1.13424
1.11317
1.17219
1.05065
1.00263
0.979198
0.996219
1.05753
1.11934
1.13849
1.13413
1.11382
1.16836
1.05276
1.00568
0.983658
1.00444
1.06724
1.12246
1.13783
1.13432
1.11525
1.17019
1.06905
1.01846
0.994457
1.0162
1.07556
1.12685
1.13938
1.13527
1.11775
1.19938
1.1141
1.04615
1.01234
1.03178
1.08372
1.13085
1.14547
1.13728
1.12113
1.34692
1.3207
1.28745
1.24996
1.20651
1.15746
1.10374
1.05247
0.988371
0.919565
1.34682
1.32059
1.28699
1.24936
1.20581
1.15673
1.10314
1.0516
0.987428
0.920165
1.34662
1.3202
1.28632
1.24843
1.20474
1.15565
1.10221
1.05014
0.985831
0.921083
1.34627
1.31948
1.28546
1.24707
1.20322
1.15417
1.10098
1.04809
0.983755
0.922623
1.34577
1.31853
1.28428
1.24534
1.20125
1.15227
1.09938
1.04533
0.981281
0.924902
1.34507
1.31731
1.28271
1.2432
1.19881
1.14992
1.09733
1.04188
0.978783
0.92812
1.34414
1.31574
1.28066
1.24054
1.19581
1.14703
1.09467
1.03759
0.976469
0.932521
1.34292
1.31374
1.27805
1.23727
1.19216
1.14346
1.09121
1.03262
0.974558
0.938406
1.34138
1.31127
1.27486
1.23335
1.18777
1.13918
1.08687
1.02711
0.972521
0.946919
1.33954
1.30835
1.27106
1.22866
1.18261
1.13402
1.08144
1.02136
0.970146
0.958813
1.33742
1.30499
1.26662
1.22327
1.1766
1.12802
1.07501
1.01527
0.968729
0.973608
1.3351
1.3012
1.26153
1.21706
1.16984
1.12109
1.06757
1.00911
0.969934
0.989153
1.3326
1.29694
1.25572
1.2101
1.16217
1.11316
1.05918
1.00352
0.972321
1.00647
1.32995
1.29213
1.24908
1.20217
1.15354
1.10412
1.05021
0.99902
0.976793
1.02502
1.32713
1.28668
1.24147
1.19312
1.1439
1.09377
1.04055
0.996364
0.984533
1.04233
1.32406
1.28049
1.23273
1.18297
1.13288
1.08218
1.03147
0.995404
0.995705
1.05729
1.32066
1.27345
1.22282
1.17134
1.12089
1.06916
1.02247
0.995627
1.01056
1.0696
1.31687
1.26552
1.21157
1.15848
1.10731
1.05571
1.0154
0.996515
1.03169
1.0796
1.3126
1.25667
1.19903
1.14424
1.09251
1.04166
1.00894
1.00227
1.05655
1.08908
1.3076
1.24655
1.18528
1.12877
1.07654
1.02873
1.00585
1.01312
1.08144
1.09734
1.3076
1.24657
1.18529
1.12879
1.07652
1.02872
1.00581
1.01295
1.08135
1.09742
1.3126
1.25667
1.19905
1.14425
1.09253
1.04167
1.00891
1.00217
1.05643
1.08903
1.31687
1.26552
1.21158
1.1585
1.10732
1.05574
1.01539
0.996452
1.03144
1.07956
1.32066
1.27345
1.22283
1.17134
1.12091
1.0692
1.02247
0.995579
1.01035
1.06949
1.32405
1.28049
1.23273
1.18296
1.13289
1.08222
1.03149
0.995353
0.99557
1.05713
1.32712
1.28668
1.24147
1.19312
1.14391
1.09379
1.04058
0.99633
0.984426
1.04215
1.32995
1.29213
1.24908
1.20216
1.15354
1.10414
1.05024
0.999008
0.976742
1.02484
1.3326
1.29693
1.25572
1.21009
1.16216
1.11317
1.0592
1.00352
0.972315
1.00639
1.3351
1.3012
1.26153
1.21706
1.16984
1.12109
1.06758
1.00911
0.96995
0.98916
1.33742
1.30499
1.26662
1.22326
1.1766
1.12802
1.07501
1.01526
0.96875
0.973692
1.33954
1.30835
1.27106
1.22866
1.18261
1.13402
1.08144
1.02135
0.970163
0.958918
1.34138
1.31127
1.27485
1.23334
1.18776
1.13917
1.08687
1.0271
0.972538
0.947003
1.34292
1.31374
1.27805
1.23727
1.19215
1.14346
1.0912
1.03261
0.97456
0.938454
1.34414
1.31574
1.28066
1.24054
1.19581
1.14703
1.09466
1.03758
0.976468
0.932545
1.34507
1.31731
1.28271
1.2432
1.19881
1.14992
1.09732
1.04187
0.978776
0.928127
1.34577
1.31854
1.28429
1.24534
1.20125
1.15227
1.09938
1.04533
0.981275
0.9249
1.34627
1.31948
1.28546
1.24707
1.20322
1.15417
1.10098
1.04809
0.983752
0.922618
1.34662
1.3202
1.28632
1.24843
1.20474
1.15565
1.10222
1.05014
0.985829
0.921077
1.34682
1.32059
1.28699
1.24936
1.20582
1.15674
1.10314
1.0516
0.987425
0.920159
1.34692
1.3207
1.28745
1.24996
1.20652
1.15746
1.10375
1.05248
0.988368
0.919559
1.41088
1.40732
1.40388
1.39918
1.39393
1.3872
1.3794
1.36965
1.35783
1.34366
1.40729
1.40398
1.4007
1.39631
1.39134
1.38505
1.37775
1.36884
1.35806
1.34532
1.40439
1.4011
1.39797
1.39383
1.38911
1.38324
1.37639
1.36821
1.35832
1.34672
1.40197
1.39865
1.39564
1.39168
1.38718
1.38169
1.37528
1.36771
1.35859
1.348
1.39994
1.39659
1.39366
1.38985
1.38556
1.3804
1.37438
1.36734
1.3589
1.34919
1.39834
1.39493
1.39206
1.38838
1.38427
1.37941
1.37375
1.36718
1.35936
1.35038
1.39719
1.39374
1.39092
1.38736
1.38341
1.37883
1.37348
1.3673
1.36003
1.35166
1.39651
1.39303
1.39029
1.38685
1.38305
1.37869
1.37359
1.36776
1.36095
1.35306
1.39621
1.39277
1.3901
1.38677
1.3831
1.37889
1.37402
1.36851
1.36208
1.35457
1.39616
1.39279
1.39019
1.38696
1.3834
1.37934
1.37468
1.36943
1.36329
1.35609
1.39624
1.39294
1.39043
1.38732
1.38387
1.37994
1.37547
1.37039
1.36445
1.3575
1.39637
1.39316
1.39073
1.38771
1.38436
1.38057
1.37623
1.37127
1.36548
1.35874
1.39651
1.39337
1.39099
1.38805
1.3848
1.38112
1.37687
1.37199
1.36632
1.35974
1.39665
1.39355
1.3912
1.38833
1.38515
1.38153
1.37734
1.37253
1.36696
1.36053
1.39677
1.39372
1.39139
1.38855
1.3854
1.38179
1.37765
1.3729
1.36742
1.36112
1.39687
1.39386
1.39153
1.38869
1.38554
1.38195
1.37784
1.37314
1.36774
1.36155
1.3969
1.39394
1.39161
1.38876
1.38561
1.38202
1.37793
1.37326
1.36794
1.36184
1.39695
1.39402
1.39167
1.3888
1.38564
1.38204
1.37796
1.3733
1.36803
1.362
1.39697
1.39405
1.39168
1.3888
1.38563
1.38201
1.37794
1.37329
1.36805
1.36206
1.39696
1.39406
1.3917
1.38881
1.38564
1.38201
1.37793
1.37328
1.36805
1.36207
1.00133
1.00421
1.00753
1.01139
1.01595
1.0217
1.02717
1.06126
1.36829
1.42311
1.00133
1.00421
1.00753
1.01139
1.01594
1.02169
1.02724
1.05537
1.36321
1.42162
1.00133
1.00421
1.00753
1.01139
1.01594
1.02168
1.02732
1.04993
1.35792
1.42025
1.00133
1.00421
1.00753
1.01139
1.01594
1.02167
1.02742
1.04526
1.35222
1.41893
1.00133
1.00421
1.00753
1.01139
1.01594
1.02166
1.02752
1.04183
1.34629
1.41772
1.00133
1.00421
1.00753
1.01139
1.01594
1.02166
1.02764
1.03954
1.34049
1.4167
1.00133
1.00421
1.00753
1.01139
1.01594
1.02166
1.02775
1.03803
1.33495
1.41596
1.00133
1.00421
1.00753
1.0114
1.01594
1.02166
1.02786
1.03705
1.32957
1.41555
1.00133
1.00421
1.00753
1.0114
1.01594
1.02166
1.02795
1.03639
1.32429
1.4154
1.00133
1.00421
1.00753
1.0114
1.01594
1.02166
1.02804
1.03596
1.31911
1.41539
1.00133
1.00421
1.00753
1.0114
1.01594
1.02165
1.02814
1.03569
1.31408
1.4154
1.00133
1.00421
1.00753
1.0114
1.01595
1.02163
1.02823
1.03554
1.3093
1.41537
1.00133
1.00421
1.00753
1.0114
1.01595
1.0216
1.02833
1.03546
1.30492
1.41527
1.00133
1.00421
1.00753
1.0114
1.01596
1.02156
1.02843
1.03543
1.30104
1.41512
1.00133
1.00422
1.00753
1.0114
1.01597
1.02151
1.02853
1.03542
1.29776
1.41491
1.00133
1.00422
1.00753
1.0114
1.01598
1.02147
1.02863
1.03543
1.2952
1.41461
1.00132
1.00422
1.00753
1.01139
1.01599
1.02143
1.02872
1.03544
1.29336
1.41418
1.00132
1.00422
1.00753
1.01139
1.01599
1.0214
1.0288
1.03544
1.29209
1.41381
1.00132
1.00422
1.00753
1.01139
1.016
1.02138
1.02886
1.03544
1.29125
1.41353
1.00132
1.00422
1.00753
1.01139
1.01601
1.02136
1.02893
1.03544
1.29085
1.41338
1.00132
1.00422
1.00753
1.01139
1.01601
1.02136
1.02893
1.03544
1.29084
1.41338
1.00132
1.00422
1.00753
1.01139
1.016
1.02138
1.02886
1.03544
1.29125
1.41353
1.00132
1.00422
1.00753
1.01139
1.01599
1.0214
1.0288
1.03544
1.29209
1.41381
1.00132
1.00422
1.00753
1.01139
1.01599
1.02143
1.02872
1.03544
1.29336
1.41418
1.00133
1.00422
1.00753
1.0114
1.01598
1.02147
1.02863
1.03543
1.2952
1.41461
1.00133
1.00422
1.00753
1.0114
1.01597
1.02151
1.02853
1.03542
1.29776
1.41491
1.00133
1.00421
1.00753
1.0114
1.01596
1.02156
1.02843
1.03543
1.30104
1.41512
1.00133
1.00421
1.00753
1.0114
1.01595
1.0216
1.02833
1.03546
1.30492
1.41527
1.00133
1.00421
1.00753
1.0114
1.01595
1.02163
1.02823
1.03554
1.3093
1.41537
1.00133
1.00421
1.00753
1.0114
1.01594
1.02165
1.02814
1.03569
1.31408
1.4154
1.00133
1.00421
1.00753
1.0114
1.01594
1.02166
1.02804
1.03596
1.31911
1.41539
1.00133
1.00421
1.00753
1.0114
1.01594
1.02166
1.02795
1.03639
1.32429
1.4154
1.00133
1.00421
1.00753
1.0114
1.01594
1.02166
1.02786
1.03705
1.32957
1.41555
1.00133
1.00421
1.00753
1.01139
1.01594
1.02166
1.02775
1.03803
1.33495
1.41596
1.00133
1.00421
1.00753
1.01139
1.01594
1.02166
1.02764
1.03954
1.34049
1.4167
1.00133
1.00421
1.00753
1.01139
1.01594
1.02166
1.02752
1.04183
1.34629
1.41772
1.00133
1.00421
1.00753
1.01139
1.01594
1.02167
1.02742
1.04526
1.35222
1.41893
1.00133
1.00421
1.00753
1.01139
1.01594
1.02168
1.02732
1.04993
1.35792
1.42025
1.00133
1.00421
1.00753
1.01139
1.01594
1.02169
1.02724
1.05537
1.36321
1.42162
1.00133
1.00421
1.00753
1.01139
1.01595
1.0217
1.02717
1.06126
1.36829
1.42311
1.39696
1.39406
1.3917
1.38881
1.38564
1.38201
1.37794
1.37328
1.36805
1.36207
1.39697
1.39405
1.39168
1.3888
1.38563
1.38201
1.37794
1.37329
1.36805
1.36206
1.39695
1.39402
1.39167
1.3888
1.38564
1.38204
1.37796
1.3733
1.36803
1.36201
1.3969
1.39394
1.39161
1.38876
1.38561
1.38202
1.37793
1.37326
1.36794
1.36184
1.39687
1.39386
1.39153
1.38869
1.38554
1.38195
1.37784
1.37314
1.36774
1.36155
1.39677
1.39372
1.39139
1.38855
1.3854
1.38179
1.37765
1.3729
1.36742
1.36112
1.39665
1.39355
1.3912
1.38833
1.38515
1.38153
1.37734
1.37253
1.36696
1.36053
1.39651
1.39337
1.39099
1.38805
1.3848
1.38112
1.37687
1.37199
1.36631
1.35974
1.39637
1.39316
1.39073
1.38771
1.38436
1.38057
1.37623
1.37127
1.36548
1.35873
1.39624
1.39294
1.39043
1.38732
1.38387
1.37994
1.37546
1.37039
1.36445
1.3575
1.39616
1.39279
1.39019
1.38696
1.3834
1.37934
1.37468
1.36943
1.36328
1.35609
1.39621
1.39277
1.3901
1.38677
1.3831
1.37889
1.37402
1.36851
1.36208
1.35457
1.39651
1.39303
1.39029
1.38685
1.38305
1.37869
1.37359
1.36776
1.36095
1.35306
1.39719
1.39374
1.39092
1.38736
1.38341
1.37883
1.37348
1.3673
1.36003
1.35166
1.39834
1.39493
1.39206
1.38838
1.38427
1.37941
1.37375
1.36718
1.35936
1.35038
1.39994
1.39659
1.39366
1.38985
1.38556
1.3804
1.37438
1.36734
1.3589
1.34919
1.40196
1.39865
1.39564
1.39168
1.38718
1.38169
1.37528
1.36771
1.35859
1.348
1.40439
1.4011
1.39797
1.39383
1.38911
1.38324
1.3764
1.36821
1.35832
1.34673
1.40729
1.40398
1.4007
1.39631
1.39134
1.38505
1.37775
1.36884
1.35807
1.34532
1.41088
1.40732
1.40388
1.39918
1.39393
1.3872
1.3794
1.36965
1.35783
1.34367
)
;

boundaryField
{
    inlet
    {
        type            fixedValue;
        value           uniform 1;
    }
    outlet
    {
        type            inletOutlet;
        inletValue      uniform 1;
        value           nonuniform List<scalar> 
100
(
1.09735
1.08897
1.07953
1.06946
1.0571
1.04212
1.02482
1.00637
0.989139
0.973664
0.958887
0.946963
0.938414
0.932511
0.928099
0.924879
0.922604
0.921067
0.920152
0.919552
1.12315
1.11744
1.11435
1.11348
1.11375
1.11328
1.11275
1.11282
1.11369
1.11486
1.11533
1.11518
1.11467
1.11381
1.11228
1.11007
1.10761
1.10545
1.10361
1.10188
1.12491
1.13301
1.14798
1.1658
1.19445
1.24322
1.29272
1.32321
1.34333
1.3534
1.34964
1.34368
1.32433
1.28232
1.23885
1.2024
1.16564
1.14064
1.13177
1.12856
1.10171
1.10344
1.10535
1.10754
1.1099
1.11205
1.11367
1.11483
1.11533
1.11526
1.11443
1.11363
1.11347
1.11357
1.11342
1.11309
1.11369
1.11507
1.11763
1.12113
0.919558
0.920158
0.921073
0.922609
0.924882
0.928092
0.932488
0.938367
0.94688
0.958782
0.973577
0.989128
1.00645
1.02499
1.0423
1.05726
1.06957
1.07956
1.08903
1.09728
)
;
    }
    triangle
    {
        type            zeroGradient;
    }
    top
    {
        type            symmetryPlane;
    }
    bottom
    {
        type            symmetryPlane;
    }
    defaultFaces
    {
        type            empty;
    }
}


// ************************************************************************* //
