/*--------------------------------*- C++ -*----------------------------------*\
  =========                 |
  \\      /  F ield         | OpenFOAM: The Open Source CFD Toolbox
   \\    /   O peration     | Website:  https://openfoam.org
    \\  /    A nd           | Version:  7
     \\/     M anipulation  |
\*---------------------------------------------------------------------------*/
FoamFile
{
    version     2.0;
    format      ascii;
    class       volScalarField;
    location    "0.2";
    object      rho;
}
// * * * * * * * * * * * * * * * * * * * * * * * * * * * * * * * * * * * * * //

dimensions      [1 -3 0 0 0 0 0];

internalField   nonuniform List<scalar> 
3225
(
1.44116
1.43217
1.42362
1.41585
1.40889
1.4023
1.39597
1.39008
1.38492
1.38047
1.37659
1.373
1.36963
1.36661
1.36414
1.36226
1.36091
1.35995
1.35929
1.35906
1.35898
1.36027
1.43593
1.427
1.41837
1.41047
1.40348
1.39696
1.39077
1.38498
1.37984
1.37539
1.37161
1.36819
1.36496
1.36202
1.35962
1.35786
1.35667
1.35584
1.35529
1.35517
1.35514
1.35658
1.43061
1.4218
1.41313
1.40508
1.39805
1.39161
1.38555
1.37981
1.37468
1.37028
1.3666
1.3633
1.3602
1.35738
1.3551
1.35344
1.35238
1.35165
1.35123
1.35126
1.35127
1.35288
1.42516
1.41649
1.40786
1.39977
1.39269
1.38625
1.38027
1.37465
1.36959
1.36523
1.36158
1.35836
1.35539
1.35273
1.35059
1.34903
1.34808
1.34743
1.34718
1.34732
1.3474
1.34916
1.41953
1.41105
1.40253
1.39443
1.3873
1.38089
1.37501
1.36948
1.36448
1.36016
1.35658
1.35344
1.35059
1.34808
1.3461
1.34465
1.34379
1.34321
1.34312
1.34336
1.34353
1.34545
1.41383
1.40548
1.39706
1.38904
1.38193
1.37552
1.36969
1.36426
1.35938
1.35513
1.35158
1.34848
1.34577
1.34345
1.34163
1.3403
1.33952
1.33901
1.33908
1.3394
1.33968
1.34177
1.40802
1.39978
1.3915
1.38359
1.37651
1.37013
1.36439
1.35906
1.35427
1.35007
1.34655
1.34355
1.34097
1.33883
1.33716
1.33595
1.33526
1.33486
1.33507
1.33545
1.33586
1.33813
1.40219
1.394
1.38578
1.37799
1.37105
1.36477
1.35908
1.3538
1.34912
1.34502
1.34155
1.33859
1.33616
1.3342
1.33269
1.33161
1.33097
1.33073
1.33107
1.33153
1.33207
1.33452
1.39631
1.38811
1.37998
1.37233
1.36552
1.35934
1.35374
1.34852
1.34393
1.33995
1.33652
1.33363
1.33136
1.32957
1.32821
1.32724
1.32669
1.32663
1.32705
1.32764
1.32831
1.33093
1.39042
1.38215
1.37404
1.36653
1.35993
1.35392
1.34836
1.34316
1.33869
1.33485
1.33152
1.3287
1.32655
1.32491
1.32371
1.32286
1.32242
1.32253
1.32301
1.32377
1.32457
1.32737
1.38444
1.37608
1.36802
1.36069
1.3543
1.34841
1.3429
1.33778
1.33345
1.32973
1.32649
1.32376
1.32175
1.32025
1.31919
1.31845
1.31816
1.31844
1.31897
1.31991
1.32083
1.32381
1.37839
1.36994
1.36196
1.35482
1.34862
1.34282
1.33738
1.3324
1.32821
1.32457
1.32143
1.31887
1.31698
1.31556
1.3146
1.31404
1.31394
1.31434
1.31495
1.31605
1.31708
1.32026
1.37226
1.36376
1.35589
1.34894
1.34288
1.33712
1.33181
1.32706
1.32298
1.31938
1.31636
1.31395
1.31221
1.31088
1.31
1.30961
1.30971
1.31023
1.31097
1.31219
1.31332
1.3167
1.3661
1.35755
1.34985
1.3431
1.33703
1.33128
1.32622
1.32175
1.31775
1.31414
1.3112
1.30902
1.30749
1.30618
1.30536
1.30516
1.30547
1.30613
1.30702
1.30832
1.30956
1.31315
1.3599
1.35143
1.34389
1.33717
1.33104
1.3254
1.32068
1.31645
1.31246
1.30887
1.30604
1.30406
1.30271
1.30144
1.30077
1.30072
1.30123
1.30205
1.30308
1.30448
1.30584
1.30962
1.35374
1.34531
1.33791
1.33119
1.32498
1.31952
1.31509
1.31105
1.30712
1.30357
1.30083
1.29906
1.2979
1.29671
1.29623
1.29624
1.297
1.298
1.29914
1.30064
1.30214
1.30612
1.34751
1.33931
1.33193
1.32501
1.3188
1.31364
1.30953
1.30559
1.30167
1.29821
1.29567
1.29412
1.29301
1.29192
1.29171
1.29183
1.29284
1.29395
1.29517
1.29684
1.29848
1.30267
1.34141
1.33322
1.32574
1.31875
1.31272
1.30784
1.30384
1.29995
1.29611
1.29287
1.29058
1.28917
1.28803
1.28717
1.28719
1.28748
1.28869
1.28989
1.29123
1.29304
1.29483
1.29926
1.33519
1.3271
1.3195
1.31248
1.30663
1.30194
1.29808
1.29424
1.29052
1.28754
1.28552
1.28423
1.28302
1.28243
1.28262
1.28318
1.28456
1.28582
1.2873
1.28925
1.29119
1.29589
1.32904
1.32077
1.31304
1.30622
1.30068
1.29609
1.2922
1.28835
1.28487
1.2823
1.28052
1.2792
1.27795
1.27773
1.27805
1.2789
1.28039
1.28173
1.28339
1.28547
1.28756
1.29255
1.32258
1.3142
1.30666
1.30014
1.29473
1.29009
1.28614
1.28238
1.27931
1.27714
1.27546
1.27399
1.27295
1.27307
1.27345
1.2746
1.27618
1.27762
1.27947
1.28169
1.28396
1.28923
1.31599
1.30754
1.30023
1.29406
1.28881
1.28406
1.27998
1.27636
1.27376
1.27196
1.27031
1.26866
1.26804
1.2683
1.26889
1.27029
1.27188
1.27345
1.27555
1.27798
1.28042
1.2859
1.30906
1.30071
1.29392
1.2881
1.28281
1.2778
1.27364
1.27034
1.26825
1.26675
1.26494
1.26331
1.2632
1.26343
1.26446
1.26593
1.26746
1.26926
1.27165
1.27433
1.27693
1.28254
1.30211
1.29408
1.28769
1.28198
1.27657
1.2714
1.26733
1.26439
1.26274
1.26134
1.25936
1.25815
1.25824
1.25857
1.26012
1.26146
1.263
1.26509
1.26778
1.27075
1.2735
1.27916
1.29532
1.28756
1.28138
1.27565
1.27011
1.26492
1.26104
1.25848
1.2572
1.25565
1.25373
1.25314
1.25307
1.25393
1.25571
1.25684
1.25858
1.261
1.26393
1.26719
1.27009
1.27577
1.28881
1.28121
1.2749
1.26894
1.26337
1.2584
1.25487
1.25272
1.25153
1.24966
1.24823
1.24799
1.24793
1.2495
1.25103
1.25216
1.25432
1.257
1.2601
1.26362
1.26669
1.2724
1.28252
1.27469
1.26805
1.26199
1.25658
1.25194
1.24889
1.2471
1.24558
1.24356
1.24279
1.24257
1.24316
1.40001
1.40001
1.40001
1.40001
1.40001
1.40001
1.40001
1.40001
1.40001
1.40001
1.40001
1.40001
1.40001
1.40001
1.40001
1.40001
1.40001
1.40001
1.40001
1.40001
1.40001
1.40109
1.40001
1.40001
1.40001
1.40001
1.40001
1.40001
1.40001
1.40001
1.40001
1.40001
1.40001
1.40001
1.40001
1.40001
1.40001
1.40001
1.40001
1.40001
1.40001
1.40001
1.40001
1.40109
1.40001
1.40001
1.40001
1.40001
1.40001
1.40001
1.40001
1.40001
1.40001
1.40001
1.40001
1.40001
1.40001
1.40001
1.40001
1.40001
1.40001
1.40001
1.40001
1.40001
1.40001
1.40109
1.40001
1.40001
1.40001
1.40001
1.40001
1.40001
1.40001
1.40001
1.40001
1.40001
1.40001
1.40001
1.40001
1.40001
1.40001
1.40001
1.40001
1.40001
1.40001
1.40001
1.40001
1.40109
1.40001
1.40001
1.40001
1.40001
1.40001
1.40001
1.40001
1.40001
1.40001
1.40001
1.40001
1.40001
1.40001
1.40001
1.40001
1.40001
1.40001
1.40001
1.40001
1.40001
1.40001
1.40109
1.40001
1.40001
1.40001
1.40001
1.40001
1.40001
1.40001
1.40001
1.40001
1.40001
1.40001
1.40001
1.40001
1.40001
1.40001
1.40001
1.40001
1.40001
1.40001
1.40001
1.40001
1.40109
1.40001
1.40001
1.40001
1.40001
1.40001
1.40001
1.40001
1.40001
1.40001
1.40001
1.40001
1.40001
1.40001
1.40001
1.40001
1.40001
1.40001
1.40001
1.40001
1.40001
1.40001
1.40109
1.40001
1.40001
1.40001
1.40001
1.40001
1.40001
1.40001
1.40001
1.40001
1.40001
1.40001
1.40001
1.40001
1.40001
1.40001
1.40001
1.40001
1.40001
1.40001
1.40001
1.40001
1.40109
1.40001
1.40001
1.40001
1.40001
1.40001
1.40001
1.40001
1.40001
1.40001
1.40001
1.40001
1.40001
1.40001
1.40001
1.40001
1.40001
1.40001
1.40001
1.40001
1.40001
1.40001
1.40109
1.40001
1.40001
1.40001
1.40001
1.40001
1.40001
1.40001
1.40001
1.40001
1.40001
1.40001
1.40001
1.40001
1.40001
1.40001
1.40001
1.40001
1.40001
1.40001
1.40001
1.40001
1.40109
1.40001
1.40001
1.40001
1.40001
1.40001
1.40001
1.40001
1.40001
1.40001
1.40001
1.40001
1.40001
1.40001
1.40001
1.40001
1.40001
1.40001
1.40001
1.40001
1.40001
1.40001
1.40109
1.40001
1.40001
1.40001
1.40001
1.40001
1.40001
1.40001
1.40001
1.40001
1.40001
1.40001
1.40001
1.40001
1.40001
1.40001
1.40001
1.40001
1.40001
1.40001
1.40001
1.40001
1.40109
1.40001
1.40001
1.40001
1.40001
1.40001
1.40001
1.40001
1.40001
1.40001
1.40001
1.40001
1.40001
1.40001
1.40001
1.40001
1.40001
1.40001
1.40001
1.40001
1.40001
1.40001
1.40109
1.40001
1.40001
1.40001
1.40001
1.40001
1.40001
1.40001
1.40001
1.40001
1.40001
1.40001
1.40001
1.40001
1.40001
1.40001
1.40001
1.40001
1.40001
1.40001
1.40001
1.40001
1.40109
1.40001
1.40001
1.40001
1.40001
1.40001
1.40001
1.40001
1.40001
1.40001
1.40001
1.40001
1.40001
1.40001
1.40001
1.40001
1.40001
1.40001
1.40001
1.40001
1.40001
1.40001
1.40109
1.40001
1.40001
1.40001
1.40001
1.40001
1.40001
1.40001
1.40001
1.40001
1.40001
1.40001
1.40001
1.40001
1.40001
1.40001
1.40001
1.40001
1.40001
1.40001
1.40001
1.40001
1.40109
1.40001
1.40001
1.40001
1.40001
1.40001
1.40001
1.40001
1.40001
1.40001
1.40001
1.40001
1.40001
1.40001
1.40001
1.40001
1.40001
1.40001
1.40001
1.40001
1.40001
1.40001
1.40109
1.40001
1.40001
1.40001
1.40001
1.40001
1.40001
1.40001
1.40001
1.40001
1.40001
1.40001
1.40001
1.40001
1.40001
1.40001
1.40001
1.40001
1.40001
1.40001
1.40001
1.40001
1.40109
1.40001
1.40001
1.40001
1.40001
1.40001
1.40001
1.40001
1.40001
1.40001
1.40001
1.40001
1.40001
1.40001
1.40001
1.40001
1.40001
1.40001
1.40001
1.40001
1.40001
1.40001
1.40109
1.40001
1.40001
1.40001
1.40001
1.40001
1.40001
1.40001
1.40001
1.40001
1.40001
1.40001
1.40001
1.40001
1.40001
1.40001
1.40001
1.40001
1.40001
1.40001
1.40001
1.40001
1.40109
1.40001
1.40001
1.40001
1.40001
1.40001
1.40001
1.40001
1.40001
1.40001
1.40001
1.40001
1.40001
1.40001
1.40001
1.40001
1.40001
1.40001
1.40001
1.40001
1.40001
1.40001
1.40109
1.40001
1.40001
1.40001
1.40001
1.40001
1.40001
1.40001
1.40001
1.40001
1.40001
1.40001
1.40001
1.40001
1.40001
1.40001
1.40001
1.40001
1.40001
1.40001
1.40001
1.40001
1.40109
1.40001
1.40001
1.40001
1.40001
1.40001
1.40001
1.40001
1.40001
1.40001
1.40001
1.40001
1.40001
1.40001
1.40001
1.40001
1.40001
1.40001
1.40001
1.40001
1.40001
1.40001
1.40109
1.40001
1.40001
1.40001
1.40001
1.40001
1.40001
1.40001
1.40001
1.40001
1.40001
1.40001
1.40001
1.40001
1.40001
1.40001
1.40001
1.40001
1.40001
1.40001
1.40001
1.40001
1.40109
1.40001
1.40001
1.40001
1.40001
1.40001
1.40001
1.40001
1.40001
1.40001
1.40001
1.40001
1.40001
1.40001
1.40001
1.40001
1.40001
1.40001
1.40001
1.40001
1.40001
1.40001
1.40109
1.40001
1.40001
1.40001
1.40001
1.40001
1.40001
1.40001
1.40001
1.40001
1.40001
1.40001
1.40001
1.40001
1.40001
1.40001
1.40001
1.40001
1.40001
1.40001
1.40001
1.40001
1.40109
1.40001
1.40001
1.40001
1.40001
1.40001
1.40001
1.40001
1.40001
1.40001
1.40001
1.40001
1.40001
1.40001
1.40001
1.40001
1.40001
1.40001
1.40001
1.40001
1.40001
1.40001
1.40109
1.40001
1.40001
1.40001
1.40001
1.40001
1.40001
1.40001
1.40001
1.40001
1.40001
1.40001
1.40001
1.40001
1.40001
1.40001
1.40001
1.40001
1.40001
1.40001
1.40001
1.40001
1.40109
1.40001
1.40001
1.40001
1.40001
1.40001
1.40001
1.40001
1.40001
1.40001
1.40001
1.40001
1.40001
1.40001
1.40001
1.40001
1.40001
1.40001
1.40001
1.40001
1.40001
1.40001
1.40109
1.40001
1.40001
1.40001
1.40001
1.40001
1.40001
1.40001
1.40001
1.40001
1.40001
1.40001
1.40001
1.40001
1.40001
1.40001
1.40001
1.40001
1.40001
1.40001
1.40001
1.40001
1.40109
1.40001
1.40001
1.40001
1.40001
1.40001
1.40001
1.40001
1.40001
1.40001
1.40001
1.40001
1.40001
1.40001
1.40001
1.40001
1.40001
1.40001
1.40001
1.40001
1.40001
1.40001
1.40109
1.40001
1.40001
1.40001
1.40001
1.40001
1.40001
1.40001
1.40001
1.40001
1.40001
1.40001
1.40001
1.40001
1.40001
1.40001
1.40001
1.40001
1.40001
1.40001
1.40001
1.40001
1.40109
1.40001
1.40001
1.40001
1.40001
1.40001
1.40001
1.40001
1.40001
1.40001
1.40001
1.40001
1.40001
1.40001
1.40001
1.40001
1.40001
1.40001
1.40001
1.40001
1.40001
1.40001
1.40109
1.40001
1.40001
1.40001
1.40001
1.40001
1.40001
1.40001
1.40001
1.40001
1.40001
1.40001
1.40001
1.40001
1.40001
1.40001
1.40001
1.40001
1.40001
1.40001
1.40001
1.40001
1.40109
1.40001
1.40001
1.40001
1.40001
1.40001
1.40001
1.40001
1.40001
1.40001
1.40001
1.40001
1.40001
1.40001
1.40001
1.40001
1.40001
1.40001
1.40001
1.40001
1.40001
1.40001
1.40109
1.40001
1.40001
1.40001
1.40001
1.40001
1.40001
1.40001
1.40001
1.40001
1.40001
1.40001
1.40001
1.40001
1.40001
1.40001
1.40001
1.40001
1.40001
1.40001
1.40001
1.40001
1.40109
1.40001
1.40001
1.40001
1.40001
1.40001
1.40001
1.40001
1.40001
1.40001
1.40001
1.40001
1.40001
1.40001
1.40001
1.40001
1.40001
1.40001
1.40001
1.40001
1.40001
1.40001
1.40109
1.40001
1.40001
1.40001
1.40001
1.40001
1.40001
1.40001
1.40001
1.40001
1.40001
1.40001
1.40001
1.40001
1.40001
1.40001
1.40001
1.40001
1.40001
1.40001
1.40001
1.40001
1.40109
1.40001
1.40001
1.40001
1.40001
1.40001
1.40001
1.40001
1.40001
1.40001
1.40001
1.40001
1.40001
1.40001
1.40001
1.40001
1.40001
1.40001
1.40001
1.40001
1.40001
1.40001
1.40109
1.40001
1.40001
1.40001
1.40001
1.40001
1.40001
1.40001
1.40001
1.40001
1.40001
1.40001
1.40001
1.40001
1.40001
1.40001
1.40001
1.40001
1.40001
1.40001
1.40001
1.40001
1.40109
1.40001
1.40001
1.40001
1.40001
1.40001
1.40001
1.40001
1.40001
1.40001
1.40001
1.40001
1.40001
1.40001
1.40001
1.40001
1.40001
1.40001
1.40001
1.40001
1.40001
1.40001
1.40109
1.40001
1.40001
1.40001
1.40001
1.40001
1.40001
1.40001
1.40001
1.40001
1.40001
1.40001
1.40001
1.40001
1.40001
1.40001
1.40001
1.40001
1.40001
1.40001
1.40001
1.40001
1.40109
1.40001
1.40001
1.40001
1.40001
1.40001
1.40001
1.40001
1.40001
1.40001
1.40001
1.40001
1.40001
1.40001
1.40001
1.40001
1.40001
1.40001
1.40001
1.40001
1.40001
1.40001
1.40109
1.40001
1.40001
1.40001
1.40001
1.40001
1.40001
1.40001
1.40001
1.40001
1.40001
1.40001
1.40001
1.40001
1.40001
1.40001
1.40001
1.40001
1.40001
1.40001
1.40001
1.40001
1.40109
1.40001
1.40001
1.40001
1.40001
1.40001
1.40001
1.40001
1.40001
1.40001
1.40001
1.40001
1.40001
1.40001
1.40001
1.40001
1.40001
1.40001
1.40001
1.40001
1.40001
1.40001
1.40109
1.40001
1.40001
1.40001
1.40001
1.40001
1.40001
1.40001
1.40001
1.40001
1.40001
1.40001
1.40001
1.40001
1.40001
1.40001
1.40001
1.40001
1.40001
1.40001
1.40001
1.40001
1.40109
1.40001
1.40001
1.40001
1.40001
1.40001
1.40001
1.40001
1.40001
1.40001
1.40001
1.40001
1.40001
1.40001
1.40001
1.40001
1.40001
1.40001
1.40001
1.40001
1.40001
1.40001
1.40109
1.40001
1.40001
1.40001
1.40001
1.40001
1.40001
1.40001
1.40001
1.40001
1.40001
1.40001
1.40001
1.40001
1.40001
1.40001
1.40001
1.40001
1.40001
1.40001
1.40001
1.40001
1.40109
1.40001
1.40001
1.40001
1.40001
1.40001
1.40001
1.40001
1.40001
1.40001
1.40001
1.40001
1.40001
1.40001
1.40001
1.40001
1.40001
1.40001
1.40001
1.40001
1.40001
1.40001
1.40109
1.40001
1.40001
1.40001
1.40001
1.40001
1.40001
1.40001
1.40001
1.40001
1.40001
1.40001
1.40001
1.40001
1.40001
1.40001
1.40001
1.40001
1.40001
1.40001
1.40001
1.40001
1.40109
1.40001
1.40001
1.40001
1.40001
1.40001
1.40001
1.40001
1.40001
1.40001
1.40001
1.40001
1.40001
1.40001
1.40001
1.40001
1.40001
1.40001
1.40001
1.40001
1.40001
1.40001
1.40109
1.40001
1.40001
1.40001
1.40001
1.40001
1.40001
1.40001
1.40001
1.40001
1.40001
1.40001
1.40001
1.40001
1.40001
1.40001
1.40001
1.40001
1.40001
1.40001
1.40001
1.40001
1.40109
1.40001
1.40001
1.40001
1.40001
1.40001
1.40001
1.40001
1.40001
1.40001
1.40001
1.40001
1.40001
1.40001
1.40001
1.40001
1.40001
1.40001
1.40001
1.40001
1.40001
1.40001
1.40109
1.40001
1.40001
1.40001
1.40001
1.40001
1.40001
1.40001
1.40001
1.40001
1.40001
1.40001
1.40001
1.40001
1.40001
1.40001
1.40001
1.40001
1.40001
1.40001
1.40001
1.40001
1.40109
1.40001
1.40001
1.40001
1.40001
1.40001
1.40001
1.40001
1.40001
1.40001
1.40001
1.40001
1.40001
1.40001
1.40001
1.40001
1.40001
1.40001
1.40001
1.40001
1.40001
1.40001
1.40109
1.40001
1.40001
1.40001
1.40001
1.40001
1.40001
1.40001
1.40001
1.40001
1.40001
1.40001
1.40001
1.40001
1.40001
1.40001
1.40001
1.40001
1.40001
1.40001
1.40001
1.40001
1.40109
1.40001
1.40001
1.40001
1.40001
1.40001
1.40001
1.40001
1.40001
1.40001
1.40001
1.40001
1.40001
1.40001
1.40001
1.40001
1.40001
1.40001
1.40001
1.40001
1.40001
1.40001
1.40109
1.40001
1.40001
1.40001
1.40001
1.40001
1.40001
1.40001
1.40001
1.40001
1.40001
1.40001
1.40001
1.40001
1.40001
1.40001
1.40001
1.40001
1.40001
1.40001
1.40001
1.40001
1.40109
1.40001
1.40001
1.40001
1.40001
1.40001
1.40001
1.40001
1.40001
1.40001
1.40001
1.40001
1.40001
1.40001
1.40001
1.40001
1.40001
1.40001
1.40001
1.40001
1.40001
1.40001
1.40109
1.40001
1.40001
1.40001
1.40001
1.40001
1.40001
1.40001
1.40001
1.40001
1.40001
1.40001
1.40001
1.40001
1.40001
1.40001
1.40001
1.40001
1.40001
1.40001
1.40001
1.40001
1.40109
1.40001
1.40001
1.40001
1.40001
1.40001
1.40001
1.40001
1.40001
1.40001
1.40001
1.40001
1.40001
1.40001
1.40001
1.40001
1.40001
1.40001
1.40001
1.40001
1.40001
1.40001
1.40109
1.40001
1.40001
1.40001
1.40001
1.40001
1.40001
1.40001
1.40001
1.40001
1.40001
1.40001
1.40001
1.40001
1.40001
1.40001
1.40001
1.40001
1.40001
1.40001
1.40001
1.40001
1.40109
1.40001
1.40001
1.40001
1.40001
1.40001
1.40001
1.40001
1.40001
1.40001
1.40001
1.40001
1.40001
1.40001
1.40001
1.40001
1.40001
1.40001
1.40001
1.40001
1.40001
1.40001
1.40109
1.40001
1.40001
1.40001
1.40001
1.40001
1.40001
1.40001
1.40001
1.40001
1.40001
1.40001
1.40001
1.40001
1.40001
1.40001
1.40001
1.40001
1.40001
1.40001
1.40001
1.40001
1.40109
1.40001
1.40001
1.40001
1.40001
1.40001
1.40001
1.40001
1.40001
1.40001
1.40001
1.40001
1.40001
1.40001
1.40001
1.40001
1.40001
1.40001
1.40001
1.40001
1.40001
1.40001
1.40109
1.40001
1.40001
1.40001
1.40001
1.40001
1.40001
1.40001
1.40001
1.40001
1.40001
1.40001
1.40001
1.40001
1.40001
1.40001
1.40001
1.40001
1.40001
1.40001
1.40001
1.40001
1.40109
1.40001
1.40001
1.40001
1.40001
1.40001
1.40001
1.40001
1.40001
1.40001
1.40001
1.40001
1.40001
1.40001
1.40001
1.40001
1.40001
1.40001
1.40001
1.40001
1.40001
1.40001
1.40109
1.40001
1.40001
1.40001
1.40001
1.40001
1.40001
1.40001
1.40001
1.40001
1.40001
1.40001
1.40001
1.40001
1.40001
1.40001
1.40001
1.40001
1.40001
1.40001
1.40001
1.40001
1.40109
1.40001
1.40001
1.40001
1.40001
1.40001
1.40001
1.40001
1.40001
1.40001
1.40001
1.40001
1.40001
1.40001
1.40001
1.40001
1.40001
1.40001
1.40001
1.40001
1.40001
1.40001
1.40109
1.40001
1.40001
1.40001
1.40001
1.40001
1.40001
1.40001
1.40001
1.40001
1.40001
1.40001
1.40001
1.40001
1.40001
1.40001
1.40001
1.40001
1.40001
1.40001
1.40001
1.40001
1.40109
1.40001
1.40001
1.40001
1.40001
1.40001
1.40001
1.40001
1.40001
1.40001
1.40001
1.40001
1.40001
1.40001
1.40001
1.40001
1.40001
1.40001
1.40001
1.40001
1.40001
1.40001
1.40109
1.40001
1.40001
1.40001
1.40001
1.40001
1.40001
1.40001
1.40001
1.40001
1.40001
1.40001
1.40001
1.40001
1.40001
1.40001
1.40001
1.40001
1.40001
1.40001
1.40001
1.40001
1.40109
1.40001
1.40001
1.40001
1.40001
1.40001
1.40001
1.40001
1.40001
1.40001
1.40001
1.40001
1.40001
1.40001
1.40001
1.40001
1.40001
1.40001
1.40001
1.40001
1.40001
1.40001
1.40109
1.40001
1.40001
1.40001
1.40001
1.40001
1.40001
1.40001
1.40001
1.40001
1.40001
1.40001
1.40001
1.40001
1.40001
1.40001
1.40001
1.40001
1.40001
1.40001
1.40001
1.40001
1.40109
1.40001
1.40001
1.40001
1.40001
1.40001
1.40001
1.40001
1.40001
1.40001
1.40001
1.40001
1.40001
1.40001
1.40001
1.40001
1.40001
1.40001
1.40001
1.40001
1.40001
1.40001
1.40109
1.40001
1.40001
1.40001
1.40001
1.40001
1.40001
1.40001
1.40001
1.40001
1.40001
1.40001
1.40001
1.40001
1.40001
1.40001
1.40001
1.40001
1.40001
1.40001
1.40001
1.40001
1.40109
1.40001
1.40001
1.40001
1.40001
1.40001
1.40001
1.40001
1.40001
1.40001
1.40001
1.40001
1.40001
1.40001
1.40001
1.40001
1.40001
1.40001
1.40001
1.40001
1.40001
1.40001
1.40109
1.40001
1.40001
1.40001
1.40001
1.40001
1.40001
1.40001
1.40001
1.40001
1.40001
1.40001
1.40001
1.40001
1.40001
1.40001
1.40001
1.40001
1.40001
1.40001
1.40001
1.40001
1.40109
1.40001
1.40001
1.40001
1.40001
1.40001
1.40001
1.40001
1.40001
1.40001
1.40001
1.40001
1.40001
1.40001
1.40001
1.40001
1.40001
1.40001
1.40001
1.40001
1.40001
1.40001
1.40109
1.40001
1.40001
1.40001
1.40001
1.40001
1.40001
1.40001
1.40001
1.40001
1.40001
1.40001
1.40001
1.40001
1.40001
1.40001
1.40001
1.40001
1.40001
1.40001
1.40001
1.40001
1.40109
1.40001
1.40001
1.40001
1.40001
1.40001
1.40001
1.40001
1.40001
1.40001
1.40001
1.40001
1.40001
1.40001
1.40001
1.40001
1.40001
1.40001
1.40001
1.40001
1.40001
1.40001
1.40109
1.40001
1.40001
1.40001
1.40001
1.40001
1.40001
1.40001
1.40001
1.40001
1.40001
1.40001
1.40001
1.40001
1.40001
1.40001
1.40001
1.40001
1.40001
1.40001
1.40001
1.40001
1.40109
1.40001
1.40001
1.40001
1.40001
1.40001
1.40001
1.40001
1.40001
1.40001
1.40001
1.40001
1.40001
1.40001
1.40001
1.40001
1.40001
1.40001
1.40001
1.40001
1.40001
1.40001
1.40109
1.40001
1.40001
1.40001
1.40001
1.40002
1.40003
1.40005
1.40008
1.40011
1.40014
1.40016
1.40016
1.40015
1.40012
1.40009
1.40006
1.40004
1.40002
1.40001
1.40001
1.40001
1.40109
1.40005
1.40014
1.40036
1.40078
1.40148
1.40248
1.40371
1.40501
1.40624
1.40725
1.40765
1.40759
1.40717
1.40635
1.40522
1.40395
1.40275
1.40173
1.40097
1.40047
1.40018
1.40114
1.40368
1.40745
1.41312
1.42064
1.42954
1.43897
1.44804
1.45583
1.46179
1.46579
1.46699
1.46614
1.4634
1.45857
1.452
1.44407
1.4354
1.42683
1.41901
1.4123
1.40727
1.40379
1.4497
1.47165
1.49464
1.51659
1.53639
1.55282
1.56561
1.57475
1.57996
1.58182
1.58113
1.57797
1.5722
1.56382
1.553
1.53973
1.52368
1.50634
1.48831
1.46996
1.45329
1.43114
1.57792
1.60526
1.62702
1.64277
1.654
1.66123
1.66495
1.66622
1.66526
1.66231
1.65827
1.65238
1.64542
1.63708
1.62685
1.61508
1.60152
1.58642
1.56929
1.55006
1.53158
1.49884
1.68964
1.69938
1.70597
1.70854
1.70729
1.70455
1.70198
1.69934
1.69596
1.69097
1.68511
1.67876
1.67188
1.66435
1.65605
1.64701
1.63635
1.62245
1.6095
1.59658
1.5839
1.55851
1.73485
1.73149
1.72659
1.72272
1.72021
1.71697
1.71128
1.70345
1.69707
1.69167
1.6846
1.67709
1.6701
1.66268
1.65441
1.6451
1.63854
1.63368
1.62485
1.61049
1.59767
1.58143
1.73859
1.73483
1.73248
1.72747
1.71983
1.71386
1.70822
1.70384
1.69857
1.69292
1.68616
1.67873
1.67184
1.66495
1.65774
1.65037
1.64199
1.63213
1.62222
1.61456
1.60651
1.59229
1.74169
1.73425
1.72897
1.7227
1.71503
1.70656
1.69887
1.69386
1.68881
1.68325
1.67677
1.66938
1.66456
1.66173
1.6574
1.65072
1.6418
1.63179
1.62125
1.61285
1.60517
1.59092
1.73542
1.72475
1.71437
1.70657
1.70102
1.69274
1.6828
1.67459
1.66941
1.66489
1.65951
1.65234
1.64642
1.6444
1.64408
1.64137
1.63715
1.63101
1.62102
1.61032
1.60173
1.58828
1.71826
1.70985
1.69959
1.69053
1.68469
1.67834
1.66968
1.66029
1.65386
1.64992
1.64546
1.63941
1.63204
1.62648
1.62489
1.62413
1.6233
1.62014
1.61496
1.60728
1.59966
1.58647
1.70417
1.69725
1.68826
1.6785
1.67118
1.66559
1.6592
1.65068
1.64253
1.63805
1.63434
1.62952
1.62293
1.61487
1.61021
1.60864
1.60802
1.60587
1.60363
1.59953
1.59265
1.58053
1.6936
1.6861
1.67775
1.66888
1.66065
1.65445
1.64866
1.64121
1.63235
1.62603
1.62249
1.61871
1.61331
1.60573
1.59818
1.59522
1.59454
1.59413
1.5924
1.58994
1.58463
1.57492
1.68332
1.6758
1.668
1.65987
1.65096
1.64357
1.63773
1.63133
1.62333
1.61504
1.61016
1.60694
1.60258
1.59662
1.58848
1.58311
1.58202
1.58241
1.58186
1.58007
1.57671
1.56915
1.67329
1.66561
1.65806
1.65024
1.64151
1.63327
1.62695
1.62112
1.61433
1.60579
1.59879
1.59531
1.59187
1.58745
1.58063
1.573
1.5695
1.56951
1.57031
1.5701
1.56836
1.56284
1.66326
1.65484
1.64762
1.64037
1.63228
1.62362
1.61618
1.61041
1.60464
1.59714
1.58873
1.58348
1.58052
1.57716
1.57211
1.56502
1.55864
1.55702
1.55758
1.55886
1.55867
1.55539
1.65357
1.6445
1.6368
1.62988
1.62253
1.61434
1.60617
1.59967
1.59411
1.58775
1.57986
1.5725
1.56885
1.56617
1.56245
1.55688
1.54968
1.54557
1.54522
1.5464
1.54756
1.5464
1.64385
1.63467
1.6261
1.61894
1.61228
1.60487
1.59664
1.58929
1.58346
1.5779
1.57124
1.56318
1.55753
1.55471
1.55194
1.54793
1.54188
1.53553
1.53353
1.53399
1.53619
1.53658
1.63381
1.62511
1.6161
1.60808
1.60137
1.59467
1.58722
1.57949
1.57288
1.5676
1.56207
1.55488
1.54766
1.54355
1.54123
1.53812
1.53347
1.52704
1.52286
1.5227
1.52458
1.52642
1.62351
1.61529
1.60643
1.59786
1.59062
1.58398
1.57715
1.56977
1.56271
1.55719
1.55217
1.54615
1.53884
1.53283
1.53008
1.52782
1.52448
1.51936
1.51341
1.51175
1.51252
1.51577
1.61307
1.60518
1.5969
1.58828
1.58019
1.57312
1.56674
1.55998
1.55287
1.54681
1.5418
1.53665
1.53038
1.52348
1.51922
1.5172
1.51476
1.51103
1.50523
1.50148
1.50125
1.50487
1.60292
1.59486
1.58685
1.57872
1.57049
1.56276
1.55615
1.54977
1.54311
1.53682
1.53147
1.52667
1.52138
1.51489
1.50912
1.50637
1.50451
1.50197
1.49756
1.49248
1.4909
1.49391
1.59288
1.58449
1.57666
1.56899
1.56088
1.55284
1.54579
1.53947
1.53325
1.52702
1.52128
1.51644
1.51177
1.50633
1.50026
1.49608
1.4941
1.49224
1.48919
1.48448
1.48109
1.48345
1.58318
1.57425
1.56611
1.55873
1.55111
1.54326
1.53578
1.52908
1.52307
1.51721
1.51138
1.50626
1.50177
1.49716
1.49175
1.48659
1.48374
1.48219
1.48014
1.4767
1.47211
1.47371
1.57329
1.56416
1.55572
1.54823
1.54085
1.53341
1.52596
1.51895
1.51286
1.50721
1.50152
1.49625
1.49172
1.48755
1.48299
1.47787
1.47402
1.47221
1.47068
1.46842
1.46384
1.46421
1.56321
1.55407
1.54534
1.53753
1.53024
1.52323
1.51605
1.50889
1.50259
1.49702
1.49162
1.48638
1.48172
1.47768
1.47376
1.46931
1.46496
1.46245
1.46106
1.45965
1.45601
1.4552
1.55262
1.54383
1.53515
1.52696
1.51945
1.51261
1.50584
1.49892
1.49249
1.48675
1.48153
1.47651
1.47184
1.46777
1.46419
1.46049
1.4564
1.45323
1.45153
1.45055
1.44796
1.4466
1.5418
1.53327
1.52482
1.51651
1.50879
1.50192
1.49537
1.48876
1.4824
1.47653
1.47137
1.46653
1.46192
1.45787
1.45452
1.45136
1.44779
1.4444
1.44219
1.44133
1.43956
1.43833
1.53098
1.52267
1.51448
1.50619
1.49833
1.49134
1.48486
1.47852
1.47237
1.46649
1.46127
1.45654
1.4521
1.44811
1.44478
1.44189
1.43891
1.43585
1.43328
1.43224
1.43092
1.4301
1.52051
1.51214
1.50411
1.496
1.48816
1.481
1.47441
1.46826
1.46236
1.45659
1.45129
1.44656
1.44225
1.43838
1.43508
1.43235
1.42982
1.42724
1.42465
1.42335
1.42229
1.4219
1.51048
1.5021
1.49402
1.48592
1.47814
1.47096
1.46429
1.45818
1.45241
1.4468
1.44154
1.43683
1.43264
1.42885
1.42555
1.42286
1.4206
1.4185
1.41618
1.41472
1.41369
1.41363
1.50055
1.49213
1.48413
1.47609
1.4683
1.46102
1.45431
1.44825
1.44256
1.43709
1.43197
1.42732
1.42314
1.41941
1.41617
1.41355
1.41145
1.40967
1.4077
1.40623
1.40524
1.40546
1.49073
1.48236
1.4743
1.46626
1.45852
1.45127
1.44457
1.43847
1.43278
1.42746
1.42256
1.41799
1.41383
1.41018
1.40704
1.40446
1.40239
1.4008
1.39917
1.3979
1.397
1.39734
1.48044
1.47219
1.46425
1.45632
1.44863
1.44134
1.43463
1.42859
1.42306
1.4179
1.41313
1.40863
1.40458
1.40108
1.39804
1.39551
1.39348
1.39202
1.39067
1.38965
1.38885
1.38936
1.47005
1.46159
1.45382
1.44609
1.4385
1.43127
1.42462
1.41859
1.41317
1.40822
1.40362
1.39924
1.39533
1.39202
1.38917
1.38673
1.38473
1.38335
1.38222
1.38146
1.38084
1.38149
1.45959
1.45094
1.44294
1.43535
1.42812
1.42101
1.41432
1.40836
1.40318
1.39842
1.39397
1.38979
1.38609
1.38292
1.38019
1.37787
1.37602
1.37477
1.37384
1.37331
1.37287
1.3737
1.4489
1.44006
1.43182
1.42423
1.41712
1.41025
1.40381
1.39791
1.39272
1.3881
1.384
1.3802
1.37667
1.37357
1.37099
1.36894
1.36737
1.36627
1.36548
1.36511
1.36489
1.36599
)
;

boundaryField
{
    inlet
    {
        type            calculated;
        value           nonuniform 0();
    }
    outlet
    {
        type            calculated;
        value           nonuniform List<scalar> 
146
(
1.36014
1.35644
1.35274
1.34902
1.34532
1.34164
1.338
1.33439
1.3308
1.32724
1.32368
1.32013
1.31657
1.31302
1.30949
1.30599
1.30254
1.29913
1.29576
1.29242
1.28909
1.28576
1.28241
1.27903
1.27564
1.27228
1.40109
1.40109
1.40109
1.40109
1.40109
1.40109
1.40109
1.40109
1.40109
1.40109
1.40109
1.40109
1.40109
1.40109
1.40109
1.40109
1.40109
1.40109
1.40109
1.40109
1.40109
1.40109
1.40109
1.40109
1.40109
1.40109
1.40109
1.40109
1.40109
1.40109
1.40109
1.40109
1.40109
1.40109
1.40109
1.40109
1.40109
1.40109
1.40109
1.40109
1.40109
1.40109
1.40109
1.40109
1.40109
1.40109
1.40109
1.40109
1.40109
1.40109
1.40109
1.40109
1.40109
1.40109
1.40109
1.40109
1.40109
1.40109
1.40109
1.40109
1.40109
1.40109
1.40109
1.40109
1.40109
1.40109
1.40109
1.40109
1.40109
1.40109
1.40109
1.40109
1.40109
1.40109
1.40109
1.40109
1.40109
1.40109
1.40109
1.40109
1.40109
1.40109
1.40109
1.40109
1.40114
1.404
1.43249
1.50084
1.5597
1.58178
1.59242
1.59107
1.58835
1.58643
1.5805
1.57492
1.56911
1.56274
1.55523
1.5462
1.53635
1.52616
1.51549
1.50459
1.49364
1.4832
1.47349
1.464
1.45502
1.44645
1.4382
1.42996
1.42176
1.41349
1.40532
1.3972
1.38922
1.38136
1.37357
1.36585
)
;
    }
    triangle
    {
        type            calculated;
        value           nonuniform 0();
    }
    top
    {
        type            symmetryPlane;
    }
    bottom
    {
        type            symmetryPlane;
    }
    defaultFaces
    {
        type            empty;
    }
    procBoundary7to6
    {
        type            processor;
        value           nonuniform List<scalar> 
147
(
1.45037
1.44499
1.43947
1.43384
1.42809
1.42225
1.41641
1.41051
1.40467
1.3988
1.39295
1.38704
1.38106
1.37505
1.36891
1.3628
1.3565
1.35022
1.34387
1.33756
1.33126
1.32487
1.31832
1.31153
1.30468
1.29797
1.29147
1.40001
1.40001
1.40001
1.40001
1.40001
1.40001
1.40001
1.40001
1.40001
1.40001
1.40001
1.40001
1.40001
1.40001
1.40001
1.40001
1.40001
1.40001
1.40001
1.40001
1.40001
1.40001
1.40001
1.40001
1.40001
1.40001
1.40001
1.40001
1.40001
1.40001
1.40001
1.40001
1.40001
1.40001
1.40001
1.40001
1.40001
1.40001
1.40001
1.40001
1.40001
1.40001
1.40001
1.40001
1.40001
1.40001
1.40001
1.40001
1.40001
1.40001
1.40001
1.40001
1.40001
1.40001
1.40001
1.40001
1.40001
1.40001
1.40001
1.40001
1.40001
1.40001
1.40001
1.40001
1.40001
1.40001
1.40001
1.40001
1.40001
1.40001
1.40001
1.40001
1.40001
1.40001
1.40001
1.40001
1.40001
1.40001
1.40001
1.40001
1.40001
1.40001
1.40001
1.40001
1.40002
1.40155
1.43105
1.54561
1.67347
1.73208
1.74508
1.74578
1.74289
1.72761
1.71266
1.70174
1.6915
1.68173
1.67242
1.66246
1.6522
1.64167
1.6314
1.62136
1.61168
1.60213
1.59246
1.58245
1.57195
1.56103
1.55014
1.53944
1.52934
1.51938
1.5097
1.49974
1.48959
1.4794
1.46906
1.4584
)
;
    }
    procBoundary7to15
    {
        type            processor;
        value           nonuniform List<scalar> 
23
(
1.24505
1.24604
1.24751
1.25017
1.25302
1.2563
1.26005
1.26327
1.26904
1.27593
1.26779
1.26104
1.25502
1.24974
1.24552
1.24314
1.24142
1.23935
1.23758
1.23709
1.23721
1.24505
1.23885
)
;
    }
}


// ************************************************************************* //
