/*--------------------------------*- C++ -*----------------------------------*\
  =========                 |
  \\      /  F ield         | OpenFOAM: The Open Source CFD Toolbox
   \\    /   O peration     | Website:  https://openfoam.org
    \\  /    A nd           | Version:  7
     \\/     M anipulation  |
\*---------------------------------------------------------------------------*/
FoamFile
{
    version     2.0;
    format      ascii;
    class       volVectorField;
    location    "0.2";
    object      U;
}
// * * * * * * * * * * * * * * * * * * * * * * * * * * * * * * * * * * * * * //

dimensions      [0 1 -1 0 0 0 0];

internalField   nonuniform List<vector> 
3225
(
(1.18264 -0.0935549 0)
(1.18628 -0.084906 0)
(1.18951 -0.0763506 0)
(1.19244 -0.068043 0)
(1.19492 -0.0599635 0)
(1.19672 -0.0520102 0)
(1.19807 -0.0439775 0)
(1.19907 -0.0360474 0)
(1.19981 -0.0284703 0)
(1.19996 -0.0214759 0)
(1.1998 -0.014708 0)
(1.19893 -0.00832338 0)
(1.19781 -0.00205069 0)
(1.19611 0.00369497 0)
(1.19429 0.00911331 0)
(1.19213 0.0140271 0)
(1.18984 0.0186594 0)
(1.18716 0.0226588 0)
(1.18441 0.0261955 0)
(1.18108 0.0291901 0)
(1.17827 0.0318418 0)
(1.17216 0.034898 0)
(1.18517 -0.0912026 0)
(1.18899 -0.082387 0)
(1.1921 -0.0737127 0)
(1.19486 -0.0652694 0)
(1.19725 -0.0570451 0)
(1.19902 -0.0489985 0)
(1.20034 -0.0409137 0)
(1.20116 -0.0329684 0)
(1.20168 -0.0253404 0)
(1.20167 -0.0182741 0)
(1.20148 -0.0113964 0)
(1.20058 -0.00495729 0)
(1.19932 0.00128922 0)
(1.1974 0.00699879 0)
(1.1954 0.0124268 0)
(1.19315 0.0173785 0)
(1.19083 0.0220359 0)
(1.18809 0.0260096 0)
(1.18526 0.0295315 0)
(1.18181 0.0324968 0)
(1.17897 0.0351712 0)
(1.17283 0.0381642 0)
(1.18793 -0.0886644 0)
(1.19157 -0.0799294 0)
(1.19475 -0.0710705 0)
(1.19745 -0.0624284 0)
(1.1998 -0.0540262 0)
(1.20152 -0.0458886 0)
(1.20267 -0.0378222 0)
(1.20334 -0.0298549 0)
(1.20378 -0.0221058 0)
(1.2037 -0.014894 0)
(1.20338 -0.00796444 0)
(1.20229 -0.00156029 0)
(1.20088 0.00466205 0)
(1.19882 0.010385 0)
(1.19665 0.015842 0)
(1.19422 0.0207997 0)
(1.19176 0.0254363 0)
(1.18889 0.0293632 0)
(1.18599 0.0328815 0)
(1.1824 0.0358065 0)
(1.1795 0.0384828 0)
(1.17328 0.0413911 0)
(1.19075 -0.0859751 0)
(1.19433 -0.0772811 0)
(1.19723 -0.0684952 0)
(1.19992 -0.0596524 0)
(1.2023 -0.0510206 0)
(1.20397 -0.042776 0)
(1.20509 -0.0346406 0)
(1.20562 -0.0266584 0)
(1.20593 -0.0188335 0)
(1.20568 -0.0115571 0)
(1.2053 -0.00453051 0)
(1.20416 0.00192728 0)
(1.2026 0.0081325 0)
(1.20035 0.0138186 0)
(1.19796 0.0192586 0)
(1.19533 0.0242148 0)
(1.19272 0.0288675 0)
(1.18973 0.0327577 0)
(1.18668 0.0362627 0)
(1.18297 0.0391319 0)
(1.17999 0.0418019 0)
(1.17362 0.0446211 0)
(1.19333 -0.0833234 0)
(1.19708 -0.0745395 0)
(1.19997 -0.0656972 0)
(1.20232 -0.0568958 0)
(1.20461 -0.0481257 0)
(1.20639 -0.0396465 0)
(1.20747 -0.0314203 0)
(1.20783 -0.0234329 0)
(1.20798 -0.0155745 0)
(1.20765 -0.00818285 0)
(1.20718 -0.00107336 0)
(1.20597 0.00542909 0)
(1.20433 0.0116412 0)
(1.202 0.0173372 0)
(1.19944 0.0227781 0)
(1.19658 0.0276967 0)
(1.19372 0.0323044 0)
(1.19058 0.0361521 0)
(1.18736 0.0396505 0)
(1.18357 0.0424687 0)
(1.1805 0.0451363 0)
(1.17392 0.0478411 0)
(1.19615 -0.0804432 0)
(1.19974 -0.0717369 0)
(1.2026 -0.0629014 0)
(1.20501 -0.0539651 0)
(1.20711 -0.0451071 0)
(1.20873 -0.0365584 0)
(1.20979 -0.0282061 0)
(1.21007 -0.0201632 0)
(1.21014 -0.0122078 0)
(1.20959 -0.00478986 0)
(1.20895 0.00236283 0)
(1.20762 0.00888181 0)
(1.20594 0.0151263 0)
(1.20358 0.0208657 0)
(1.20091 0.026319 0)
(1.19788 0.0312069 0)
(1.19482 0.0357863 0)
(1.19147 0.039576 0)
(1.18811 0.0430988 0)
(1.18419 0.0458183 0)
(1.18104 0.0484793 0)
(1.17425 0.0510694 0)
(1.19875 -0.0776666 0)
(1.20252 -0.0687759 0)
(1.2054 -0.059906 0)
(1.20758 -0.0510569 0)
(1.20953 -0.042161 0)
(1.21115 -0.0334196 0)
(1.21225 -0.0248878 0)
(1.21243 -0.0167915 0)
(1.21224 -0.00886885 0)
(1.21155 -0.00138295 0)
(1.21075 0.00584127 0)
(1.20933 0.0124361 0)
(1.20755 0.0186786 0)
(1.20511 0.0244219 0)
(1.20234 0.0298787 0)
(1.19917 0.0347524 0)
(1.19591 0.0392749 0)
(1.19234 0.0430044 0)
(1.18885 0.0465451 0)
(1.1848 0.0491611 0)
(1.18158 0.0518269 0)
(1.1746 0.0543021 0)
(1.20162 -0.0746859 0)
(1.2051 -0.0658698 0)
(1.20802 -0.0569424 0)
(1.21033 -0.0479889 0)
(1.21216 -0.039063 0)
(1.2135 -0.0303043 0)
(1.2145 -0.0216611 0)
(1.21468 -0.0134453 0)
(1.21453 -0.00539126 0)
(1.2136 0.00209979 0)
(1.21257 0.00935539 0)
(1.21092 0.0159268 0)
(1.20907 0.0222115 0)
(1.2066 0.028005 0)
(1.20377 0.0334817 0)
(1.20043 0.038332 0)
(1.19702 0.0428001 0)
(1.19323 0.0464865 0)
(1.18959 0.0500106 0)
(1.18541 0.0525254 0)
(1.18209 0.0551689 0)
(1.17493 0.0575275 0)
(1.20435 -0.0717925 0)
(1.20787 -0.0628184 0)
(1.21068 -0.0538868 0)
(1.21299 -0.0449151 0)
(1.21477 -0.0359488 0)
(1.21596 -0.0271051 0)
(1.21689 -0.0183157 0)
(1.21699 -0.0100294 0)
(1.21668 -0.00196975 0)
(1.21566 0.00561014 0)
(1.21441 0.0128885 0)
(1.21264 0.0195422 0)
(1.21063 0.0258335 0)
(1.20807 0.0316173 0)
(1.20513 0.0370829 0)
(1.20166 0.0419109 0)
(1.19812 0.0463567 0)
(1.19412 0.0500212 0)
(1.19032 0.0534754 0)
(1.18596 0.0558987 0)
(1.18256 0.0585175 0)
(1.17526 0.0607633 0)
(1.20725 -0.0687745 0)
(1.21057 -0.0598257 0)
(1.21326 -0.0508748 0)
(1.21559 -0.0418136 0)
(1.21752 -0.0326804 0)
(1.21855 -0.0238007 0)
(1.21918 -0.0150334 0)
(1.21919 -0.00666085 0)
(1.21894 0.00157374 0)
(1.21776 0.00918291 0)
(1.21634 0.0164857 0)
(1.21429 0.0231154 0)
(1.21213 0.0294467 0)
(1.2095 0.0352588 0)
(1.20651 0.0407328 0)
(1.20294 0.0455382 0)
(1.19917 0.0499272 0)
(1.19505 0.0536165 0)
(1.19106 0.056974 0)
(1.18651 0.0592984 0)
(1.183 0.0618663 0)
(1.17553 0.0639929 0)
(1.20996 -0.0658823 0)
(1.2134 -0.0567398 0)
(1.21597 -0.0477508 0)
(1.21821 -0.0386379 0)
(1.22012 -0.029415 0)
(1.22116 -0.0204259 0)
(1.22167 -0.0116206 0)
(1.22147 -0.0032383 0)
(1.22112 0.0051082 0)
(1.2199 0.0128259 0)
(1.21825 0.0200755 0)
(1.21602 0.0267391 0)
(1.21366 0.0331065 0)
(1.2109 0.0389437 0)
(1.20783 0.0444038 0)
(1.20417 0.0491434 0)
(1.20025 0.0535255 0)
(1.19599 0.0572349 0)
(1.19182 0.0605229 0)
(1.18705 0.0627396 0)
(1.18341 0.0652365 0)
(1.17578 0.067242 0)
(1.21277 -0.0629409 0)
(1.21608 -0.0537688 0)
(1.21869 -0.0446142 0)
(1.22084 -0.03538 0)
(1.22278 -0.026009 0)
(1.22375 -0.0170262 0)
(1.22411 -0.00826547 0)
(1.22377 0.000210962 0)
(1.22329 0.00870002 0)
(1.22196 0.0164597 0)
(1.22024 0.0237472 0)
(1.21782 0.0304018 0)
(1.2152 0.0367804 0)
(1.21222 0.0426204 0)
(1.20905 0.0480707 0)
(1.20541 0.0528206 0)
(1.20137 0.0571952 0)
(1.19692 0.0608366 0)
(1.19258 0.0641078 0)
(1.1876 0.0662118 0)
(1.18381 0.0686354 0)
(1.17599 0.0705089 0)
(1.21557 -0.0600403 0)
(1.21887 -0.050677 0)
(1.22145 -0.0413903 0)
(1.22352 -0.0320404 0)
(1.22533 -0.02261 0)
(1.22633 -0.0135824 0)
(1.22671 -0.00477389 0)
(1.22616 0.00374174 0)
(1.22546 0.0123066 0)
(1.22401 0.020137 0)
(1.22215 0.0274192 0)
(1.2196 0.0340729 0)
(1.21682 0.0404969 0)
(1.21359 0.0463463 0)
(1.21025 0.0517727 0)
(1.20646 0.0564629 0)
(1.20243 0.0608651 0)
(1.19788 0.0644438 0)
(1.19339 0.0677588 0)
(1.18818 0.0697356 0)
(1.1842 0.0720689 0)
(1.17616 0.0738006 0)
(1.21849 -0.0570887 0)
(1.22152 -0.0477226 0)
(1.22426 -0.038102 0)
(1.22632 -0.0285307 0)
(1.22794 -0.0191441 0)
(1.22875 -0.0102466 0)
(1.22918 -0.00132793 0)
(1.22863 0.00736651 0)
(1.22767 0.0159509 0)
(1.22599 0.0237793 0)
(1.22403 0.0311183 0)
(1.22147 0.0378585 0)
(1.21854 0.0443087 0)
(1.215 0.0500789 0)
(1.21143 0.0554637 0)
(1.20746 0.060178 0)
(1.20346 0.0645897 0)
(1.19879 0.0680636 0)
(1.19415 0.0713977 0)
(1.18875 0.0732533 0)
(1.18461 0.0755328 0)
(1.17634 0.077122 0)
(1.22154 -0.0540873 0)
(1.22454 -0.0444634 0)
(1.22705 -0.0347526 0)
(1.22894 -0.0251437 0)
(1.2305 -0.0157449 0)
(1.23135 -0.00673549 0)
(1.23178 0.0023411 0)
(1.23109 0.0110618 0)
(1.22991 0.0195968 0)
(1.22803 0.0274684 0)
(1.22593 0.0348845 0)
(1.22322 0.0416576 0)
(1.22018 0.0481207 0)
(1.21648 0.0538297 0)
(1.21273 0.0592541 0)
(1.20845 0.0639082 0)
(1.20436 0.0682933 0)
(1.19963 0.0717137 0)
(1.19489 0.0750614 0)
(1.18934 0.076809 0)
(1.18502 0.0790265 0)
(1.17652 0.0804573 0)
(1.22455 -0.0511 0)
(1.22729 -0.0414205 0)
(1.22995 -0.0313344 0)
(1.23181 -0.0215703 0)
(1.23313 -0.0122906 0)
(1.23376 -0.00330766 0)
(1.23415 0.0059348 0)
(1.2335 0.0147743 0)
(1.23222 0.0233149 0)
(1.23007 0.0311658 0)
(1.22779 0.0386455 0)
(1.22506 0.045592 0)
(1.22186 0.052049 0)
(1.218 0.0576322 0)
(1.21398 0.0630272 0)
(1.20952 0.0676618 0)
(1.2053 0.0720684 0)
(1.20042 0.0754097 0)
(1.19554 0.0786972 0)
(1.18983 0.0803382 0)
(1.18539 0.0825092 0)
(1.17671 0.0837885 0)
(1.22772 -0.0480145 0)
(1.23063 -0.037937 0)
(1.23287 -0.0279127 0)
(1.23439 -0.018318 0)
(1.23571 -0.00889206 0)
(1.23648 0.000441901 0)
(1.23683 0.00985906 0)
(1.23595 0.0185822 0)
(1.23445 0.0270028 0)
(1.23213 0.0348853 0)
(1.22974 0.0425154 0)
(1.22687 0.0495752 0)
(1.22342 0.0559356 0)
(1.2194 0.0614045 0)
(1.21522 0.066847 0)
(1.2107 0.0714663 0)
(1.20623 0.0758758 0)
(1.20116 0.0791163 0)
(1.19617 0.0823568 0)
(1.19032 0.0839256 0)
(1.18575 0.0860201 0)
(1.17688 0.0871149 0)
(1.23078 -0.0449145 0)
(1.23342 -0.0348327 0)
(1.23581 -0.0245805 0)
(1.23741 -0.0147825 0)
(1.2385 -0.00525501 0)
(1.23896 0.00414415 0)
(1.23915 0.0135764 0)
(1.23827 0.0223366 0)
(1.23674 0.0307729 0)
(1.23425 0.0386774 0)
(1.23163 0.0463961 0)
(1.22865 0.0535873 0)
(1.22508 0.0599008 0)
(1.22085 0.0653013 0)
(1.21639 0.0706529 0)
(1.21177 0.0752371 0)
(1.20716 0.0796932 0)
(1.20192 0.0828498 0)
(1.19676 0.0860415 0)
(1.19076 0.0875099 0)
(1.18604 0.0895056 0)
(1.177 0.0904171 0)
(1.23401 -0.041665 0)
(1.23681 -0.0313048 0)
(1.2388 -0.021272 0)
(1.2401 -0.0115383 0)
(1.24121 -0.00164055 0)
(1.24168 0.00809045 0)
(1.24183 0.0176208 0)
(1.24068 0.026215 0)
(1.23898 0.0345409 0)
(1.23639 0.0425291 0)
(1.23355 0.0503549 0)
(1.23037 0.0575878 0)
(1.22669 0.0638046 0)
(1.22223 0.0692109 0)
(1.21758 0.0745112 0)
(1.21283 0.0790945 0)
(1.20804 0.0835101 0)
(1.20263 0.0865641 0)
(1.19734 0.0897469 0)
(1.19121 0.0911451 0)
(1.18635 0.0930524 0)
(1.17712 0.093754 0)
(1.2372 -0.0383336 0)
(1.23968 -0.028219 0)
(1.24176 -0.0180996 0)
(1.24322 -0.00795434 0)
(1.24422 0.00227494 0)
(1.24434 0.0120452 0)
(1.24419 0.0214485 0)
(1.24291 0.0299731 0)
(1.2412 0.0383585 0)
(1.23864 0.0465433 0)
(1.23557 0.0544173 0)
(1.23196 0.0614887 0)
(1.22826 0.0676752 0)
(1.22373 0.0732851 0)
(1.21885 0.0784556 0)
(1.2138 0.082969 0)
(1.20881 0.0873009 0)
(1.2033 0.0902868 0)
(1.1979 0.0934694 0)
(1.19163 0.0947699 0)
(1.18661 0.0966048 0)
(1.17721 0.09712 0)
(1.24032 -0.0350323 0)
(1.24296 -0.0248189 0)
(1.24493 -0.0147113 0)
(1.2461 -0.00445166 0)
(1.247 0.0060658 0)
(1.24705 0.0160295 0)
(1.24678 0.0254594 0)
(1.2453 0.0338765 0)
(1.24346 0.042309 0)
(1.24081 0.0506108 0)
(1.23758 0.058514 0)
(1.23362 0.0653555 0)
(1.22976 0.0715742 0)
(1.22519 0.0773953 0)
(1.22016 0.082458 0)
(1.21486 0.0869944 0)
(1.20957 0.0911638 0)
(1.20388 0.0940011 0)
(1.19839 0.0971469 0)
(1.19202 0.0983903 0)
(1.18688 0.100215 0)
(1.17731 0.10056 0)
(1.24348 -0.0316954 0)
(1.24587 -0.0216904 0)
(1.24795 -0.0113588 0)
(1.24922 -0.00069864 0)
(1.25007 0.0100811 0)
(1.24982 0.0200377 0)
(1.24922 0.0293272 0)
(1.24761 0.0377592 0)
(1.24567 0.046335 0)
(1.24298 0.054784 0)
(1.23962 0.0626479 0)
(1.23538 0.069236 0)
(1.2312 0.0755805 0)
(1.22652 0.0814667 0)
(1.22153 0.0865916 0)
(1.21593 0.0911116 0)
(1.2103 0.0950455 0)
(1.20441 0.0977312 0)
(1.19885 0.100824 0)
(1.19241 0.102026 0)
(1.18712 0.103845 0)
(1.17737 0.104046 0)
(1.24651 -0.0285309 0)
(1.24904 -0.0182745 0)
(1.25127 -0.00759968 0)
(1.25237 0.00319514 0)
(1.25292 0.0139488 0)
(1.25245 0.0238579 0)
(1.25169 0.0331872 0)
(1.25005 0.0418277 0)
(1.24803 0.0505771 0)
(1.24511 0.0590183 0)
(1.2415 0.0666562 0)
(1.23725 0.0732374 0)
(1.23272 0.0798071 0)
(1.22779 0.0854762 0)
(1.2228 0.0908208 0)
(1.21701 0.0952937 0)
(1.21109 0.0989895 0)
(1.20493 0.101502 0)
(1.19925 0.104497 0)
(1.19275 0.10567 0)
(1.18733 0.107482 0)
(1.17739 0.107554 0)
(1.24973 -0.0252317 0)
(1.25217 -0.0147155 0)
(1.25437 -0.00376194 0)
(1.25546 0.00715322 0)
(1.25586 0.0178464 0)
(1.25521 0.0277036 0)
(1.25425 0.0371356 0)
(1.25243 0.0459588 0)
(1.25035 0.0548999 0)
(1.2472 0.0632511 0)
(1.24338 0.070612 0)
(1.23914 0.077465 0)
(1.23419 0.0840188 0)
(1.22912 0.0895707 0)
(1.22394 0.0951308 0)
(1.21799 0.0993983 0)
(1.2119 0.102936 0)
(1.2055 0.105375 0)
(1.19964 0.108262 0)
(1.19306 0.109361 0)
(1.18752 0.111111 0)
(1.17738 0.111058 0)
(1.25291 -0.0218665 0)
(1.25537 -0.0109071 0)
(1.25761 0.000326198 0)
(1.25859 0.0111636 0)
(1.25871 0.0216223 0)
(1.25786 0.0314503 0)
(1.25677 0.0411066 0)
(1.25491 0.0502737 0)
(1.25271 0.0593974 0)
(1.24926 0.0674089 0)
(1.2453 0.0746246 0)
(1.24088 0.0818451 0)
(1.2357 0.088166 0)
(1.23059 0.0939207 0)
(1.22495 0.0993884 0)
(1.21887 0.10337 0)
(1.21273 0.106922 0)
(1.20613 0.109362 0)
(1.20001 0.112111 0)
(1.19329 0.113072 0)
(1.18765 0.114708 0)
(1.17733 0.11453 0)
(1.25629 -0.0182055 0)
(1.25869 -0.00693124 0)
(1.26074 0.00430029 0)
(1.26157 0.0150053 0)
(1.26158 0.0254253 0)
(1.26062 0.0353591 0)
(1.25944 0.045251 0)
(1.25745 0.0547616 0)
(1.25496 0.0638971 0)
(1.2513 0.0714805 0)
(1.24733 0.0788964 0)
(1.24245 0.0861264 0)
(1.23728 0.0923228 0)
(1.23199 0.0984972 0)
(1.22596 0.103533 0)
(1.21971 0.107272 0)
(1.21352 0.110949 0)
(1.20678 0.113414 0)
(1.20041 0.116052 0)
(1.19352 0.116863 0)
(1.18774 0.118328 0)
(1.17724 0.117975 0)
(1.25981 -0.0143198 0)
(1.26193 -0.00313517 0)
(1.26382 0.00801498 0)
(1.26459 0.0188406 0)
(1.26449 0.0293935 0)
(1.2634 0.0394176 0)
(1.2622 0.0495964 0)
(1.26007 0.0594826 0)
(1.25714 0.0682895 0)
(1.2534 0.0756424 0)
(1.24922 0.0833045 0)
(1.24402 0.0902167 0)
(1.23905 0.0968218 0)
(1.1 -3.03514e-16 0)
(1.1 -1.97982e-16 0)
(1.1 -1.21185e-16 0)
(1.1 1.80583e-16 0)
(1.1 9.47937e-16 0)
(1.1 1.5428e-16 0)
(1.1 -1.7052e-16 0)
(1.1 1.57486e-16 0)
(1.1 8.42889e-16 0)
(1.1 6.08532e-16 0)
(1.1 -7.90507e-16 0)
(1.1 -5.64243e-16 0)
(1.1 2.58885e-16 0)
(1.1 -3.05039e-16 0)
(1.1 -7.76991e-16 0)
(1.1 7.11371e-17 0)
(1.1 -1.29865e-17 0)
(1.1 -9.10021e-16 0)
(1.1 -6.01547e-16 0)
(1.1 -3.8814e-16 0)
(1.1 -4.47406e-16 0)
(1.09922 -1.124e-16 0)
(1.1 -1.34152e-15 0)
(1.1 -6.2773e-17 0)
(1.1 -1.41134e-16 0)
(1.1 2.43135e-16 0)
(1.1 5.36954e-16 0)
(1.1 1.92042e-16 0)
(1.1 -1.55147e-17 0)
(1.1 8.83262e-16 0)
(1.1 1.15131e-15 0)
(1.1 -2.65801e-16 0)
(1.1 -1.06346e-15 0)
(1.1 -3.86861e-16 0)
(1.1 -4.36833e-16 0)
(1.1 -1.32263e-15 0)
(1.1 -1.57351e-15 0)
(1.1 -2.1178e-16 0)
(1.1 -1.71713e-16 0)
(1.1 -1.14634e-15 0)
(1.1 -7.97049e-16 0)
(1.1 -4.83957e-16 0)
(1.1 -6.10635e-16 0)
(1.09922 -2.2725e-16 0)
(1.1 -1.86183e-15 0)
(1.1 -7.77147e-16 0)
(1.1 -7.17216e-16 0)
(1.1 -3.96101e-16 0)
(1.1 -9.79893e-16 0)
(1.1 -4.91256e-16 0)
(1.1 1.40418e-16 0)
(1.1 6.52383e-16 0)
(1.1 4.3215e-16 0)
(1.1 -3.71428e-16 0)
(1.1 -3.62363e-16 0)
(1.1 -4.33149e-16 0)
(1.1 -3.31619e-16 0)
(1.1 -4.47929e-16 0)
(1.1 -5.43772e-16 0)
(1.1 1.60843e-16 0)
(1.1 4.5804e-16 0)
(1.1 -1.29819e-16 0)
(1.1 -5.22983e-16 0)
(1.1 -1.95869e-16 0)
(1.1 -1.3816e-16 0)
(1.09922 -4.15627e-16 0)
(1.1 -1.57501e-15 0)
(1.1 -1.25247e-15 0)
(1.1 -1.15817e-15 0)
(1.1 -1.10859e-15 0)
(1.1 -1.1184e-15 0)
(1.1 -7.88155e-16 0)
(1.1 5.77718e-16 0)
(1.1 8.73211e-16 0)
(1.1 -2.02732e-17 0)
(1.1 8.53711e-16 0)
(1.1 1.79076e-16 0)
(1.1 -5.28496e-16 0)
(1.1 1.39389e-16 0)
(1.1 9.40374e-16 0)
(1.1 2.35872e-16 0)
(1.1 5.32761e-16 0)
(1.1 8.02668e-16 0)
(1.1 6.02581e-16 0)
(1.1 4.11015e-16 0)
(1.1 5.24958e-16 0)
(1.1 4.17575e-16 0)
(1.09922 -2.78921e-16 0)
(1.1 -1.4118e-15 0)
(1.1 -1.31328e-15 0)
(1.1 -1.66165e-15 0)
(1.1 -1.3941e-15 0)
(1.1 -1.28449e-15 0)
(1.1 -6.29753e-16 0)
(1.1 -5.30039e-16 0)
(1.1 7.91283e-16 0)
(1.1 -9.94781e-17 0)
(1.1 4.3579e-16 0)
(1.1 6.10474e-16 0)
(1.1 -6.25062e-16 0)
(1.1 -1.21604e-16 0)
(1.1 7.92506e-16 0)
(1.1 5.64077e-16 0)
(1.1 2.54105e-16 0)
(1.1 5.06057e-16 0)
(1.1 2.76801e-16 0)
(1.1 7.89121e-17 0)
(1.1 1.26004e-15 0)
(1.1 5.82141e-16 0)
(1.09922 -1.57918e-16 0)
(1.1 -1.60835e-15 0)
(1.1 -1.69684e-15 0)
(1.1 -2.64768e-15 0)
(1.1 -2.31383e-15 0)
(1.1 -1.97119e-15 0)
(1.1 -1.08408e-15 0)
(1.1 -9.38572e-16 0)
(1.1 -1.28354e-16 0)
(1.1 -7.10213e-16 0)
(1.1 -4.26678e-16 0)
(1.1 -3.71833e-17 0)
(1.1 -1.19558e-16 0)
(1.1 4.89676e-16 0)
(1.1 2.35261e-16 0)
(1.1 5.61303e-16 0)
(1.1 9.12106e-17 0)
(1.1 6.35901e-16 0)
(1.1 6.3376e-16 0)
(1.1 -3.54902e-16 0)
(1.1 5.97614e-16 0)
(1.1 9.94107e-16 0)
(1.09922 4.10265e-16 0)
(1.1 -2.17321e-15 0)
(1.1 -2.46013e-15 0)
(1.1 -2.54943e-15 0)
(1.1 -2.50234e-15 0)
(1.1 -2.78225e-15 0)
(1.1 -2.39134e-15 0)
(1.1 -9.5826e-16 0)
(1.1 -8.19379e-16 0)
(1.1 -1.53494e-15 0)
(1.1 -4.35564e-16 0)
(1.1 -3.11865e-16 0)
(1.1 3.66482e-16 0)
(1.1 2.31591e-16 0)
(1.1 -1.15752e-16 0)
(1.1 3.40161e-16 0)
(1.1 8.66838e-17 0)
(1.1 -5.86026e-16 0)
(1.1 2.65941e-16 0)
(1.1 -1.14232e-17 0)
(1.1 2.62199e-16 0)
(1.1 1.35742e-15 0)
(1.09922 7.89268e-16 0)
(1.1 -2.46722e-15 0)
(1.1 -2.73261e-15 0)
(1.1 -2.2829e-15 0)
(1.1 -1.95527e-15 0)
(1.1 -3.30942e-15 0)
(1.1 -2.6377e-15 0)
(1.1 -1.64889e-15 0)
(1.1 -1.16392e-15 0)
(1.1 -1.61312e-15 0)
(1.1 -1.13569e-16 0)
(1.1 -4.09713e-17 0)
(1.1 3.41832e-16 0)
(1.1 7.2495e-17 0)
(1.1 4.23333e-16 0)
(1.1 3.12184e-17 0)
(1.1 2.69705e-16 0)
(1.1 -5.71959e-16 0)
(1.1 3.00542e-16 0)
(1.1 5.20709e-16 0)
(1.1 6.2061e-16 0)
(1.1 4.96186e-16 0)
(1.09922 6.13184e-16 0)
(1.1 -2.27505e-15 0)
(1.1 -2.55258e-15 0)
(1.1 -2.48316e-15 0)
(1.1 -1.79104e-15 0)
(1.1 -3.19235e-15 0)
(1.1 -2.46245e-15 0)
(1.1 -1.81799e-15 0)
(1.1 -1.07216e-15 0)
(1.1 -5.08467e-16 0)
(1.1 1.76724e-16 0)
(1.1 2.22878e-16 0)
(1.1 -6.54905e-16 0)
(1.1 -3.99399e-16 0)
(1.1 8.09616e-16 0)
(1.1 3.36073e-16 0)
(1.1 -2.1987e-16 0)
(1.1 -8.04777e-16 0)
(1.1 -3.52457e-16 0)
(1.1 8.37664e-16 0)
(1.1 6.72465e-16 0)
(1.1 3.58441e-16 0)
(1.09922 4.68696e-16 0)
(1.1 -2.09757e-15 0)
(1.1 -2.30065e-15 0)
(1.1 -2.27526e-15 0)
(1.1 -1.92097e-15 0)
(1.1 -2.2671e-15 0)
(1.1 -2.01184e-15 0)
(1.1 -9.51044e-16 0)
(1.1 -5.44148e-16 0)
(1.1 5.54062e-17 0)
(1.1 6.33906e-17 0)
(1.1 2.34141e-16 0)
(1.1 -9.9454e-16 0)
(1.1 -1.02149e-16 0)
(1.1 4.54642e-16 0)
(1.1 4.52682e-16 0)
(1.1 -5.60993e-16 0)
(1.1 -9.62192e-16 0)
(1.1 -8.25121e-16 0)
(1.1 7.46339e-16 0)
(1.1 5.67952e-16 0)
(1.1 4.05349e-16 0)
(1.09922 5.83914e-16 0)
(1.1 -2.27655e-15 0)
(1.1 -2.15168e-15 0)
(1.1 -2.13481e-15 0)
(1.1 -2.01013e-15 0)
(1.1 -6.99572e-16 0)
(1.1 -1.05191e-15 0)
(1.1 -7.7679e-16 0)
(1.1 -3.44811e-16 0)
(1.1 4.55231e-16 0)
(1.1 -3.04729e-16 0)
(1.1 -2.93184e-16 0)
(1.1 -2.83615e-16 0)
(1.1 2.72178e-16 0)
(1.1 -9.81276e-17 0)
(1.1 -4.00755e-16 0)
(1.1 -9.02171e-16 0)
(1.1 -3.90187e-16 0)
(1.1 -6.18133e-16 0)
(1.1 1.10658e-15 0)
(1.1 9.40653e-16 0)
(1.1 5.74453e-16 0)
(1.09922 1.12375e-15 0)
(1.1 -1.83147e-15 0)
(1.1 -2.7776e-15 0)
(1.1 -2.52646e-15 0)
(1.1 -2.17582e-15 0)
(1.1 -3.34551e-16 0)
(1.1 -3.80506e-16 0)
(1.1 -9.61315e-16 0)
(1.1 -2.22035e-16 0)
(1.1 1.31482e-15 0)
(1.1 -4.71825e-16 0)
(1.1 -4.07711e-16 0)
(1.1 3.27876e-16 0)
(1.1 -2.66099e-16 0)
(1.1 -4.28393e-16 0)
(1.1 -4.21975e-16 0)
(1.1 -1.16204e-15 0)
(1.1 -6.83567e-16 0)
(1.1 -9.63946e-16 0)
(1.1 1.42824e-15 0)
(1.1 6.64889e-16 0)
(1.1 7.39484e-16 0)
(1.09922 1.1607e-15 0)
(1.1 -1.10313e-15 0)
(1.1 -1.6288e-15 0)
(1.1 -2.23843e-15 0)
(1.1 -1.79022e-15 0)
(1.1 -1.69408e-15 0)
(1.1 -1.24147e-15 0)
(1.1 1.24215e-16 0)
(1.1 1.5042e-16 0)
(1.1 9.60278e-16 0)
(1.1 2.83462e-16 0)
(1.1 -6.19179e-16 0)
(1.1 3.83961e-16 0)
(1.1 -4.77503e-16 0)
(1.1 -1.00435e-15 0)
(1.1 -8.65903e-16 0)
(1.1 -1.24857e-15 0)
(1.1 -9.57908e-16 0)
(1.1 -1.30385e-16 0)
(1.1 3.41677e-16 0)
(1.1 1.65428e-16 0)
(1.1 5.19646e-16 0)
(1.09922 5.92789e-16 0)
(1.1 -1.35707e-15 0)
(1.1 -1.14319e-15 0)
(1.1 -9.5533e-16 0)
(1.1 -1.04576e-15 0)
(1.1 -1.48298e-15 0)
(1.1 -9.39297e-16 0)
(1.1 5.73837e-16 0)
(1.1 5.56339e-16 0)
(1.1 8.52769e-16 0)
(1.1 1.09784e-15 0)
(1.1 -5.17154e-16 0)
(1.1 -8.83847e-16 0)
(1.1 -1.26515e-15 0)
(1.1 -1.73806e-15 0)
(1.1 -1.65538e-15 0)
(1.1 -1.44237e-15 0)
(1.1 -9.73038e-16 0)
(1.1 2.1546e-16 0)
(1.1 -1.24468e-15 0)
(1.1 6.37446e-17 0)
(1.1 2.67225e-16 0)
(1.09922 4.6658e-17 0)
(1.1 -1.01754e-15 0)
(1.1 -1.03014e-15 0)
(1.1 -8.09444e-16 0)
(1.1 -3.53243e-16 0)
(1.1 -4.72617e-16 0)
(1.1 -3.55153e-16 0)
(1.1 1.10481e-17 0)
(1.1 4.98627e-16 0)
(1.1 1.17713e-15 0)
(1.1 1.56828e-15 0)
(1.1 5.54831e-16 0)
(1.1 -1.31878e-15 0)
(1.1 -1.59488e-15 0)
(1.1 -1.37919e-15 0)
(1.1 -6.20036e-16 0)
(1.1 -5.18457e-16 0)
(1.1 -9.41951e-16 0)
(1.1 -3.37992e-16 0)
(1.1 -8.88104e-16 0)
(1.1 -9.33218e-17 0)
(1.1 1.95785e-16 0)
(1.09922 1.39327e-16 0)
(1.1 -3.98622e-16 0)
(1.1 -6.6115e-16 0)
(1.1 -6.49323e-16 0)
(1.1 2.69601e-16 0)
(1.1 2.56781e-16 0)
(1.1 -4.42484e-16 0)
(1.1 1.35785e-16 0)
(1.1 4.57519e-16 0)
(1.1 1.61326e-15 0)
(1.1 1.80924e-15 0)
(1.1 1.56393e-15 0)
(1.1 -3.63748e-16 0)
(1.1 -5.90689e-16 0)
(1.1 -7.13588e-16 0)
(1.1 4.37474e-16 0)
(1.1 7.88264e-16 0)
(1.1 -9.55883e-16 0)
(1.1 -8.06486e-17 0)
(1.1 2.23686e-16 0)
(1.1 -5.32289e-16 0)
(1.1 1.31542e-16 0)
(1.09922 -1.87539e-16 0)
(1.1 -1.91495e-16 0)
(1.1 1.32569e-16 0)
(1.1 5.67379e-16 0)
(1.1 -1.21598e-16 0)
(1.1 7.03762e-17 0)
(1.1 -8.41637e-17 0)
(1.1 -2.54861e-16 0)
(1.1 2.18322e-16 0)
(1.1 7.46192e-16 0)
(1.1 1.14522e-15 0)
(1.1 1.48837e-15 0)
(1.1 1.04014e-15 0)
(1.1 -1.00476e-16 0)
(1.1 -2.27327e-16 0)
(1.1 1.57593e-15 0)
(1.1 1.59386e-15 0)
(1.1 5.58452e-16 0)
(1.1 6.82668e-16 0)
(1.1 2.01188e-17 0)
(1.1 -8.05891e-16 0)
(1.1 -4.10522e-16 0)
(1.09922 -2.27488e-16 0)
(1.1 4.95336e-16 0)
(1.1 6.07955e-16 0)
(1.1 1.12136e-15 0)
(1.1 -4.03687e-16 0)
(1.1 -1.66625e-16 0)
(1.1 6.44185e-16 0)
(1.1 3.30448e-16 0)
(1.1 -8.07788e-17 0)
(1.1 2.65811e-16 0)
(1.1 3.42189e-16 0)
(1.1 1.15281e-15 0)
(1.1 1.26946e-15 0)
(1.1 -4.24957e-17 0)
(1.1 1.10912e-16 0)
(1.1 1.13883e-15 0)
(1.1 1.18438e-15 0)
(1.1 9.85368e-16 0)
(1.1 7.30566e-16 0)
(1.1 -5.86862e-16 0)
(1.1 -4.21252e-16 0)
(1.1 -3.06177e-16 0)
(1.09922 -1.36104e-17 0)
(1.1 6.72146e-16 0)
(1.1 6.9537e-16 0)
(1.1 7.31642e-16 0)
(1.1 6.22353e-16 0)
(1.1 -2.62171e-16 0)
(1.1 7.76742e-16 0)
(1.1 6.1766e-16 0)
(1.1 5.29014e-17 0)
(1.1 8.2512e-17 0)
(1.1 2.49991e-16 0)
(1.1 1.07845e-15 0)
(1.1 9.64656e-16 0)
(1.1 7.36566e-16 0)
(1.1 -2.11403e-17 0)
(1.1 -3.03165e-16 0)
(1.1 6.20521e-16 0)
(1.1 5.28611e-16 0)
(1.1 -3.30543e-16 0)
(1.1 4.31595e-16 0)
(1.1 9.09124e-17 0)
(1.1 -6.20259e-17 0)
(1.09922 -9.65607e-17 0)
(1.1 3.51813e-16 0)
(1.1 5.42014e-16 0)
(1.1 8.15746e-17 0)
(1.1 6.15508e-16 0)
(1.1 4.92937e-16 0)
(1.1 -5.20552e-17 0)
(1.1 -4.40226e-16 0)
(1.1 -1.71601e-17 0)
(1.1 -3.88201e-17 0)
(1.1 6.13543e-16 0)
(1.1 5.20335e-16 0)
(1.1 6.12773e-16 0)
(1.1 3.30095e-16 0)
(1.1 -7.08265e-16 0)
(1.1 -9.63916e-16 0)
(1.1 6.02599e-16 0)
(1.1 9.02819e-16 0)
(1.1 -5.53523e-16 0)
(1.1 -3.36561e-16 0)
(1.1 -1.06346e-16 0)
(1.1 4.40317e-17 0)
(1.09922 -2.48245e-16 0)
(1.1 4.87746e-17 0)
(1.1 4.14186e-16 0)
(1.1 2.03066e-16 0)
(1.1 1.01935e-16 0)
(1.1 9.5882e-16 0)
(1.1 -2.19377e-16 0)
(1.1 -2.61584e-16 0)
(1.1 -8.80993e-16 0)
(1.1 -7.43939e-16 0)
(1.1 2.11041e-16 0)
(1.1 6.33738e-17 0)
(1.1 -7.4513e-17 0)
(1.1 -1.12619e-16 0)
(1.1 -1.07045e-15 0)
(1.1 -9.60661e-16 0)
(1.1 -1.09125e-17 0)
(1.1 4.56563e-16 0)
(1.1 -1.47428e-15 0)
(1.1 -1.15178e-15 0)
(1.1 -1.05406e-15 0)
(1.1 -8.71159e-16 0)
(1.09922 -4.395e-16 0)
(1.1 8.40727e-16 0)
(1.1 8.154e-16 0)
(1.1 6.55603e-16 0)
(1.1 6.76788e-16 0)
(1.1 3.36839e-16 0)
(1.1 9.34429e-17 0)
(1.1 -6.33356e-17 0)
(1.1 -6.39026e-16 0)
(1.1 -1.17409e-15 0)
(1.1 -1.10696e-16 0)
(1.1 2.18236e-16 0)
(1.1 -1.70825e-16 0)
(1.1 4.70955e-16 0)
(1.1 -5.29819e-16 0)
(1.1 -4.42354e-16 0)
(1.1 -7.31849e-16 0)
(1.1 -8.66023e-16 0)
(1.1 -2.28543e-15 0)
(1.1 -1.51261e-15 0)
(1.1 -1.41479e-15 0)
(1.1 -1.2631e-15 0)
(1.09922 -5.08239e-16 0)
(1.1 1.14995e-15 0)
(1.1 6.59033e-16 0)
(1.1 4.97449e-16 0)
(1.1 9.71328e-16 0)
(1.1 3.74209e-16 0)
(1.1 2.91379e-16 0)
(1.1 1.91485e-16 0)
(1.1 -1.32548e-17 0)
(1.1 -3.10982e-16 0)
(1.1 -3.50288e-17 0)
(1.1 3.62266e-16 0)
(1.1 -4.2189e-17 0)
(1.1 1.81787e-16 0)
(1.1 8.62032e-16 0)
(1.1 -8.45504e-17 0)
(1.1 -3.68296e-16 0)
(1.1 -1.51308e-15 0)
(1.1 -1.53197e-15 0)
(1.1 -1.14021e-15 0)
(1.1 -1.32938e-15 0)
(1.1 -5.29946e-16 0)
(1.09922 -2.2324e-16 0)
(1.1 1.63937e-16 0)
(1.1 3.45129e-16 0)
(1.1 4.17397e-16 0)
(1.1 8.38408e-17 0)
(1.1 -1.80306e-16 0)
(1.1 -2.65119e-17 0)
(1.1 -3.9456e-17 0)
(1.1 -4.29604e-16 0)
(1.1 -1.82476e-16 0)
(1.1 -4.41906e-16 0)
(1.1 2.07626e-16 0)
(1.1 -9.19053e-17 0)
(1.1 2.4516e-16 0)
(1.1 1.98267e-15 0)
(1.1 8.35358e-16 0)
(1.1 3.61748e-16 0)
(1.1 -9.638e-16 0)
(1.1 -6.33386e-17 0)
(1.1 2.06446e-16 0)
(1.1 1.16615e-16 0)
(1.1 2.7598e-16 0)
(1.09922 -2.94125e-16 0)
(1.1 -1.38988e-15 0)
(1.1 2.18878e-16 0)
(1.1 1.81097e-16 0)
(1.1 -2.93988e-16 0)
(1.1 1.9121e-16 0)
(1.1 1.01345e-15 0)
(1.1 6.74364e-16 0)
(1.1 -4.45958e-16 0)
(1.1 -2.34149e-16 0)
(1.1 -1.06902e-15 0)
(1.1 -2.31464e-16 0)
(1.1 3.15606e-16 0)
(1.1 1.08148e-15 0)
(1.1 1.01133e-15 0)
(1.1 1.20806e-15 0)
(1.1 6.90248e-16 0)
(1.1 9.15963e-17 0)
(1.1 5.84597e-16 0)
(1.1 -1.74481e-16 0)
(1.1 7.97403e-16 0)
(1.1 2.90592e-16 0)
(1.09922 -5.15228e-16 0)
(1.1 -1.05447e-15 0)
(1.1 -1.09495e-17 0)
(1.1 -2.77341e-17 0)
(1.1 5.85752e-16 0)
(1.1 6.96218e-16 0)
(1.1 8.97872e-16 0)
(1.1 3.40781e-16 0)
(1.1 -2.71121e-16 0)
(1.1 3.65122e-16 0)
(1.1 -4.61423e-16 0)
(1.1 -5.02016e-16 0)
(1.1 4.48042e-17 0)
(1.1 7.38598e-16 0)
(1.1 1.1617e-15 0)
(1.1 1.10432e-15 0)
(1.1 5.74167e-16 0)
(1.1 7.85433e-16 0)
(1.1 8.58507e-16 0)
(1.1 4.43922e-16 0)
(1.1 7.00551e-16 0)
(1.1 2.74972e-16 0)
(1.09922 3.37628e-17 0)
(1.1 -4.14162e-16 0)
(1.1 -1.32601e-15 0)
(1.1 -8.1499e-16 0)
(1.1 1.5263e-16 0)
(1.1 3.00577e-16 0)
(1.1 7.90575e-16 0)
(1.1 -3.30511e-17 0)
(1.1 -4.09935e-16 0)
(1.1 -2.8234e-17 0)
(1.1 -5.90126e-16 0)
(1.1 -7.00111e-16 0)
(1.1 -2.32776e-16 0)
(1.1 1.8421e-15 0)
(1.1 1.51359e-15 0)
(1.1 1.1763e-15 0)
(1.1 3.23635e-16 0)
(1.1 9.73042e-16 0)
(1.1 9.58475e-16 0)
(1.1 6.53783e-16 0)
(1.1 6.39103e-16 0)
(1.1 -4.59213e-17 0)
(1.09922 2.12369e-16 0)
(1.1 -5.17955e-16 0)
(1.1 -4.70352e-17 0)
(1.1 -8.09122e-16 0)
(1.1 -7.06548e-16 0)
(1.1 -6.88623e-17 0)
(1.1 -9.93322e-16 0)
(1.1 -1.04183e-15 0)
(1.1 -5.44583e-16 0)
(1.1 1.23548e-16 0)
(1.1 1.94661e-17 0)
(1.1 -4.41429e-16 0)
(1.1 5.93562e-16 0)
(1.1 1.14941e-15 0)
(1.1 8.49653e-16 0)
(1.1 2.63281e-16 0)
(1.1 4.68543e-16 0)
(1.1 8.11342e-16 0)
(1.1 1.05049e-15 0)
(1.1 5.20301e-16 0)
(1.1 -4.6886e-16 0)
(1.1 -5.04473e-16 0)
(1.09922 -8.31986e-17 0)
(1.1 8.87784e-17 0)
(1.1 6.90816e-16 0)
(1.1 -1.99027e-16 0)
(1.1 -6.19079e-16 0)
(1.1 -5.38626e-16 0)
(1.1 -2.05644e-15 0)
(1.1 -1.45212e-15 0)
(1.1 -6.6551e-16 0)
(1.1 -8.88372e-17 0)
(1.1 -4.30065e-16 0)
(1.1 -7.90173e-16 0)
(1.1 -8.72236e-17 0)
(1.1 -2.20965e-16 0)
(1.1 -9.71762e-16 0)
(1.1 -4.43922e-16 0)
(1.1 2.05973e-16 0)
(1.1 2.55886e-17 0)
(1.1 6.99737e-16 0)
(1.1 5.43361e-16 0)
(1.1 -8.70011e-16 0)
(1.1 -8.72532e-16 0)
(1.09922 -2.96209e-16 0)
(1.1 1.95399e-16 0)
(1.1 -2.12158e-16 0)
(1.1 1.13527e-16 0)
(1.1 3.56278e-16 0)
(1.1 -7.85293e-16 0)
(1.1 -1.15666e-15 0)
(1.1 -7.83678e-16 0)
(1.1 -6.09008e-16 0)
(1.1 -3.75947e-16 0)
(1.1 -7.95681e-16 0)
(1.1 -6.0842e-16 0)
(1.1 -3.77806e-16 0)
(1.1 -9.1955e-16 0)
(1.1 -2.25966e-15 0)
(1.1 -1.29685e-15 0)
(1.1 6.1578e-16 0)
(1.1 3.50611e-16 0)
(1.1 5.35157e-16 0)
(1.1 -6.12547e-16 0)
(1.1 -8.2402e-16 0)
(1.1 -1.44943e-15 0)
(1.09922 -2.06433e-16 0)
(1.1 4.07501e-16 0)
(1.1 -5.6384e-16 0)
(1.1 2.3981e-16 0)
(1.1 4.70996e-16 0)
(1.1 -7.83729e-16 0)
(1.1 -1.14215e-15 0)
(1.1 -1.15206e-15 0)
(1.1 -7.5458e-16 0)
(1.1 -8.93808e-17 0)
(1.1 -1.90682e-16 0)
(1.1 -7.7262e-16 0)
(1.1 -8.82441e-16 0)
(1.1 -6.40969e-16 0)
(1.1 -1.82828e-15 0)
(1.1 -1.42804e-15 0)
(1.1 -3.03105e-16 0)
(1.1 -2.6277e-16 0)
(1.1 1.58199e-16 0)
(1.1 -6.94673e-16 0)
(1.1 -2.017e-17 0)
(1.1 -5.07251e-16 0)
(1.09922 -2.50577e-16 0)
(1.1 -2.84631e-17 0)
(1.1 -4.87559e-16 0)
(1.1 3.76698e-16 0)
(1.1 -2.20585e-16 0)
(1.1 -9.19512e-16 0)
(1.1 -1.84397e-15 0)
(1.1 -1.02766e-15 0)
(1.1 -9.679e-16 0)
(1.1 -4.4729e-16 0)
(1.1 -4.8843e-16 0)
(1.1 -1.14522e-15 0)
(1.1 -9.933e-16 0)
(1.1 -4.48693e-16 0)
(1.1 -9.52587e-16 0)
(1.1 -1.19611e-15 0)
(1.1 -4.46699e-16 0)
(1.1 -4.86859e-16 0)
(1.1 -2.85649e-16 0)
(1.1 -2.93982e-16 0)
(1.1 5.05578e-16 0)
(1.1 4.60359e-16 0)
(1.09922 -2.00998e-16 0)
(1.1 -6.81295e-16 0)
(1.1 -1.8674e-16 0)
(1.1 8.01279e-17 0)
(1.1 -4.14331e-16 0)
(1.1 -7.71573e-16 0)
(1.1 -1.2618e-15 0)
(1.1 -6.18365e-16 0)
(1.1 -5.98185e-16 0)
(1.1 -7.20569e-16 0)
(1.1 -9.33364e-16 0)
(1.1 -1.30762e-15 0)
(1.1 -6.25533e-16 0)
(1.1 -9.57349e-17 0)
(1.1 7.95304e-16 0)
(1.1 2.47003e-16 0)
(1.1 -4.35041e-16 0)
(1.1 -9.73118e-17 0)
(1.1 -4.71277e-16 0)
(1.1 -1.49078e-16 0)
(1.1 4.98698e-16 0)
(1.1 6.66831e-16 0)
(1.09922 3.6364e-16 0)
(1.1 1.72258e-17 0)
(1.1 6.58555e-16 0)
(1.1 6.29017e-16 0)
(1.1 -6.52312e-16 0)
(1.1 -1.24286e-15 0)
(1.1 -4.8103e-16 0)
(1.1 -5.76126e-16 0)
(1.1 -4.849e-16 0)
(1.1 -5.08274e-16 0)
(1.1 -1.31835e-15 0)
(1.1 -1.43204e-15 0)
(1.1 -1.36092e-15 0)
(1.1 -2.0063e-16 0)
(1.1 5.27457e-16 0)
(1.1 3.67e-16 0)
(1.1 -6.81578e-16 0)
(1.1 -4.35913e-16 0)
(1.1 -3.63471e-16 0)
(1.1 -8.53936e-17 0)
(1.1 -1.14981e-16 0)
(1.1 3.53805e-16 0)
(1.09922 7.48032e-16 0)
(1.1 5.87662e-16 0)
(1.1 8.71314e-16 0)
(1.1 5.73208e-16 0)
(1.1 -5.3382e-16 0)
(1.1 -9.80409e-16 0)
(1.1 -2.60781e-16 0)
(1.1 -3.84186e-16 0)
(1.1 -5.43611e-16 0)
(1.1 -7.61404e-16 0)
(1.1 -1.69916e-15 0)
(1.1 -1.25827e-15 0)
(1.1 -1.01775e-15 0)
(1.1 -4.98584e-16 0)
(1.1 -9.90457e-16 0)
(1.1 -6.63116e-16 0)
(1.1 -1.18499e-15 0)
(1.1 -5.5617e-16 0)
(1.1 -7.82436e-16 0)
(1.1 -8.27613e-16 0)
(1.1 -8.73234e-17 0)
(1.1 3.31755e-16 0)
(1.09922 5.69922e-16 0)
(1.1 8.56021e-16 0)
(1.1 1.1305e-15 0)
(1.1 5.85207e-16 0)
(1.1 -7.38564e-17 0)
(1.1 2.03239e-16 0)
(1.1 -5.52333e-17 0)
(1.1 -4.12786e-16 0)
(1.1 -7.70045e-16 0)
(1.1 -1.02328e-15 0)
(1.1 -6.82078e-16 0)
(1.1 -7.87717e-16 0)
(1.1 -3.6113e-16 0)
(1.1 -1.52282e-15 0)
(1.1 -1.84196e-15 0)
(1.1 -3.21021e-16 0)
(1.1 -8.67575e-16 0)
(1.1 -5.58681e-16 0)
(1.1 -8.9502e-16 0)
(1.1 -6.45448e-16 0)
(1.1 -3.78021e-16 0)
(1.1 4.59009e-17 0)