/*--------------------------------*- C++ -*----------------------------------*\
  =========                 |
  \\      /  F ield         | OpenFOAM: The Open Source CFD Toolbox
   \\    /   O peration     | Website:  https://openfoam.org
    \\  /    A nd           | Version:  8
     \\/     M anipulation  |
\*---------------------------------------------------------------------------*/
FoamFile
{
    version     2.0;
    format      ascii;
    class       volScalarField;
    location    "0.4";
    object      p;
}
// * * * * * * * * * * * * * * * * * * * * * * * * * * * * * * * * * * * * * //

dimensions      [1 -1 -2 0 0 0 0];

internalField   nonuniform List<scalar> 
325
(
1.70756
0.833483
0.97173
1.16422
1.78083
0.860332
0.951522
1.18197
1.76758
0.829661
0.993549
1.25675
1.59186
0.86377
1.02618
1.10288
1.36416
0.836196
0.864168
0.787246
0.948648
0.782072
0.624018
0.475773
0.695098
1.92635
0.82837
0.594219
0.715328
2.78264
1.14562
0.700757
0.767423
3.42045
1.47896
0.831826
0.842838
3.89636
1.88085
1.00888
0.958036
4.29052
2.22037
1.18501
1.05899
4.64042
2.53051
1.39995
1.14211
4.93911
2.83332
1.63611
1.23417
5.20497
3.10674
1.87177
1.33216
5.44942
3.36613
2.0933
1.45716
5.66589
3.61625
2.31836
1.5916
5.86315
3.85213
2.52581
1.74097
6.04212
4.07478
2.73133
1.89298
6.19748
4.2857
2.92374
2.05176
6.32831
4.48028
3.10743
2.21087
6.43949
4.66254
3.28396
2.36273
6.5273
4.82823
3.44694
2.51471
6.57468
4.96799
3.60514
2.66306
6.5903
5.08958
3.7529
2.80734
6.59567
5.19889
3.89141
2.9421
6.55496
5.33034
4.03807
3.07667
9.50495
9.24883
8.79616
8.24723
9.25667
9.00955
8.552
7.7978
9.30652
9.03964
8.58326
7.79565
9.15998
8.90894
8.49269
7.7123
9.12092
8.8861
8.45993
7.71034
9.00502
8.80492
8.43324
7.73474
8.89906
8.72539
8.39964
7.78577
8.81482
8.67755
8.38114
7.83421
8.71482
8.60827
8.34769
7.86466
8.61335
8.52997
8.30024
7.87318
8.5205
8.44883
8.24842
7.87068
8.43787
8.3595
8.1902
7.85999
8.31875
8.18852
8.09637
7.82564
8.22426
8.0399
7.983
7.76362
7.71513
7.89096
7.84124
7.69723
6.18762
7.7852
7.80811
7.63011
4.42946
7.02239
7.66097
7.56999
3.60569
5.51302
7.3693
7.48201
3.44229
4.1296
6.57523
7.37503
3.53166
5.15935
7.09224
6.3615
5.46239
4.30046
3.35668
5.85366
5.42061
4.55064
3.67264
5.07055
5.20545
4.58433
3.74301
4.43125
4.79385
4.37456
3.64359
4.16526
4.32468
3.99638
3.41308
4.01065
4.10717
3.8276
3.33094
3.84539
4.02821
3.81968
3.37215
3.66282
4.00893
3.841
3.43803
3.51096
3.96636
3.8561
3.50951
3.41344
3.89794
3.83926
3.56975
3.36153
3.7901
3.81484
3.61931
3.34152
3.66069
3.7938
3.66566
3.33982
3.54533
3.76098
3.68557
3.33954
3.45745
3.7147
3.67437
3.3385
3.39774
3.63776
3.64479
3.33768
3.3576
3.53257
3.59679
3.33647
3.33336
3.42686
3.52462
3.33626
3.32182
3.34879
3.43622
3.33699
3.31891
3.30492
3.35554
3.33804
3.31805
3.2857
3.29446
3.3843
3.40986
3.81912
5.74469
3.37596
3.4319
4.09229
3.35927
3.38306
3.55972
3.34413
3.36134
3.43663
3.32701
3.34004
3.37683
3.31037
3.31698
3.33594
3.29904
3.30071
3.30938
3.29448
3.29319
3.29431
3.29583
3.29357
3.29208
3.29836
3.29648
3.29527
3.30209
3.30038
3.30033
3.30612
3.30586
3.30829
3.31075
3.31206
3.31683
3.31387
3.31613
3.3227
3.31522
3.31742
3.32515
3.31573
3.31768
3.32629
3.31605
3.31786
3.32697
3.31601
3.31782
3.32695
3.316
3.31781
3.32669
3.31599
3.31781
3.32639
)
;

boundaryField
{
    inlet
    {
        type            fixedValue;
        value           nonuniform List<scalar> 0();
    }
    outlet
    {
        type            zeroGradient;
    }
    triangle
    {
        type            zeroGradient;
    }
    top
    {
        type            symmetryPlane;
    }
    bottom
    {
        type            symmetryPlane;
    }
    defaultFaces
    {
        type            empty;
    }
    procBoundary6to2
    {
        type            processor;
        value           nonuniform List<scalar> 5(1.69191 0.811971 0.947464 1.17012 1.17012);
    }
    procBoundary6to5
    {
        type            processor;
        value           nonuniform List<scalar> 
43
(
9.73637
9.4358
9.48874
9.32263
9.29421
9.18673
9.06398
8.96009
8.85736
8.74374
8.5854
8.4814
8.22799
7.1999
5.14788
3.81173
3.50355
3.45098
3.42492
3.40739
3.40739
3.40739
3.37926
3.36363
3.36363
3.34772
3.33389
3.32003
3.30701
3.29841
3.2959
3.29686
3.29963
3.30343
3.30753
3.31109
3.31349
3.31468
3.31525
3.31558
3.31554
3.3155
3.31549
)
;
    }
    procBoundary6to7
    {
        type            processor;
        value           nonuniform List<scalar> 
47
(
2.32517
2.23968
2.17435
2.07543
1.92128
1.69586
1.61586
1.55429
1.50931
1.47227
1.45167
1.45574
1.47767
1.51831
1.57144
1.64077
1.69952
1.77357
1.84776
1.92802
2.01674
2.10942
2.2168
2.32089
2.43975
2.55519
2.67628
2.88418
2.99373
2.97937
2.85281
2.75436
2.76942
2.82751
2.91504
3.00848
3.09939
3.18964
3.28268
3.35661
3.40381
3.42745
3.42395
3.40093
3.35953
3.31623
3.27899
)
;
    }
}


// ************************************************************************* //
