/*--------------------------------*- C++ -*----------------------------------*\
  =========                 |
  \\      /  F ield         | OpenFOAM: The Open Source CFD Toolbox
   \\    /   O peration     | Website:  https://openfoam.org
    \\  /    A nd           | Version:  7
     \\/     M anipulation  |
\*---------------------------------------------------------------------------*/
FoamFile
{
    version     2.0;
    format      ascii;
    class       volScalarField;
    location    "1";
    object      p;
}
// * * * * * * * * * * * * * * * * * * * * * * * * * * * * * * * * * * * * * //

dimensions      [1 -1 -2 0 0 0 0];

internalField   nonuniform List<scalar> 
325
(
1.0455
0.962629
0.972624
1.00682
1.05396
0.972989
0.979346
1.02119
1.05969
0.995394
1.00266
1.04
1.05474
1.0212
1.00272
1.04154
1.04512
1.0359
0.992589
1.02145
1.02104
1.01614
0.968174
0.993803
0.996717
1.5784
0.956232
0.944465
0.968932
2.16047
1.01037
0.926469
0.946609
2.59388
1.13523
0.934709
0.934866
2.9692
1.30418
0.955318
0.929992
3.31466
1.48672
0.99782
0.93592
3.5948
1.69195
1.07582
0.939262
3.87083
1.88694
1.17551
0.949334
4.11914
2.1006
1.29669
0.975766
4.31098
2.31297
1.44158
1.00655
4.46646
2.50522
1.58413
1.04345
4.60148
2.69628
1.74425
1.1081
4.7083
2.87821
1.88284
1.21285
4.81214
3.05782
2.02832
1.33966
4.92463
3.2459
2.17073
1.46946
4.82158
3.41486
2.29728
1.60199
4.76065
3.60374
2.45064
1.73264
4.54216
3.75309
2.59621
1.87604
4.15264
3.88074
2.749
2.01486
3.78758
3.93155
2.91298
2.15303
3.52475
3.93391
3.04485
2.2951
7.37607
7.20316
6.9114
6.36252
7.30443
7.13228
6.81536
6.15428
7.30257
7.10367
6.77084
6.10974
7.24012
7.02088
6.65771
6.07772
7.19867
6.99936
6.61232
6.13382
7.11138
6.9467
6.58376
6.17341
7.10959
6.93488
6.60573
6.22514
6.48767
6.88867
6.62153
6.24763
4.39475
6.79364
6.60419
6.23976
1.72844
5.9105
6.56005
6.22115
1.0362
3.76248
6.34964
6.2105
1.01609
1.57364
5.49076
6.23132
1.01238
1.0339
3.63613
6.01779
1.01077
1.01308
1.68553
5.39344
1.0087
1.00989
1.05598
4.15452
1.00693
1.00786
1.01179
2.6634
1.00555
1.00634
1.00794
1.3982
1.00431
1.005
1.00602
1.01352
1.00333
1.00397
1.00499
1.00483
1.00311
1.00376
1.00468
2.98501
3.87735
3.19964
2.50147
2.27468
3.75172
3.38659
2.7782
1.54704
3.45558
3.59891
3.04243
1.13157
2.98951
3.6701
3.21829
1.00276
2.52763
3.60243
3.32541
0.999575
1.98386
3.46759
3.43819
0.999682
1.47539
3.15766
3.55926
0.999823
1.1448
2.7881
3.51876
0.999925
1.02761
2.4133
3.36335
0.999984
1.00487
1.98672
3.11672
0.999999
1.00087
1.56031
2.81878
1
1.00016
1.24154
2.45474
1
0.999954
1.0826
2.03452
1
0.999857
1.0256
1.73814
1.00001
0.999821
1.00831
1.66328
1.00001
0.999836
1.00368
1.64998
1.00001
0.999853
1.00243
1.60268
1.00001
0.999871
1.00225
1.54678
1.00001
0.999887
1.0021
1.63136
1.00001
0.999898
1.00201
1.70976
1.00185
1.00222
1.00276
1.00339
1.0014
1.00181
1.00209
1.00085
1.00111
1.00129
1.00051
1.00064
1.00077
1.00031
1.00038
1.00045
1.00019
1.00023
1.00032
1.00012
1.00014
1.00021
1.00007
1.00009
1.00013
1.00005
1.00005
1.00008
1.00003
1.00003
1.00005
1.00002
1.00002
1.00003
1.00001
1.00001
1.00002
1.00001
1.00001
1.00001
1
1
1.00001
1
1
1
1
1
1
1
1
1
1
1
1
1
1
1
1
1
1
)
;

boundaryField
{
    inlet
    {
        type            fixedValue;
        value           nonuniform 0();
    }
    outlet
    {
        type            zeroGradient;
    }
    triangle
    {
        type            zeroGradient;
    }
    top
    {
        type            symmetryPlane;
    }
    bottom
    {
        type            symmetryPlane;
    }
    defaultFaces
    {
        type            empty;
    }
    procBoundary6to2
    {
        type            processor;
        value           nonuniform List<scalar> 5(1.03565 0.960375 0.958679 0.994187 0.994187);
    }
    procBoundary6to5
    {
        type            processor;
        value           nonuniform List<scalar> 
43
(
7.53898
7.42137
7.48715
7.40787
7.41618
7.03243
5.46826
2.27725
1.06107
1.02099
1.01735
1.01374
1.01127
1.00978
1.00784
1.00601
1.00479
1.00373
1.00284
1.00256
1.00256
1.00256
1.00153
1.00118
1.00118
1.00072
1.00042
1.00025
1.00016
1.0001
1.00006
1.00004
1.00002
1.00001
1.00001
1.00001
1
1
1
1
1
1
1
)
;
    }
    procBoundary6to7
    {
        type            processor;
        value           nonuniform List<scalar> 
47
(
1.18035
1.18541
1.18479
1.17524
1.15655
1.12977
1.10269
1.07676
1.0522
1.02748
1.00276
0.982872
0.97291
0.974047
0.990334
1.0122
1.05038
1.07894
1.10714
1.13647
1.17582
1.25127
1.32925
1.41961
1.5079
1.60215
1.69322
1.84727
2.04662
2.23099
2.40856
2.60992
2.86378
3.10877
3.30287
3.55232
4.05
4.70076
5.34802
5.871
6.15936
6.39057
6.51389
6.67285
6.73373
6.79424
6.78547
)
;
    }
}


// ************************************************************************* //
