/*--------------------------------*- C++ -*----------------------------------*\
  =========                 |
  \\      /  F ield         | OpenFOAM: The Open Source CFD Toolbox
   \\    /   O peration     | Website:  https://openfoam.org
    \\  /    A nd           | Version:  7
     \\/     M anipulation  |
\*---------------------------------------------------------------------------*/
FoamFile
{
    version     2.0;
    format      ascii;
    class       volVectorField;
    location    "1";
    object      U;
}
// * * * * * * * * * * * * * * * * * * * * * * * * * * * * * * * * * * * * * //

dimensions      [0 1 -1 0 0 0 0];

internalField   nonuniform List<vector> 
325
(
(0.407333 -0.00184576 0)
(-0.147301 0.0641666 0)
(0.0259227 -0.0216441 0)
(0.444501 -0.0351988 0)
(0.893112 -0.0391327 0)
(-0.0668922 0.065746 0)
(0.288527 -0.0405124 0)
(0.906862 -0.067281 0)
(1.41002 -0.0646646 0)
(0.0379444 0.0822461 0)
(0.687215 -0.060897 0)
(1.42877 -0.116514 0)
(1.88068 -0.11553 0)
(0.189503 0.00710556 0)
(1.20927 -0.201002 0)
(1.9262 -0.165686 0)
(2.23757 -0.136175 0)
(0.622463 0.00714393 0)
(1.80407 -0.245485 0)
(2.29206 -0.216238 0)
(2.43514 -0.180838 0)
(1.53403 -0.36968 0)
(2.26695 -0.376438 0)
(2.47208 -0.238716 0)
(2.51493 -0.197833 0)
(2.20086 -0.0323396 0)
(2.54428 -0.344857 0)
(2.53548 -0.300681 0)
(2.53829 -0.237399 0)
(2.20108 0.224499 0)
(2.61442 -0.301564 0)
(2.59198 -0.285276 0)
(2.56749 -0.247988 0)
(2.14542 0.34425 0)
(2.56789 -0.143451 0)
(2.61675 -0.293471 0)
(2.58635 -0.264956 0)
(2.08044 0.460955 0)
(2.52409 -0.0538237 0)
(2.62354 -0.250456 0)
(2.60222 -0.261051 0)
(2.06236 0.517201 0)
(2.46708 0.0947284 0)
(2.6238 -0.230767 0)
(2.62106 -0.259338 0)
(2.03673 0.591647 0)
(2.44326 0.171883 0)
(2.61579 -0.157462 0)
(2.64537 -0.245919 0)
(2.0155 0.641336 0)
(2.40766 0.280823 0)
(2.61316 -0.124491 0)
(2.66744 -0.22976 0)
(1.99013 0.684548 0)
(2.38067 0.352742 0)
(2.59123 -0.0153352 0)
(2.68305 -0.202263 0)
(1.97601 0.715469 0)
(2.35057 0.423918 0)
(2.58675 0.0209704 0)
(2.69229 -0.173715 0)
(1.95004 0.749963 0)
(2.32326 0.478307 0)
(2.55946 0.110993 0)
(2.67958 -0.113554 0)
(1.93737 0.77192 0)
(2.28771 0.536116 0)
(2.54392 0.158214 0)
(2.66079 -0.0619123 0)
(1.92514 0.794805 0)
(2.26745 0.565923 0)
(2.52029 0.218981 0)
(2.61784 0.0099514 0)
(1.89815 0.819661 0)
(2.22161 0.608877 0)
(2.48645 0.280521 0)
(2.59867 0.052155 0)
(1.89534 0.835797 0)
(2.20088 0.632 0)
(2.46584 0.318874 0)
(2.5789 0.118299 0)
(1.89319 0.855858 0)
(2.15117 0.679514 0)
(2.42298 0.377151 0)
(2.56164 0.156917 0)
(1.91554 0.851956 0)
(2.1206 0.706612 0)
(2.3871 0.420749 0)
(2.53496 0.19975 0)
(1.97499 0.82776 0)
(2.10767 0.72146 0)
(2.36084 0.457006 0)
(2.507 0.232132 0)
(2.03052 0.81713 0)
(2.10133 0.734075 0)
(2.31294 0.511114 0)
(2.4803 0.257668 0)
(2.07983 0.796851 0)
(2.08505 0.725743 0)
(2.28435 0.544728 0)
(2.4518 0.293507 0)
(2.15183 0.724842 0)
(2.07947 0.723417 0)
(2.24861 0.584712 0)
(2.43032 0.321233 0)
(1.29138 0.747634 0)
(1.29239 0.747044 0)
(1.2984 0.742353 0)
(1.39753 0.756161 0)
(1.28384 0.766992 0)
(1.28967 0.773143 0)
(1.29976 0.763273 0)
(1.40997 0.790543 0)
(1.32473 0.77894 0)
(1.32466 0.789842 0)
(1.33665 0.77167 0)
(1.45642 0.799684 0)
(1.36729 0.834589 0)
(1.37197 0.834385 0)
(1.39453 0.815323 0)
(1.51161 0.840876 0)
(1.41112 0.863107 0)
(1.42849 0.868533 0)
(1.46897 0.849842 0)
(1.57702 0.855886 0)
(1.45084 0.884168 0)
(1.48619 0.880817 0)
(1.52753 0.871761 0)
(1.61303 0.874551 0)
(1.49534 0.89453 0)
(1.51857 0.897179 0)
(1.55415 0.890356 0)
(1.62551 0.886366 0)
(1.62094 0.872457 0)
(1.53012 0.895139 0)
(1.5648 0.893665 0)
(1.63006 0.892292 0)
(1.93983 0.776173 0)
(1.54839 0.900101 0)
(1.57765 0.897296 0)
(1.6375 0.896728 0)
(2.85191 0.242184 0)
(1.7438 0.851351 0)
(1.59004 0.90407 0)
(1.64185 0.904817 0)
(2.99292 0.0189947 0)
(2.1241 0.731655 0)
(1.60982 0.915709 0)
(1.64306 0.909145 0)
(2.99438 0.0104315 0)
(2.91248 0.19391 0)
(1.83223 0.851062 0)
(1.65444 0.903139 0)
(2.99562 0.00781701 0)
(2.99498 0.0187461 0)
(2.18281 0.73426 0)
(1.67415 0.922397 0)
(2.99636 0.00633146 0)
(2.9956 0.00839296 0)
(2.91334 0.245193 0)
(1.83985 0.860805 0)
(2.99703 0.00537953 0)
(2.99679 0.00622943 0)
(3.00769 0.0236622 0)
(2.01345 0.786267 0)
(2.99756 0.00468892 0)
(2.99734 0.0049665 0)
(2.99642 0.00841405 0)
(2.48943 0.580446 0)
(2.99818 0.00343265 0)
(2.99793 0.00381023 0)
(2.9976 0.00498423 0)
(3.03079 0.140483 0)
(2.99855 0.00280446 0)
(2.99834 0.00310668 0)
(2.99825 0.00431401 0)
(3.03145 -0.00884197 0)
(2.99888 0.00219553 0)
(2.99876 0.00248036 0)
(2.99794 0.0029318 0)
(2.99959 0.00370891 0)
(2.99908 0.00182207 0)
(2.99865 0.00264776 0)
(2.99844 0.00278825 0)
(2.24532 0.631754 0)
(2.07079 0.732519 0)
(2.20485 0.627083 0)
(2.38952 0.364993 0)
(2.60261 0.475392 0)
(2.08816 0.742289 0)
(2.15324 0.667262 0)
(2.32032 0.418292 0)
(3.02186 0.209537 0)
(2.1748 0.745593 0)
(2.1479 0.682738 0)
(2.26131 0.468213 0)
(3.11588 0.0113416 0)
(2.37652 0.712228 0)
(2.14027 0.659102 0)
(2.22774 0.524646 0)
(3.01923 -4.75254e-05 0)
(2.57953 0.586916 0)
(2.16234 0.681339 0)
(2.20713 0.576056 0)
(3.00144 0.000154668 0)
(2.81569 0.398661 0)
(2.21681 0.688375 0)
(2.20779 0.606378 0)
(3.00041 -0.000126162 0)
(3.01161 0.177486 0)
(2.3115 0.679162 0)
(2.20713 0.614237 0)
(3.00014 -8.43542e-05 0)
(3.03466 0.0535973 0)
(2.45832 0.632089 0)
(2.17945 0.622831 0)
(3.00004 -3.98058e-05 0)
(3.00502 0.0153725 0)
(2.64151 0.522418 0)
(2.16836 0.66204 0)
(3.00002 -1.59431e-05 0)
(2.9995 0.00343902 0)
(2.83266 0.369753 0)
(2.25617 0.701571 0)
(3 -1.43131e-05 0)
(2.99975 0.000733512 0)
(2.97296 0.199846 0)
(2.39942 0.724162 0)
(2.99999 -1.14837e-05 0)
(2.99996 0.000229098 0)
(3.01167 0.0760375 0)
(2.57302 0.72466 0)
(2.99998 -7.29495e-06 0)
(3.00012 5.07457e-05 0)
(3.00621 0.0220356 0)
(2.72915 0.743201 0)
(3 -1.43144e-06 0)
(3.00015 -2.97121e-05 0)
(3.00072 0.00568375 0)
(2.83197 0.690489 0)
(3 -6.14212e-07 0)
(3.00014 -6.95716e-05 0)
(2.99751 0.00359002 0)
(2.89785 0.528915 0)
(3 -7.7256e-07 0)
(3.00011 -8.09559e-05 0)
(2.9975 0.00343143 0)
(2.9296 0.303262 0)
(3 -9.04046e-07 0)
(3.00007 -7.36764e-05 0)
(2.99836 0.00327453 0)
(2.88314 0.0747015 0)
(2.99999 -7.79146e-07 0)
(3.00005 -5.65589e-05 0)
(2.99915 0.00276255 0)
(2.7593 -0.0599786 0)
(2.99999 -4.62162e-07 0)
(3.00004 -3.55516e-05 0)
(2.99952 0.00192236 0)
(2.59982 -0.0914237 0)
(2.99999 -2.75203e-07 0)
(3.00004 -1.22673e-05 0)
(2.99927 0.000651515 0)
(2.53065 -0.0246606 0)
(2.99937 0.00125167 0)
(2.99933 0.00130781 0)
(2.99907 0.00196052 0)
(2.9993 0.0017707 0)
(2.99957 0.00084402 0)
(2.99939 0.00121208 0)
(2.99942 0.00123525 0)
(2.99972 0.000583718 0)
(2.99967 0.000648203 0)
(2.99958 0.000864467 0)
(2.99983 0.000349844 0)
(2.99982 0.000364796 0)
(2.99977 0.000560737 0)
(2.9999 0.00021041 0)
(2.99989 0.000221263 0)
(2.99986 0.000333202 0)
(2.99994 0.000125756 0)
(2.99993 0.000142931 0)
(2.99989 0.000210249 0)
(2.99996 7.56583e-05 0)
(2.99995 9.13586e-05 0)
(2.99993 0.000130327 0)
(2.99998 4.73776e-05 0)
(2.99997 5.64148e-05 0)
(2.99996 8.21043e-05 0)
(2.99999 2.90777e-05 0)
(2.99998 3.49432e-05 0)
(2.99997 5.07385e-05 0)
(2.99999 1.73484e-05 0)
(2.99999 2.08242e-05 0)
(2.99998 3.03548e-05 0)
(2.99999 1.04005e-05 0)
(2.99999 1.25188e-05 0)
(2.99999 1.83229e-05 0)
(3 6.07565e-06 0)
(3 7.27308e-06 0)
(2.99999 1.05903e-05 0)
(3 3.49266e-06 0)
(3 4.18416e-06 0)
(3 6.15869e-06 0)
(3 1.95465e-06 0)
(3 2.19867e-06 0)
(3 3.4336e-06 0)
(3 1.0817e-06 0)
(3 9.74007e-07 0)
(3 2.14341e-06 0)
(3 5.31227e-07 0)
(3 3.38711e-07 0)
(3 9.7617e-07 0)
(3 1.40741e-07 0)
(3 -2.87388e-08 0)
(3 2.54785e-07 0)
(3 -4.95282e-08 0)
(3 -1.63728e-07 0)
(3 -7.68484e-08 0)
(3 -8.66807e-08 0)
(3 -1.45418e-07 0)
(3 -8.41648e-08 0)
(3 -7.83287e-08 0)
(3 -1.02088e-07 0)
(3 -1.00408e-07 0)
)
;

boundaryField
{
    inlet
    {
        type            fixedValue;
        value           nonuniform 0();
    }
    outlet
    {
        type            inletOutlet;
        inletValue      nonuniform 0();
        value           nonuniform 0();
    }
    triangle
    {
        type            slip;
    }
    top
    {
        type            symmetryPlane;
    }
    bottom
    {
        type            symmetryPlane;
    }
    defaultFaces
    {
        type            empty;
    }
    procBoundary6to2
    {
        type            processor;
        value           nonuniform List<vector> 5((0.0360109 0.00547384 0) (-0.19807 0.0403236 0) (-0.141794 -0.00912241 0) (0.087421 -0.00347175 0) (0.087421 -0.00347175 0));
    }
    procBoundary6to5
    {
        type            processor;
        value           nonuniform List<vector> 
43
(
(1.29454 0.749458 0)
(1.27287 0.763466 0)
(1.32475 0.77064 0)
(1.37887 0.825705 0)
(1.407 0.856819 0)
(1.41527 0.875533 0)
(1.75122 0.811452 0)
(2.6747 0.407782 0)
(2.99595 0.0233171 0)
(2.99198 0.0136929 0)
(2.99393 0.0101199 0)
(2.99536 0.00833218 0)
(2.996 0.00734811 0)
(2.99656 0.00615308 0)
(2.99746 0.00455788 0)
(2.99795 0.00383513 0)
(2.9984 0.00298541 0)
(2.99882 0.00223847 0)
(2.99908 0.00178577 0)
(2.99912 0.00176079 0)
(2.99912 0.00176079 0)
(2.99912 0.00176079 0)
(2.99952 0.00094216 0)
(2.99962 0.000754992 0)
(2.99962 0.000754992 0)
(2.99979 0.000424224 0)
(2.99987 0.000250872 0)
(2.99992 0.0001551 0)
(2.99995 9.92701e-05 0)
(2.99997 6.48967e-05 0)
(2.99998 3.85442e-05 0)
(2.99999 2.39068e-05 0)
(2.99999 1.42258e-05 0)
(3 8.5611e-06 0)
(3 4.96334e-06 0)
(3 2.83972e-06 0)
(3 1.48108e-06 0)
(3 6.97366e-07 0)
(3 2.67192e-07 0)
(3 -1.12673e-08 0)
(3 -1.12155e-07 0)
(3 -1.25837e-07 0)
(3 -8.42624e-08 0)
)
;
    }
    procBoundary6to7
    {
        type            processor;
        value           nonuniform List<vector> 
47
(
(0.635676 0.00209427 0)
(1.1672 -0.00788639 0)
(1.68561 -0.0438362 0)
(2.10272 -0.0643598 0)
(2.36602 -0.10309 0)
(2.48386 -0.13138 0)
(2.51117 -0.165611 0)
(2.51148 -0.193354 0)
(2.51807 -0.217737 0)
(2.53886 -0.238913 0)
(2.56906 -0.26003 0)
(2.60418 -0.273582 0)
(2.63346 -0.281291 0)
(2.65549 -0.285668 0)
(2.67025 -0.278905 0)
(2.67765 -0.281846 0)
(2.67912 -0.250701 0)
(2.69211 -0.267169 0)
(2.71943 -0.244329 0)
(2.72264 -0.250059 0)
(2.68877 -0.193089 0)
(2.67471 -0.173787 0)
(2.6421 -0.100296 0)
(2.6261 -0.0646728 0)
(2.58797 0.00273975 0)
(2.57109 0.038284 0)
(2.54224 0.0942959 0)
(2.50894 0.153254 0)
(2.44105 0.25025 0)
(2.38667 0.332898 0)
(2.3426 0.415217 0)
(2.31411 0.469281 0)
(2.29268 0.489012 0)
(2.24824 0.495486 0)
(2.19249 0.510253 0)
(2.12605 0.506752 0)
(2.04139 0.436802 0)
(1.92096 0.353688 0)
(1.77442 0.268276 0)
(1.71339 0.223531 0)
(1.69966 0.193543 0)
(1.72411 0.190004 0)
(1.73392 0.168589 0)
(1.67029 0.129869 0)
(1.50747 0.125689 0)
(1.36652 0.0803139 0)
(1.31732 0.0274892 0)
)
;
    }
}


// ************************************************************************* //
