/*--------------------------------*- C++ -*----------------------------------*\
  =========                 |
  \\      /  F ield         | OpenFOAM: The Open Source CFD Toolbox
   \\    /   O peration     | Website:  https://openfoam.org
    \\  /    A nd           | Version:  8
     \\/     M anipulation  |
\*---------------------------------------------------------------------------*/
FoamFile
{
    version     2.0;
    format      ascii;
    class       volVectorField;
    location    "1";
    object      U;
}
// * * * * * * * * * * * * * * * * * * * * * * * * * * * * * * * * * * * * * //

dimensions      [0 1 -1 0 0 0 0];

internalField   nonuniform List<vector> 
325
(
(0.409412 -0.00250151 0)
(-0.147342 0.064284 0)
(0.0261365 -0.0214533 0)
(0.445305 -0.0350629 0)
(0.895665 -0.039518 0)
(-0.0669377 0.0658968 0)
(0.288792 -0.0404732 0)
(0.907698 -0.0671149 0)
(1.41229 -0.0654446 0)
(0.0378634 0.0824385 0)
(0.687488 -0.0607445 0)
(1.42956 -0.116802 0)
(1.88212 -0.115872 0)
(0.189288 0.00734093 0)
(1.20938 -0.201129 0)
(1.92688 -0.165654 0)
(2.23826 -0.137152 0)
(0.621934 0.00732443 0)
(1.80417 -0.245375 0)
(2.29237 -0.216315 0)
(2.43566 -0.182175 0)
(1.53343 -0.369298 0)
(2.26704 -0.376476 0)
(2.47227 -0.238911 0)
(2.51518 -0.198792 0)
(2.20068 -0.0323386 0)
(2.54443 -0.344776 0)
(2.53568 -0.300977 0)
(2.53842 -0.237803 0)
(2.20099 0.22459 0)
(2.61457 -0.301448 0)
(2.59213 -0.28557 0)
(2.56759 -0.248253 0)
(2.14545 0.3442 0)
(2.56795 -0.143324 0)
(2.61685 -0.293642 0)
(2.58645 -0.26531 0)
(2.08041 0.460995 0)
(2.52411 -0.0539215 0)
(2.62359 -0.250555 0)
(2.60232 -0.261332 0)
(2.06237 0.517194 0)
(2.46706 0.0946952 0)
(2.62381 -0.230549 0)
(2.62109 -0.259855 0)
(2.03668 0.591715 0)
(2.44329 0.171781 0)
(2.61583 -0.157566 0)
(2.64541 -0.246137 0)
(2.0155 0.641335 0)
(2.40764 0.280845 0)
(2.61312 -0.124333 0)
(2.66749 -0.230082 0)
(1.99011 0.684576 0)
(2.38071 0.352685 0)
(2.59123 -0.0153896 0)
(2.68309 -0.202378 0)
(1.97597 0.715498 0)
(2.35062 0.423864 0)
(2.58671 0.0210465 0)
(2.69232 -0.173818 0)
(1.95005 0.749955 0)
(2.32319 0.478409 0)
(2.55952 0.110858 0)
(2.67955 -0.113535 0)
(1.93732 0.771949 0)
(2.28773 0.536071 0)
(2.54394 0.158289 0)
(2.66083 -0.0620419 0)
(1.92518 0.794793 0)
(2.26736 0.566011 0)
(2.52037 0.218937 0)
(2.61792 0.00985606 0)
(1.89814 0.819671 0)
(2.22165 0.608812 0)
(2.48642 0.280575 0)
(2.59872 0.052179 0)
(1.89533 0.835795 0)
(2.20082 0.632059 0)
(2.46588 0.318746 0)
(2.57896 0.118264 0)
(1.89319 0.855861 0)
(2.15124 0.679509 0)
(2.42291 0.377135 0)
(2.56163 0.15694 0)
(1.91555 0.851956 0)
(2.12062 0.706643 0)
(2.38713 0.420692 0)
(2.53501 0.199674 0)
(1.97499 0.827768 0)
(2.10769 0.721462 0)
(2.36083 0.457046 0)
(2.50705 0.232091 0)
(2.03052 0.817143 0)
(2.10133 0.734081 0)
(2.31297 0.511116 0)
(2.48036 0.257603 0)
(2.07981 0.796873 0)
(2.08504 0.725746 0)
(2.28437 0.544728 0)
(2.4518 0.293506 0)
(2.15184 0.724835 0)
(2.07946 0.723419 0)
(2.24859 0.584728 0)
(2.43034 0.321152 0)
(1.29138 0.747635 0)
(1.29239 0.747045 0)
(1.2984 0.742355 0)
(1.39752 0.756162 0)
(1.28384 0.766993 0)
(1.28967 0.773144 0)
(1.29976 0.763275 0)
(1.40997 0.790544 0)
(1.32473 0.778939 0)
(1.32466 0.789843 0)
(1.33665 0.771673 0)
(1.45641 0.799688 0)
(1.36729 0.834589 0)
(1.37197 0.834386 0)
(1.39453 0.815324 0)
(1.51161 0.840876 0)
(1.41112 0.863107 0)
(1.42849 0.868534 0)
(1.46897 0.849843 0)
(1.57702 0.855888 0)
(1.45084 0.884169 0)
(1.48619 0.880817 0)
(1.52753 0.871761 0)
(1.61303 0.87455 0)
(1.49535 0.89453 0)
(1.51857 0.89718 0)
(1.55415 0.890357 0)
(1.62551 0.886367 0)
(1.62095 0.872454 0)
(1.53012 0.89514 0)
(1.5648 0.893666 0)
(1.63007 0.892292 0)
(1.93985 0.776166 0)
(1.54839 0.900104 0)
(1.57765 0.897299 0)
(1.6375 0.89673 0)
(2.85193 0.242168 0)
(1.74381 0.85135 0)
(1.59004 0.904071 0)
(1.64185 0.904818 0)
(2.99292 0.0189942 0)
(2.12413 0.731644 0)
(1.60982 0.91571 0)
(1.64306 0.909146 0)
(2.99438 0.0104313 0)
(2.91249 0.193893 0)
(1.83223 0.85106 0)
(1.65444 0.90314 0)
(2.99562 0.00781689 0)
(2.99498 0.0187455 0)
(2.18284 0.734249 0)
(1.67416 0.922398 0)
(2.99636 0.00633134 0)
(2.9956 0.00839275 0)
(2.91335 0.245172 0)
(1.83986 0.860802 0)
(2.99703 0.00537947 0)
(2.99679 0.00622936 0)
(3.00769 0.0236607 0)
(2.01346 0.786264 0)
(2.99756 0.00468884 0)
(2.99734 0.00496639 0)
(2.99642 0.00841359 0)
(2.48948 0.580426 0)
(2.99818 0.00343262 0)
(2.99793 0.00381017 0)
(2.9976 0.00498416 0)
(3.03081 0.140454 0)
(2.99855 0.00280442 0)
(2.99834 0.0031066 0)
(2.99825 0.00431401 0)
(3.03144 -0.00884214 0)
(2.99888 0.00219549 0)
(2.99876 0.00248037 0)
(2.99794 0.00293175 0)
(2.99959 0.00370878 0)
(2.99908 0.00182203 0)
(2.99865 0.00264775 0)
(2.99844 0.0027882 0)
(2.24531 0.63176 0)
(2.07078 0.732519 0)
(2.20488 0.627063 0)
(2.38949 0.365026 0)
(2.60262 0.475396 0)
(2.08816 0.742285 0)
(2.15324 0.667256 0)
(2.32034 0.418267 0)
(3.02185 0.209536 0)
(2.1748 0.74559 0)
(2.14789 0.682726 0)
(2.26129 0.468231 0)
(3.11587 0.0113431 0)
(2.37651 0.712225 0)
(2.14027 0.659092 0)
(2.22775 0.524624 0)
(3.01923 -4.70962e-05 0)
(2.57952 0.586915 0)
(2.16233 0.681328 0)
(2.20712 0.576046 0)
(3.00144 0.000154704 0)
(2.81569 0.398662 0)
(2.21679 0.688364 0)
(2.20778 0.606368 0)
(3.00041 -0.000126164 0)
(3.01161 0.177487 0)
(2.31148 0.679151 0)
(2.20712 0.614225 0)
(3.00014 -8.43965e-05 0)
(3.03467 0.053596 0)
(2.45828 0.632086 0)
(2.17943 0.622821 0)
(3.00004 -3.9862e-05 0)
(3.00502 0.0153721 0)
(2.64147 0.522426 0)
(2.16834 0.662031 0)
(3.00002 -1.59985e-05 0)
(2.9995 0.00343889 0)
(2.83262 0.36977 0)
(2.25614 0.701564 0)
(3 -1.43502e-05 0)
(2.99975 0.000733411 0)
(2.97294 0.199868 0)
(2.39938 0.724157 0)
(2.99999 -1.15092e-05 0)
(2.99996 0.000229067 0)
(3.01166 0.0760533 0)
(2.57298 0.724646 0)
(2.99998 -7.31289e-06 0)
(3.00012 5.07222e-05 0)
(3.0062 0.0220439 0)
(2.72911 0.743182 0)
(3 -1.43501e-06 0)
(3.00015 -2.97411e-05 0)
(3.00072 0.00568684 0)
(2.83194 0.690505 0)
(3 -6.15718e-07 0)
(3.00014 -6.95917e-05 0)
(2.99751 0.00359149 0)
(2.89784 0.528942 0)
(3 -7.73706e-07 0)
(3.00011 -8.09704e-05 0)
(2.9975 0.00343252 0)
(2.92959 0.303295 0)
(3 -9.04923e-07 0)
(3.00007 -7.36879e-05 0)
(2.99836 0.00327557 0)
(2.88312 0.0747204 0)
(2.99999 -7.79585e-07 0)
(3.00005 -5.65656e-05 0)
(2.99915 0.00276311 0)
(2.75926 -0.0599637 0)
(2.99999 -4.6252e-07 0)
(3.00004 -3.55553e-05 0)
(2.99952 0.00192263 0)
(2.59978 -0.0914126 0)
(2.99999 -2.75293e-07 0)
(3.00004 -1.22684e-05 0)
(2.99927 0.000651574 0)
(2.5306 -0.0246567 0)
(2.99937 0.00125165 0)
(2.99933 0.0013078 0)
(2.99907 0.00196051 0)
(2.9993 0.00177068 0)
(2.99957 0.000844015 0)
(2.99939 0.00121206 0)
(2.99942 0.00123523 0)
(2.99972 0.000583714 0)
(2.99967 0.000648197 0)
(2.99958 0.00086446 0)
(2.99983 0.000349841 0)
(2.99982 0.000364792 0)
(2.99977 0.00056073 0)
(2.9999 0.000210407 0)
(2.99989 0.00022126 0)
(2.99986 0.000333195 0)
(2.99994 0.000125756 0)
(2.99993 0.000142923 0)
(2.99989 0.000210255 0)
(2.99996 7.56557e-05 0)
(2.99995 9.13564e-05 0)
(2.99993 0.000130323 0)
(2.99998 4.73756e-05 0)
(2.99997 5.64123e-05 0)
(2.99996 8.21008e-05 0)
(2.99999 2.90758e-05 0)
(2.99998 3.4941e-05 0)
(2.99997 5.07354e-05 0)
(2.99999 1.73468e-05 0)
(2.99999 2.08223e-05 0)
(2.99998 3.03521e-05 0)
(2.99999 1.03992e-05 0)
(2.99999 1.25172e-05 0)
(2.99999 1.83206e-05 0)
(3 6.07468e-06 0)
(3 7.27192e-06 0)
(2.99999 1.05886e-05 0)
(3 3.49194e-06 0)
(3 4.18337e-06 0)
(3 6.15751e-06 0)
(3 1.95411e-06 0)
(3 2.19819e-06 0)
(3 3.43281e-06 0)
(3 1.08127e-06 0)
(3 9.73792e-07 0)
(3 2.14277e-06 0)
(3 5.30928e-07 0)
(3 3.38363e-07 0)
(3 9.75807e-07 0)
(3 1.40457e-07 0)
(3 -2.90806e-08 0)
(3 2.54386e-07 0)
(3 -4.96629e-08 0)
(3 -1.63898e-07 0)
(3 -7.7045e-08 0)
(3 -8.6803e-08 0)
(3 -1.45549e-07 0)
(3 -8.42704e-08 0)
(3 -7.83566e-08 0)
(3 -1.02124e-07 0)
(3 -1.0044e-07 0)
)
;

boundaryField
{
    inlet
    {
        type            fixedValue;
        value           nonuniform List<vector> 0();
    }
    outlet
    {
        type            inletOutlet;
        inletValue      nonuniform List<vector> 0();
        value           nonuniform List<vector> 0();
    }
    triangle
    {
        type            slip;
    }
    top
    {
        type            symmetryPlane;
    }
    bottom
    {
        type            symmetryPlane;
    }
    defaultFaces
    {
        type            empty;
    }
    procBoundary6to2
    {
        type            processor;
        value           nonuniform List<vector> 5((0.0372047 0.00586912 0) (-0.198096 0.0404056 0) (-0.141657 -0.00901976 0) (0.0881268 -0.00316807 0) (0.0881268 -0.00316807 0));
    }
    procBoundary6to5
    {
        type            processor;
        value           nonuniform List<vector> 
43
(
(1.29454 0.749459 0)
(1.27288 0.763467 0)
(1.32475 0.77064 0)
(1.37887 0.825705 0)
(1.407 0.856818 0)
(1.41527 0.875534 0)
(1.75123 0.811449 0)
(2.67471 0.407765 0)
(2.99595 0.0233158 0)
(2.99198 0.0136926 0)
(2.99393 0.0101197 0)
(2.99536 0.00833208 0)
(2.996 0.00734804 0)
(2.99656 0.00615295 0)
(2.99746 0.00455783 0)
(2.99795 0.00383504 0)
(2.9984 0.00298537 0)
(2.99882 0.00223842 0)
(2.99908 0.00178576 0)
(2.99912 0.00176077 0)
(2.99912 0.00176077 0)
(2.99912 0.00176077 0)
(2.99952 0.000942155 0)
(2.99962 0.000754986 0)
(2.99962 0.000754986 0)
(2.99979 0.000424221 0)
(2.99987 0.00025087 0)
(2.99992 0.000155097 0)
(2.99995 9.92669e-05 0)
(2.99997 6.4895e-05 0)
(2.99998 3.85425e-05 0)
(2.99999 2.39053e-05 0)
(2.99999 1.42245e-05 0)
(3 8.56004e-06 0)
(3 4.96255e-06 0)
(3 2.83918e-06 0)
(3 1.48077e-06 0)
(3 6.97176e-07 0)
(3 2.66951e-07 0)
(3 -1.15127e-08 0)
(3 -1.12283e-07 0)
(3 -1.25949e-07 0)
(3 -8.42932e-08 0)
)
;
    }
    procBoundary6to7
    {
        type            processor;
        value           nonuniform List<vector> 
47
(
(0.635126 0.000881398 0)
(1.16683 -0.00789359 0)
(1.68555 -0.0435002 0)
(2.10302 -0.064743 0)
(2.36639 -0.102223 0)
(2.48372 -0.129824 0)
(2.51074 -0.166349 0)
(2.51147 -0.193855 0)
(2.51797 -0.217294 0)
(2.53867 -0.238672 0)
(2.56898 -0.260086 0)
(2.60417 -0.273873 0)
(2.63351 -0.281439 0)
(2.65557 -0.285889 0)
(2.67033 -0.278926 0)
(2.6777 -0.281961 0)
(2.67909 -0.250721 0)
(2.69207 -0.267284 0)
(2.71937 -0.244404 0)
(2.72254 -0.250027 0)
(2.68867 -0.193108 0)
(2.67467 -0.173943 0)
(2.64208 -0.100345 0)
(2.62611 -0.064758 0)
(2.58795 0.00273638 0)
(2.5711 0.0382694 0)
(2.54216 0.0943565 0)
(2.50892 0.1532 0)
(2.44105 0.250239 0)
(2.38667 0.332901 0)
(2.34262 0.415196 0)
(2.3141 0.469275 0)
(2.29267 0.488999 0)
(2.24822 0.495469 0)
(2.19248 0.51024 0)
(2.12604 0.506743 0)
(2.04138 0.436795 0)
(1.92095 0.35368 0)
(1.7744 0.268271 0)
(1.71337 0.223513 0)
(1.69963 0.193533 0)
(1.72408 0.189991 0)
(1.73389 0.168583 0)
(1.67026 0.129871 0)
(1.50745 0.125693 0)
(1.36651 0.0803181 0)
(1.31731 0.0274905 0)
)
;
    }
}


// ************************************************************************* //
