/*--------------------------------*- C++ -*----------------------------------*\
  =========                 |
  \\      /  F ield         | OpenFOAM: The Open Source CFD Toolbox
   \\    /   O peration     | Website:  https://openfoam.org
    \\  /    A nd           | Version:  8
     \\/     M anipulation  |
\*---------------------------------------------------------------------------*/
FoamFile
{
    version     2.0;
    format      ascii;
    class       volScalarField;
    location    "0.3";
    object      p;
}
// * * * * * * * * * * * * * * * * * * * * * * * * * * * * * * * * * * * * * //

dimensions      [1 -1 -2 0 0 0 0];

internalField   nonuniform List<scalar> 
2600
(
0.600845
0.52416
0.499095
0.736628
0.944799
0.988853
0.961201
0.937215
0.945501
0.983828
0.651268
0.53908
0.502101
0.735767
0.947167
0.99316
0.963478
0.938163
0.945955
0.98368
0.665957
0.495257
0.49027
0.735158
0.948456
0.999409
0.963787
0.938404
0.945888
0.983532
0.624771
0.454165
0.474675
0.748754
0.955194
1.00608
0.967426
0.938768
0.945821
0.983373
0.503391
0.392431
0.457813
0.754807
0.956269
1.0107
0.969389
0.938904
0.945767
0.983248
0.426783
0.353818
0.45126
0.766893
0.960629
1.01411
0.971046
0.938908
0.945695
0.983127
0.410761
0.33834
0.456322
0.779828
0.966064
1.01815
0.972607
0.938856
0.945437
0.982954
0.408815
0.330847
0.46454
0.790642
0.967784
1.01974
0.973165
0.938886
0.945634
0.982939
0.408578
0.330951
0.465612
0.797736
0.97609
1.02098
0.97233
0.938468
0.94566
0.982895
0.410217
0.33306
0.475345
0.799186
0.975156
1.0222
0.973816
0.939067
0.945741
0.982855
0.410217
0.333059
0.475345
0.799186
0.975156
1.0222
0.973816
0.939067
0.945741
0.982855
0.408577
0.330951
0.465612
0.797736
0.97609
1.02098
0.97233
0.938468
0.94566
0.982895
0.408815
0.330846
0.464539
0.790642
0.967784
1.01974
0.973165
0.938886
0.945634
0.982939
0.410761
0.33834
0.456322
0.779827
0.966064
1.01815
0.972607
0.938856
0.945437
0.982954
0.426783
0.353818
0.45126
0.766892
0.960629
1.01411
0.971046
0.938908
0.945695
0.983127
0.503392
0.392432
0.457813
0.754807
0.956268
1.0107
0.969389
0.938904
0.945767
0.983248
0.624772
0.454166
0.474675
0.748754
0.955193
1.00608
0.967426
0.938768
0.945821
0.983373
0.665957
0.495257
0.49027
0.735158
0.948455
0.999409
0.963787
0.938404
0.945888
0.983532
0.651267
0.53908
0.502101
0.735766
0.947167
0.99316
0.963478
0.938163
0.945955
0.98368
0.600845
0.52416
0.499095
0.736628
0.944798
0.988853
0.961201
0.937215
0.945501
0.983828
1.49533
0.546063
0.485835
0.725766
0.937489
0.98415
0.958315
0.937281
0.946162
0.984082
2.26258
0.736887
0.495327
0.710926
0.926596
0.978253
0.955164
0.936579
0.946289
0.984341
2.8165
0.926195
0.518202
0.704459
0.916256
0.972987
0.952071
0.935821
0.946423
0.984637
3.23816
1.15862
0.546778
0.703728
0.909554
0.966647
0.94872
0.935042
0.946538
0.984985
3.54888
1.32627
0.564014
0.701601
0.90471
0.958062
0.944486
0.93405
0.946754
0.985395
3.58202
1.40563
0.575575
0.700017
0.899621
0.949172
0.939488
0.933002
0.947123
0.98585
3.52726
1.43561
0.587319
0.703141
0.896348
0.944503
0.936371
0.932177
0.947515
0.986334
3.41275
1.44505
0.603009
0.708968
0.896653
0.943729
0.93494
0.931517
0.947844
0.986845
3.24372
1.44102
0.618786
0.709141
0.896792
0.945536
0.934546
0.930677
0.948032
0.987384
3.07756
1.45166
0.633453
0.704817
0.893392
0.9478
0.9336
0.929081
0.947945
0.987952
2.98997
1.48029
0.652762
0.693373
0.880038
0.944881
0.931863
0.926594
0.94756
0.988606
2.97405
1.52607
0.689417
0.667649
0.850971
0.933644
0.927906
0.923124
0.947221
0.989433
2.9885
1.58131
0.730146
0.658291
0.79668
0.909112
0.9193
0.919216
0.947758
0.990488
3.01643
1.63381
0.775864
0.658747
0.743791
0.865027
0.904491
0.916771
0.949863
0.991727
3.06127
1.68245
0.823498
0.671815
0.728942
0.82043
0.884942
0.915755
0.953229
0.993031
3.11203
1.73281
0.866393
0.695084
0.728983
0.800604
0.875117
0.916444
0.957012
0.994249
3.16172
1.77951
0.905169
0.72406
0.73568
0.794715
0.870533
0.918522
0.960678
0.995309
3.20636
1.82403
0.939788
0.752407
0.750816
0.796489
0.869243
0.921366
0.963989
0.996219
3.24653
1.8718
0.971079
0.775971
0.768968
0.80378
0.870528
0.924208
0.967015
0.997024
3.27502
1.91586
1.00005
0.797415
0.787121
0.813416
0.871615
0.92674
0.96981
0.997755
10.2795
10.3428
9.8348
9.34086
8.89142
8.57031
8.0827
7.57101
7.19613
6.89841
9.00012
9.36846
8.86678
8.5555
8.21577
7.94345
7.62534
7.29388
6.99918
6.65272
8.2698
9.12277
8.64546
8.41021
8.10343
7.82222
7.52966
7.18582
6.91334
6.52252
7.03101
8.52999
8.30903
8.12238
7.89179
7.63887
7.34051
6.97437
6.70426
6.22024
5.27906
7.55058
8.00793
7.92839
7.74771
7.5068
7.21027
6.83194
6.49068
5.87724
4.17399
5.6273
7.43631
7.57788
7.48481
7.31091
7.04133
6.69547
6.25024
5.57311
3.88017
4.18164
5.9607
7.00395
7.06216
6.96656
6.72925
6.46812
5.9943
5.29745
3.81107
3.86956
4.53671
5.9739
6.39759
6.43417
6.26677
6.06231
5.63029
4.96692
3.76038
3.79192
4.02034
5.01092
5.59417
5.75232
5.67798
5.50929
5.17085
4.57198
3.69961
3.72561
3.86375
4.56331
5.06625
5.18468
5.14297
4.98412
4.74702
4.24065
3.63065
3.65634
3.76784
4.3676
4.86388
4.89529
4.80913
4.63008
4.43741
4.04957
3.57258
3.59964
3.69278
4.21576
4.76451
4.79007
4.7138
4.52232
4.29717
3.98003
3.51469
3.54301
3.62137
4.06784
4.71962
4.76622
4.68081
4.48437
4.242
3.95218
3.44681
3.47026
3.53792
3.91626
4.65458
4.74481
4.66035
4.46783
4.22262
3.94588
3.38384
3.39529
3.44685
3.7532
4.56159
4.7252
4.64942
4.47444
4.21933
3.95629
3.3456
3.34836
3.3784
3.59979
4.43459
4.69201
4.62877
4.47437
4.22802
3.97401
3.30609
3.30759
3.32689
3.47574
4.2579
4.65309
4.61587
4.47968
4.24323
3.99779
3.26483
3.26581
3.28605
3.39125
4.03254
4.59939
4.60343
4.48021
4.25742
4.02471
3.22887
3.23156
3.2528
3.33007
3.78942
4.50163
4.58662
4.47122
4.2722
4.04179
3.18913
3.19409
3.21496
3.2694
3.54531
4.28999
4.53544
4.44716
4.27399
4.05057
1
1
1
1.00019
1.00843
1.20596
2.38143
3.20452
3.28448
4.22593
1
1
1
1.00019
1.00843
1.20598
2.38179
3.20445
3.28292
4.12369
1
1
1
1.00019
1.00843
1.20603
2.38202
3.2041
3.28047
4.0206
1
1
1
1.00019
1.00843
1.20611
2.38204
3.20459
3.27695
3.86066
1
1
1
1.00019
1.00842
1.20616
2.38218
3.20505
3.27294
3.75646
1
1
1
1.00019
1.00842
1.2062
2.38241
3.20541
3.26853
3.68628
1
1
1
1.00019
1.00842
1.20623
2.38204
3.20572
3.26378
3.64046
1
1
1
1.00019
1.00842
1.20627
2.38157
3.2064
3.25947
3.60196
1
1
1
1.00019
1.00842
1.20631
2.38096
3.20723
3.25631
3.56855
1
1
1
1.00019
1.00842
1.20633
2.38062
3.20806
3.25482
3.53654
1
1
1
1.00019
1.00842
1.20633
2.38046
3.20856
3.25493
3.49692
1
1
1
1.00019
1.00842
1.20632
2.38053
3.20888
3.2555
3.45189
1
1
1
1.00019
1.00842
1.2063
2.38063
3.209
3.25631
3.41316
1
1
1
1.00019
1.00842
1.20628
2.38084
3.20898
3.25754
3.37714
1
1
1
1.00019
1.00842
1.20624
2.38105
3.20883
3.25903
3.3586
1
1
1
1.00019
1.00842
1.20622
2.38107
3.20876
3.26096
3.32912
1
1
1
1.00019
1.00842
1.20622
2.38103
3.2087
3.26276
3.29742
1
1
1
1.00019
1.00842
1.20623
2.38086
3.20864
3.2655
3.26474
1
1
1
1.00019
1.00842
1.20625
2.38047
3.2087
3.26884
3.23364
1
1
1
1.00019
1.00842
1.20629
2.38
3.2087
3.27262
3.19811
1
1
1
1.00019
1.00842
1.20629
2.38
3.2087
3.27262
3.19811
1
1
1
1.00019
1.00842
1.20625
2.38047
3.2087
3.26884
3.23364
1
1
1
1.00019
1.00842
1.20623
2.38086
3.20864
3.2655
3.26474
1
1
1
1.00019
1.00842
1.20622
2.38103
3.2087
3.26276
3.29742
1
1
1
1.00019
1.00842
1.20622
2.38107
3.20876
3.26096
3.32912
1
1
1
1.00019
1.00842
1.20624
2.38105
3.20883
3.25902
3.3586
1
1
1
1.00019
1.00842
1.20628
2.38084
3.20898
3.25754
3.37714
1
1
1
1.00019
1.00842
1.2063
2.38063
3.209
3.25631
3.41316
1
1
1
1.00019
1.00842
1.20632
2.38053
3.20888
3.2555
3.4519
1
1
1
1.00019
1.00842
1.20633
2.38046
3.20856
3.25493
3.49692
1
1
1
1.00019
1.00842
1.20633
2.38062
3.20806
3.25482
3.53654
1
1
1
1.00019
1.00842
1.20631
2.38096
3.20723
3.25631
3.56855
1
1
1
1.00019
1.00842
1.20627
2.38157
3.2064
3.25947
3.60196
1
1
1
1.00019
1.00842
1.20623
2.38204
3.20572
3.26378
3.64046
1
1
1
1.00019
1.00842
1.2062
2.38241
3.20541
3.26853
3.68628
1
1
1
1.00019
1.00842
1.20616
2.38218
3.20505
3.27294
3.75645
1
1
1
1.00019
1.00843
1.20611
2.38204
3.20459
3.27695
3.86066
1
1
1
1.00019
1.00843
1.20603
2.38202
3.2041
3.28047
4.0206
1
1
1
1.00019
1.00843
1.20598
2.38179
3.20445
3.28292
4.12369
1
1
1
1.00019
1.00843
1.20596
2.38143
3.20452
3.28448
4.22593
3.18913
3.19409
3.21496
3.2694
3.54531
4.28998
4.53544
4.44716
4.274
4.05057
3.22888
3.23156
3.2528
3.33007
3.78941
4.50163
4.58661
4.47122
4.2722
4.04179
3.26483
3.26582
3.28605
3.39125
4.03253
4.59938
4.60342
4.48021
4.25742
4.02471
3.3061
3.30759
3.32689
3.47574
4.25789
4.65308
4.61586
4.47968
4.24323
3.99779
3.3456
3.34836
3.3784
3.59979
4.43459
4.692
4.62877
4.47437
4.22802
3.97401
3.38384
3.39529
3.44686
3.7532
4.56159
4.72519
4.64942
4.47443
4.21933
3.95629
3.44681
3.47026
3.53793
3.91627
4.65458
4.74481
4.66035
4.46782
4.22261
3.94588
3.51469
3.54302
3.62137
4.06784
4.71962
4.76622
4.68081
4.48436
4.242
3.95218
3.57258
3.59964
3.69278
4.21576
4.76451
4.79006
4.7138
4.52232
4.29717
3.98003
3.63065
3.65634
3.76784
4.3676
4.86388
4.89529
4.80913
4.63008
4.4374
4.04957
3.69961
3.72561
3.86375
4.56332
5.06625
5.18467
5.14297
4.98411
4.74702
4.24065
3.76038
3.79192
4.02034
5.01092
5.59417
5.75232
5.67798
5.50929
5.17084
4.57198
3.81107
3.86956
4.53671
5.97391
6.39759
6.43418
6.26677
6.06231
5.63028
4.96692
3.88017
4.18164
5.9607
7.00396
7.06216
6.96656
6.72925
6.46812
5.9943
5.29744
4.17399
5.6273
7.43631
7.57788
7.48481
7.31091
7.04133
6.69547
6.25024
5.57311
5.27906
7.55058
8.00793
7.92839
7.74771
7.5068
7.21028
6.83194
6.49068
5.87724
7.031
8.52999
8.30903
8.12238
7.89179
7.63887
7.34051
6.97437
6.70426
6.22025
8.2698
9.12277
8.64546
8.41021
8.10343
7.82222
7.52966
7.18583
6.91335
6.52252
9.00012
9.36845
8.86677
8.55549
8.21577
7.94345
7.62534
7.29388
6.99918
6.65273
10.2794
10.3428
9.8348
9.34086
8.89142
8.57031
8.0827
7.57101
7.19613
6.89841
3.27502
1.91586
1.00005
0.797415
0.787122
0.813416
0.871615
0.92674
0.96981
0.997755
3.24653
1.87181
0.971079
0.775971
0.768968
0.80378
0.870528
0.924208
0.967015
0.997024
3.20636
1.82403
0.939788
0.752407
0.750817
0.796489
0.869243
0.921366
0.963989
0.996219
3.16172
1.77951
0.905169
0.72406
0.73568
0.794715
0.870533
0.918522
0.960678
0.995309
3.11203
1.73281
0.866392
0.695083
0.728983
0.800604
0.875117
0.916444
0.957012
0.994249
3.06127
1.68245
0.823497
0.671815
0.728942
0.82043
0.884942
0.915755
0.953229
0.993031
3.01643
1.63381
0.775864
0.658747
0.743791
0.865028
0.904491
0.916771
0.949863
0.991727
2.98851
1.58131
0.730145
0.658291
0.79668
0.909112
0.9193
0.919216
0.947758
0.990488
2.97406
1.52607
0.689416
0.667649
0.850972
0.933644
0.927906
0.923124
0.947221
0.989433
2.98997
1.48029
0.652761
0.693373
0.880038
0.944881
0.931863
0.926594
0.94756
0.988606
3.07756
1.45166
0.633453
0.704817
0.893392
0.9478
0.9336
0.929081
0.947945
0.987952
3.24371
1.44102
0.618786
0.709141
0.896792
0.945536
0.934546
0.930677
0.948032
0.987384
3.41275
1.44505
0.603008
0.708968
0.896653
0.943729
0.93494
0.931517
0.947844
0.986845
3.52725
1.43561
0.587319
0.703141
0.896348
0.944503
0.936371
0.932177
0.947515
0.986334
3.58201
1.40562
0.575575
0.700017
0.899621
0.949173
0.939488
0.933002
0.947123
0.98585
3.54888
1.32627
0.564013
0.701601
0.90471
0.958062
0.944486
0.93405
0.946754
0.985395
3.23817
1.15862
0.546778
0.703728
0.909554
0.966647
0.94872
0.935042
0.946538
0.984985
2.8165
0.926195
0.518202
0.704459
0.916256
0.972987
0.952071
0.935821
0.946423
0.984637
2.26258
0.736887
0.495327
0.710926
0.926597
0.978253
0.955164
0.936579
0.946289
0.984341
1.49533
0.546063
0.485835
0.725766
0.937489
0.98415
0.958315
0.937281
0.946162
0.984082
2.76243
1.93196
1.10989
0.974476
0.984955
0.998076
0.999964
1
1
1.00206
2.76243
1.93196
1.10989
0.974476
0.984955
0.998076
0.999964
1
1
1.00206
2.76243
1.93196
1.10989
0.974476
0.984955
0.998076
0.999964
1
1
1.00206
2.76243
1.93196
1.10989
0.974477
0.984955
0.998076
0.999964
1
1
1.00206
2.76243
1.93182
1.10989
0.97456
0.985037
0.998097
0.999966
1
1
1.00206
2.7621
1.93074
1.11088
0.978411
0.988681
0.999492
1.00014
1.00001
1
1.00206
2.75934
1.92942
1.12769
1.01042
1.01759
1.01485
1.00344
1.00013
1
1.00206
2.75347
1.93591
1.18948
1.081
1.07834
1.05588
1.01728
1.0013
1.00002
1.00206
2.7506
2.00923
1.27012
1.13786
1.12439
1.09118
1.0397
1.00582
1.00015
1.00208
2.76002
2.123
1.32166
1.15849
1.13754
1.1033
1.0561
1.01353
1.00073
1.00214
2.843
2.22987
1.34023
1.15729
1.13167
1.10178
1.06098
1.02084
1.00205
1.00221
2.97558
2.31564
1.34352
1.13548
1.09365
1.0775
1.05904
1.02479
1.0039
1.00231
3.13762
2.37481
1.33292
1.08945
1.03932
1.03254
1.03733
1.02524
1.00559
1.00246
3.34926
2.39802
1.29532
1.04765
0.997879
0.99536
1.00883
1.01591
1.00634
1.00263
3.53542
2.38255
1.25367
1.01114
0.966218
0.967993
0.984161
1.00084
1.00377
1.00274
3.62828
2.34152
1.21535
0.976132
0.937672
0.94276
0.961638
0.985868
0.998851
1.00235
3.63606
2.28192
1.17544
0.938882
0.908458
0.917924
0.941586
0.972214
0.993634
1.00181
3.56264
2.20547
1.13443
0.901267
0.878158
0.891017
0.920441
0.957996
0.987504
1.00104
3.42799
2.10227
1.09121
0.862934
0.845928
0.862499
0.900076
0.944904
0.980972
1.00003
3.31856
1.98922
1.04037
0.8262
0.81384
0.835061
0.882834
0.933417
0.974365
0.998778
3.31857
1.98922
1.04037
0.8262
0.81384
0.835061
0.882834
0.933417
0.974365
0.998778
3.428
2.10227
1.09121
0.862934
0.845928
0.862499
0.900076
0.944904
0.980972
1.00003
3.56264
2.20547
1.13443
0.901267
0.878158
0.891017
0.920441
0.957996
0.987504
1.00104
3.63606
2.28191
1.17544
0.938882
0.908458
0.917924
0.941586
0.972214
0.993634
1.00181
3.62827
2.34152
1.21535
0.976132
0.937672
0.94276
0.961638
0.985868
0.998851
1.00235
3.53541
2.38255
1.25367
1.01114
0.966218
0.967993
0.984161
1.00084
1.00377
1.00274
3.34926
2.39802
1.29532
1.04765
0.997879
0.99536
1.00883
1.01591
1.00634
1.00263
3.13762
2.37481
1.33292
1.08945
1.03932
1.03254
1.03733
1.02524
1.00559
1.00246
2.97558
2.31564
1.34352
1.13548
1.09365
1.0775
1.05904
1.02479
1.0039
1.00231
2.84299
2.22987
1.34023
1.15729
1.13167
1.10178
1.06098
1.02084
1.00205
1.00221
2.76002
2.123
1.32166
1.15849
1.13754
1.1033
1.0561
1.01353
1.00073
1.00214
2.7506
2.00923
1.27012
1.13786
1.12439
1.09118
1.0397
1.00582
1.00015
1.00208
2.75346
1.93591
1.18948
1.081
1.07834
1.05588
1.01728
1.0013
1.00002
1.00206
2.75934
1.92943
1.12769
1.01041
1.01759
1.01485
1.00344
1.00013
1
1.00206
2.7621
1.93074
1.11088
0.97841
0.98868
0.999492
1.00014
1.00001
1
1.00206
2.76243
1.93182
1.1099
0.97456
0.985036
0.998097
0.999966
1
1
1.00206
2.76244
1.93196
1.1099
0.974477
0.984955
0.998076
0.999964
1
1
1.00206
2.76244
1.93196
1.1099
0.974477
0.984954
0.998076
0.999964
1
1
1.00206
2.76244
1.93196
1.1099
0.974476
0.984954
0.998076
0.999964
1
1
1.00206
2.76244
1.93196
1.1099
0.974476
0.984954
0.998076
0.999964
1
1
1.00206
3.13012
3.13366
3.14542
3.17633
3.29334
3.7916
4.36899
4.42571
4.27887
4.04592
3.12333
3.11508
3.11286
3.11544
3.14069
3.30462
3.84146
4.30155
4.28361
4.08878
3.14022
3.12777
3.11722
3.11223
3.11451
3.14566
3.35232
3.91365
4.21177
4.14338
3.17248
3.16149
3.14561
3.13723
3.13259
3.13231
3.16798
3.4225
3.9614
4.08281
3.20485
3.19715
3.18538
3.17629
3.17075
3.1594
3.13137
3.17792
3.49948
3.89552
3.21644
3.20936
3.20052
3.19327
3.18957
3.17945
3.15159
3.09709
3.15829
3.53357
3.21843
3.21148
3.20244
3.1964
3.19164
3.18279
3.15423
3.11066
3.04468
3.17841
3.21914
3.21218
3.20303
3.19689
3.19159
3.18295
3.15401
3.10973
3.05491
3.00323
3.21952
3.21245
3.20334
3.19684
3.19175
3.18233
3.15409
3.10848
3.0582
2.98932
3.21959
3.21247
3.20344
3.19672
3.19188
3.18168
3.15453
3.10678
3.06033
2.99554
3.21962
3.21247
3.20342
3.19665
3.19186
3.18142
3.15458
3.10678
3.05785
3.00349
3.21959
3.21245
3.20334
3.19667
3.19171
3.18149
3.15419
3.1075
3.0558
3.00479
3.21957
3.21243
3.20327
3.19667
3.19161
3.18155
3.15395
3.10779
3.0555
3.00488
3.21957
3.21243
3.20326
3.19666
3.19159
3.18156
3.15391
3.10782
3.05558
3.00459
3.21957
3.21242
3.20325
3.19666
3.19159
3.18155
3.15392
3.10777
3.05572
3.00437
3.21956
3.21242
3.20325
3.19665
3.19159
3.18154
3.15394
3.10775
3.05577
3.00434
3.21956
3.21242
3.20325
3.19665
3.19159
3.18154
3.15394
3.10774
3.05577
3.00434
3.21956
3.21242
3.20325
3.19665
3.19159
3.18154
3.15394
3.10775
3.05577
3.00434
3.21956
3.21242
3.20325
3.19665
3.19159
3.18155
3.15395
3.10775
3.05577
3.00434
3.21956
3.21242
3.20325
3.19665
3.19159
3.18155
3.15395
3.10775
3.05577
3.00434
1
1
1
1.00019
1.00842
1.20633
2.37981
3.20833
3.27748
3.178
1
1
1
1.00019
1.00842
1.20634
2.37988
3.20779
3.28137
3.18249
1
1
1
1.00019
1.00842
1.20633
2.38006
3.20732
3.28209
3.19392
1
1
1
1.00019
1.00842
1.20632
2.3803
3.20683
3.28212
3.21704
1
1
1
1.00019
1.00842
1.2063
2.38056
3.20634
3.28179
3.23693
1
1
1
1.00019
1.00842
1.20628
2.38081
3.2059
3.28185
3.24379
1
1
1
1.00019
1.00842
1.20626
2.38106
3.20547
3.28223
3.2452
1
1
1
1.00019
1.00842
1.20625
2.38125
3.20516
3.28276
3.2458
1
1
1
1.00019
1.00842
1.20624
2.38132
3.20504
3.28317
3.2461
1
1
1
1.00019
1.00842
1.20624
2.38133
3.20502
3.28327
3.24617
1
1
1
1.00019
1.00842
1.20624
2.38133
3.20502
3.28328
3.24618
1
1
1
1.00019
1.00842
1.20624
2.38133
3.20502
3.28328
3.24619
1
1
1
1.00019
1.00842
1.20624
2.38133
3.20502
3.28328
3.24621
1
1
1
1.00019
1.00842
1.20624
2.38133
3.20502
3.28328
3.24622
1
1
1
1.00019
1.00842
1.20624
2.38133
3.20502
3.28328
3.24622
1
1
1
1.00019
1.00842
1.20624
2.38133
3.20502
3.28328
3.24622
1
1
1
1.00019
1.00842
1.20624
2.38133
3.20502
3.28328
3.24622
1
1
1
1.00019
1.00842
1.20624
2.38133
3.20502
3.28328
3.24622
1
1
1
1.00019
1.00842
1.20624
2.38133
3.20502
3.28328
3.24622
1
1
1
1.00019
1.00842
1.20624
2.38133
3.20502
3.28328
3.24622
1
1
1
1.00019
1.00842
1.20624
2.38133
3.20502
3.28328
3.24622
1
1
1
1.00019
1.00842
1.20624
2.38133
3.20502
3.28328
3.24622
1
1
1
1.00019
1.00842
1.20624
2.38133
3.20502
3.28328
3.24622
1
1
1
1.00019
1.00842
1.20624
2.38133
3.20502
3.28328
3.24622
1
1
1
1.00019
1.00842
1.20624
2.38133
3.20502
3.28328
3.24622
1
1
1
1.00019
1.00842
1.20624
2.38133
3.20502
3.28328
3.24622
1
1
1
1.00019
1.00842
1.20624
2.38133
3.20502
3.28328
3.24622
1
1
1
1.00019
1.00842
1.20624
2.38133
3.20502
3.28328
3.24621
1
1
1
1.00019
1.00842
1.20624
2.38133
3.20502
3.28328
3.24619
1
1
1
1.00019
1.00842
1.20624
2.38133
3.20502
3.28328
3.24618
1
1
1
1.00019
1.00842
1.20624
2.38133
3.20502
3.28327
3.24616
1
1
1
1.00019
1.00842
1.20624
2.38132
3.20504
3.28317
3.2461
1
1
1
1.00019
1.00842
1.20625
2.38125
3.20516
3.28276
3.2458
1
1
1
1.00019
1.00842
1.20626
2.38106
3.20547
3.28223
3.2452
1
1
1
1.00019
1.00842
1.20628
2.38081
3.2059
3.28185
3.24379
1
1
1
1.00019
1.00842
1.2063
2.38056
3.20634
3.28179
3.23693
1
1
1
1.00019
1.00842
1.20632
2.3803
3.20683
3.28212
3.21704
1
1
1
1.00019
1.00842
1.20633
2.38006
3.20732
3.28209
3.19392
1
1
1
1.00019
1.00842
1.20634
2.37988
3.20779
3.28137
3.18249
1
1
1
1.00019
1.00842
1.20633
2.37981
3.20833
3.27748
3.178
3.21957
3.21243
3.20327
3.19666
3.1916
3.18155
3.15394
3.10773
3.05575
3.00433
3.21957
3.21243
3.20326
3.19666
3.1916
3.18155
3.15394
3.10773
3.05575
3.00433
3.21957
3.21243
3.20326
3.19666
3.1916
3.18155
3.15394
3.10773
3.05576
3.00433
3.21957
3.21243
3.20326
3.19666
3.1916
3.18155
3.15394
3.10774
3.05576
3.00434
3.21957
3.21243
3.20326
3.19666
3.19159
3.18155
3.15394
3.10775
3.05577
3.00434
3.21957
3.21243
3.20326
3.19666
3.19159
3.18156
3.15393
3.10778
3.05573
3.00437
3.21957
3.21243
3.20326
3.19666
3.19159
3.18156
3.15392
3.10783
3.05559
3.00459
3.21957
3.21243
3.20327
3.19666
3.19161
3.18155
3.15395
3.1078
3.05551
3.00488
3.21959
3.21244
3.20333
3.19666
3.19171
3.18149
3.1542
3.10751
3.0558
3.0048
3.21961
3.21246
3.20342
3.19664
3.19186
3.18142
3.15459
3.10679
3.05786
3.00349
3.21959
3.21246
3.20343
3.19671
3.19187
3.18168
3.15454
3.1068
3.06034
2.99555
3.21951
3.21244
3.20333
3.19683
3.19174
3.18233
3.15409
3.10849
3.05822
2.98933
3.21914
3.21217
3.20302
3.19688
3.19158
3.18295
3.15401
3.10975
3.05492
3.00324
3.21843
3.21147
3.20243
3.1964
3.19163
3.18278
3.15423
3.11067
3.04469
3.17843
3.21644
3.20935
3.20052
3.19326
3.18957
3.17944
3.1516
3.0971
3.15829
3.53358
3.20485
3.19715
3.18538
3.17628
3.17075
3.1594
3.13137
3.17792
3.49948
3.89552
3.17248
3.16149
3.14561
3.13723
3.13259
3.13231
3.16798
3.42249
3.96139
4.08281
3.14022
3.12777
3.11722
3.11223
3.11451
3.14566
3.35231
3.91364
4.21176
4.14338
3.12333
3.11508
3.11287
3.11544
3.14069
3.30461
3.84145
4.30154
4.28361
4.08877
3.13012
3.13366
3.14543
3.17633
3.29334
3.79159
4.36899
4.42571
4.27887
4.04592
)
;

boundaryField
{
    inlet
    {
        type            fixedValue;
        value           uniform 1;
    }
    outlet
    {
        type            zeroGradient;
    }
    triangle
    {
        type            zeroGradient;
    }
    top
    {
        type            symmetryPlane;
    }
    bottom
    {
        type            symmetryPlane;
    }
    defaultFaces
    {
        type            empty;
    }
}


// ************************************************************************* //
