/*--------------------------------*- C++ -*----------------------------------*\
  =========                 |
  \\      /  F ield         | OpenFOAM: The Open Source CFD Toolbox
   \\    /   O peration     | Website:  https://openfoam.org
    \\  /    A nd           | Version:  7
     \\/     M anipulation  |
\*---------------------------------------------------------------------------*/
FoamFile
{
    version     2.0;
    format      ascii;
    class       volScalarField;
    location    "0.3";
    object      rho;
}
// * * * * * * * * * * * * * * * * * * * * * * * * * * * * * * * * * * * * * //

dimensions      [1 -3 0 0 0 0 0];

internalField   nonuniform List<scalar> 
2600
(
0.72632
0.677681
0.750929
1.04188
1.29495
1.36267
1.35052
1.3349
1.34486
1.3845
0.762484
0.695871
0.735946
1.02077
1.28733
1.36019
1.35105
1.3359
1.34542
1.38446
0.799299
0.66512
0.701374
0.993976
1.27319
1.35772
1.34952
1.33622
1.34546
1.38438
0.821172
0.636932
0.660324
0.977296
1.25774
1.35437
1.35105
1.3366
1.34544
1.38424
0.745409
0.580576
0.630967
0.960365
1.23787
1.35027
1.35105
1.33661
1.34526
1.38407
0.681776
0.548531
0.626095
0.964472
1.23256
1.34902
1.35174
1.33626
1.34488
1.38387
0.677576
0.546693
0.645496
0.983711
1.23939
1.35291
1.35335
1.33562
1.34418
1.38361
0.687093
0.557265
0.681373
1.01593
1.25341
1.3592
1.35463
1.33501
1.34395
1.38351
0.694654
0.572404
0.707598
1.05303
1.2821
1.36783
1.35448
1.33412
1.34366
1.38341
0.699157
0.580294
0.728258
1.07043
1.2929
1.37326
1.35619
1.33454
1.34363
1.38335
0.699157
0.580294
0.728258
1.07043
1.2929
1.37326
1.35619
1.33454
1.34363
1.38335
0.694654
0.572404
0.707598
1.05303
1.2821
1.36783
1.35448
1.33412
1.34366
1.38341
0.687093
0.557265
0.681373
1.01593
1.25341
1.3592
1.35463
1.33501
1.34395
1.38351
0.677576
0.546693
0.645496
0.983711
1.23939
1.35291
1.35335
1.33562
1.34418
1.38361
0.681776
0.548531
0.626095
0.964472
1.23256
1.34902
1.35174
1.33626
1.34488
1.38387
0.745409
0.580576
0.630967
0.960365
1.23787
1.35027
1.35105
1.33661
1.34526
1.38407
0.821172
0.636932
0.660324
0.977296
1.25774
1.35437
1.35105
1.3366
1.34544
1.38424
0.799299
0.66512
0.701374
0.993976
1.27319
1.35772
1.34952
1.33622
1.34546
1.38438
0.762484
0.695871
0.735946
1.02077
1.28733
1.36019
1.35105
1.3359
1.34542
1.38446
0.72632
0.677681
0.750929
1.04188
1.29495
1.36267
1.35052
1.3349
1.34486
1.3845
1.46904
0.713532
0.762103
1.04671
1.29584
1.36397
1.34935
1.33498
1.34534
1.38461
2.20762
0.939154
0.791415
1.04328
1.29214
1.36323
1.34774
1.33431
1.34524
1.38473
2.72634
1.16334
0.826635
1.04749
1.28731
1.36116
1.34596
1.33365
1.3453
1.38493
3.09089
1.41255
0.865051
1.05538
1.28426
1.35659
1.3436
1.33305
1.34543
1.38522
3.32762
1.58758
0.890151
1.05913
1.28146
1.34889
1.34007
1.33228
1.34573
1.38561
3.35449
1.67556
0.907023
1.06119
1.27753
1.34071
1.33559
1.33144
1.34619
1.38605
3.32524
1.71659
0.922773
1.06751
1.27515
1.33691
1.33289
1.33079
1.34664
1.38654
3.2519
1.73818
0.942541
1.07622
1.27673
1.3371
1.33181
1.33026
1.34701
1.38705
3.13186
1.74431
0.962222
1.07859
1.27883
1.3399
1.3317
1.32949
1.34721
1.3876
3.00992
1.76057
0.979849
1.07509
1.2783
1.34284
1.33098
1.32795
1.34714
1.38818
2.94407
1.79064
1.00207
1.06317
1.26785
1.34026
1.32948
1.32551
1.34678
1.38884
2.9315
1.8338
1.04307
1.03823
1.23972
1.32906
1.32578
1.32204
1.34644
1.38968
2.94459
1.88549
1.08856
1.03036
1.18338
1.30406
1.31736
1.31806
1.347
1.39075
2.97464
1.93614
1.1396
1.0317
1.12725
1.25891
1.30226
1.3156
1.34912
1.39201
3.02329
1.98339
1.19196
1.04683
1.11149
1.21255
1.28217
1.31458
1.35253
1.39332
3.07838
2.03103
1.23798
1.07303
1.11184
1.19176
1.27207
1.31532
1.35638
1.39455
3.12879
2.07362
1.27863
1.10514
1.11942
1.1856
1.26738
1.31747
1.36012
1.39562
3.16813
2.11177
1.31445
1.13572
1.1363
1.18762
1.26608
1.3204
1.3635
1.39654
3.1948
2.14966
1.34633
1.16041
1.15661
1.19558
1.26741
1.3233
1.3666
1.39735
3.20659
2.18253
1.37518
1.18267
1.17676
1.20601
1.26848
1.32587
1.36945
1.39808
6.2901
6.37754
6.20585
6.03432
5.87295
5.76339
5.5749
5.38779
5.28005
5.21406
5.82788
6.04623
5.84077
5.73861
5.61814
5.51969
5.39531
5.27822
5.19771
5.10499
5.65073
6.08122
5.87061
5.79198
5.67762
5.56492
5.43519
5.28701
5.19959
5.06336
5.12585
5.88555
5.7905
5.72176
5.63785
5.53899
5.4034
5.22854
5.12311
4.90559
4.20651
5.41013
5.67622
5.65334
5.59119
5.49989
5.36737
5.17836
5.01718
4.70138
3.5758
4.4108
5.37159
5.49207
5.46979
5.4074
5.28573
5.11006
4.88105
4.518
3.40127
3.58966
4.60856
5.1909
5.25472
5.22372
5.112
4.97953
4.73032
4.35199
3.36147
3.40195
3.81562
4.64109
4.90111
4.93242
4.84724
4.74266
4.51373
4.14942
3.33208
3.35558
3.50486
4.10447
4.45183
4.55084
4.51045
4.41979
4.23715
3.90148
3.29494
3.31455
3.40668
3.8397
4.14779
4.22433
4.20119
4.11112
3.97926
3.68918
3.25094
3.26998
3.34488
3.71831
4.02703
4.05243
4.00476
3.90151
3.79019
3.56584
3.21295
3.23273
3.2958
3.62345
3.96236
3.98628
3.94753
3.83949
3.70655
3.52351
3.17549
3.19599
3.24944
3.53121
3.92794
3.96832
3.92646
3.82042
3.67901
3.51265
3.13241
3.1494
3.19537
3.43596
3.87843
3.95281
3.91307
3.81505
3.67686
3.52223
3.09252
3.10043
3.13452
3.33079
3.80977
3.94014
3.9067
3.82529
3.68855
3.54939
3.06505
3.06682
3.08636
3.22996
3.72395
3.92387
3.89935
3.83342
3.70806
3.58142
3.03576
3.03699
3.05043
3.14979
3.6175
3.90715
3.90051
3.84445
3.7261
3.60969
3.00769
3.01043
3.02593
3.09881
3.49456
3.87577
3.89877
3.84819
3.7371
3.63149
2.98844
2.99281
3.00943
3.064
3.36032
3.80905
3.89135
3.83978
3.74179
3.63937
2.96776
2.97232
2.98805
3.02644
3.21113
3.66847
3.86115
3.81892
3.73376
3.63586
1.40001
1.4
1.40001
1.40019
1.40844
1.59462
2.51305
2.99177
3.02835
3.47288
1.40001
1.4
1.40001
1.40019
1.40844
1.59464
2.51319
2.99217
3.02706
3.44609
1.40001
1.4
1.40001
1.40019
1.40844
1.5947
2.513
2.99327
3.02476
3.4369
1.40001
1.4
1.40001
1.40019
1.40844
1.59479
2.51254
2.99555
3.02134
3.37495
1.40001
1.4
1.40001
1.40019
1.40843
1.59485
2.51225
2.99756
3.01738
3.31838
1.40001
1.4
1.40001
1.40019
1.40843
1.59489
2.51223
2.99878
3.01322
3.27456
1.40001
1.4
1.40001
1.40019
1.40843
1.59493
2.51187
2.9994
3.00912
3.24615
1.40001
1.4
1.40001
1.40019
1.40843
1.59497
2.51148
2.99993
3.00571
3.22365
1.40001
1.4
1.40001
1.40019
1.40843
1.595
2.51106
3.00028
3.00347
3.20449
1.40001
1.4
1.40001
1.40019
1.40843
1.59501
2.5109
3.00048
3.00259
3.18537
1.40001
1.4
1.40001
1.40019
1.40843
1.59501
2.51087
3.00049
3.00274
3.1603
1.40001
1.4
1.40001
1.40019
1.40843
1.59499
2.51099
3.00054
3.00298
3.1311
1.40001
1.4
1.40001
1.40019
1.40843
1.59497
2.51112
3.00061
3.00305
3.10595
1.40001
1.4
1.40001
1.40019
1.40843
1.59494
2.51132
3.00066
3.00312
3.08279
1.40001
1.4
1.40001
1.40019
1.40843
1.5949
2.51151
3.00053
3.00356
3.07076
1.40001
1.4
1.40001
1.40019
1.40843
1.59488
2.51155
3.00042
3.00453
3.05091
1.40001
1.4
1.40001
1.40019
1.40843
1.59488
2.51152
3.00038
3.00556
3.02847
1.40001
1.4
1.40001
1.40019
1.40843
1.59489
2.51134
3.00059
3.00709
3.00538
1.40001
1.4
1.40001
1.40019
1.40843
1.59491
2.51095
3.00121
3.00882
2.98493
1.40001
1.4
1.40001
1.40019
1.40843
1.59496
2.51049
3.00176
3.01076
2.96387
1.40001
1.4
1.40001
1.40019
1.40843
1.59496
2.51049
3.00176
3.01076
2.96387
1.40001
1.4
1.40001
1.40019
1.40843
1.59491
2.51095
3.00121
3.00882
2.98493
1.40001
1.4
1.40001
1.40019
1.40843
1.59489
2.51134
3.00059
3.00709
3.00538
1.40001
1.4
1.40001
1.40019
1.40843
1.59488
2.51152
3.00038
3.00556
3.02847
1.40001
1.4
1.40001
1.40019
1.40843
1.59488
2.51155
3.00042
3.00453
3.05091
1.40001
1.4
1.40001
1.40019
1.40843
1.5949
2.51151
3.00053
3.00356
3.07076
1.40001
1.4
1.40001
1.40019
1.40843
1.59494
2.51132
3.00066
3.00312
3.08279
1.40001
1.4
1.40001
1.40019
1.40843
1.59497
2.51112
3.00061
3.00305
3.10595
1.40001
1.4
1.40001
1.40019
1.40843
1.59499
2.51099
3.00054
3.00298
3.1311
1.40001
1.4
1.40001
1.40019
1.40843
1.59501
2.51087
3.00049
3.00274
3.1603
1.40001
1.4
1.40001
1.40019
1.40843
1.59501
2.5109
3.00048
3.00259
3.18537
1.40001
1.4
1.40001
1.40019
1.40843
1.595
2.51106
3.00028
3.00347
3.20449
1.40001
1.4
1.40001
1.40019
1.40843
1.59497
2.51148
2.99993
3.00571
3.22365
1.40001
1.4
1.40001
1.40019
1.40843
1.59493
2.51187
2.9994
3.00912
3.24615
1.40001
1.4
1.40001
1.40019
1.40843
1.59489
2.51223
2.99878
3.01322
3.27456
1.40001
1.4
1.40001
1.40019
1.40843
1.59485
2.51225
2.99756
3.01738
3.31838
1.40001
1.4
1.40001
1.40019
1.40844
1.59479
2.51254
2.99555
3.02134
3.37495
1.40001
1.4
1.40001
1.40019
1.40844
1.5947
2.513
2.99327
3.02476
3.4369
1.40001
1.4
1.40001
1.40019
1.40844
1.59464
2.51319
2.99217
3.02706
3.44609
1.40001
1.4
1.40001
1.40019
1.40844
1.59462
2.51305
2.99177
3.02835
3.47288
2.96776
2.97232
2.98805
3.02644
3.21113
3.66847
3.86115
3.81892
3.73376
3.63586
2.98844
2.99281
3.00943
3.064
3.36032
3.80905
3.89135
3.83978
3.74179
3.63937
3.00769
3.01043
3.02593
3.09881
3.49456
3.87577
3.89877
3.8482
3.7371
3.63149
3.03576
3.03699
3.05043
3.14979
3.6175
3.90715
3.90051
3.84445
3.7261
3.60969
3.06505
3.06682
3.08636
3.22996
3.72395
3.92387
3.89935
3.83342
3.70806
3.58142
3.09252
3.10043
3.13452
3.33079
3.80977
3.94014
3.9067
3.82529
3.68855
3.54939
3.13241
3.1494
3.19537
3.43596
3.87843
3.95281
3.91307
3.81506
3.67686
3.52223
3.17549
3.19599
3.24944
3.53121
3.92794
3.96832
3.92646
3.82042
3.67902
3.51265
3.21295
3.23273
3.2958
3.62345
3.96236
3.98628
3.94753
3.8395
3.70655
3.52351
3.25094
3.26998
3.34488
3.71831
4.02703
4.05243
4.00476
3.90151
3.7902
3.56584
3.29494
3.31455
3.40668
3.8397
4.14779
4.22433
4.20119
4.11112
3.97926
3.68918
3.33208
3.35558
3.50487
4.10447
4.45183
4.55084
4.51045
4.41979
4.23715
3.90148
3.36147
3.40195
3.81562
4.64109
4.9011
4.93242
4.84724
4.74266
4.51373
4.14942
3.40127
3.58966
4.60856
5.1909
5.25472
5.22372
5.112
4.97953
4.73032
4.35199
3.5758
4.41081
5.37159
5.49207
5.46979
5.4074
5.28573
5.11006
4.88105
4.518
4.20651
5.41013
5.67622
5.65334
5.59119
5.49989
5.36737
5.17836
5.01718
4.70138
5.12585
5.88555
5.7905
5.72176
5.63785
5.53899
5.4034
5.22854
5.12311
4.90559
5.65073
6.08122
5.87061
5.79198
5.67762
5.56492
5.43519
5.28701
5.19959
5.06336
5.82788
6.04623
5.84077
5.73861
5.61814
5.51969
5.39531
5.27821
5.19771
5.10499
6.2901
6.37754
6.20585
6.03433
5.87295
5.76339
5.5749
5.38779
5.28004
5.21406
3.20659
2.18253
1.37518
1.18267
1.17676
1.20601
1.26848
1.32587
1.36945
1.39808
3.1948
2.14966
1.34633
1.16041
1.15661
1.19558
1.26741
1.3233
1.3666
1.39735
3.16813
2.11177
1.31445
1.13572
1.1363
1.18762
1.26608
1.3204
1.3635
1.39654
3.12879
2.07362
1.27863
1.10514
1.11942
1.1856
1.26738
1.31747
1.36012
1.39562
3.07838
2.03103
1.23798
1.07303
1.11184
1.19176
1.27207
1.31532
1.35638
1.39455
3.02329
1.98339
1.19196
1.04683
1.11149
1.21255
1.28217
1.31458
1.35253
1.39332
2.97464
1.93614
1.1396
1.0317
1.12725
1.25891
1.30226
1.3156
1.34912
1.39201
2.94459
1.88549
1.08856
1.03036
1.18338
1.30406
1.31736
1.31806
1.347
1.39075
2.9315
1.8338
1.04307
1.03823
1.23972
1.32906
1.32578
1.32204
1.34644
1.38968
2.94407
1.79064
1.00207
1.06317
1.26785
1.34026
1.32948
1.32551
1.34678
1.38884
3.00992
1.76057
0.979849
1.07509
1.2783
1.34284
1.33098
1.32795
1.34714
1.38818
3.13186
1.74431
0.962222
1.07859
1.27883
1.3399
1.3317
1.32949
1.34721
1.3876
3.2519
1.73818
0.942541
1.07622
1.27673
1.3371
1.33181
1.33026
1.34701
1.38705
3.32524
1.71659
0.922773
1.06751
1.27515
1.33691
1.33289
1.33079
1.34664
1.38654
3.35449
1.67556
0.907023
1.06119
1.27753
1.34071
1.33559
1.33144
1.34619
1.38605
3.32762
1.58758
0.890151
1.05913
1.28146
1.34889
1.34007
1.33228
1.34573
1.38561
3.09089
1.41255
0.865051
1.05538
1.28426
1.35659
1.3436
1.33305
1.34543
1.38522
2.72634
1.16334
0.826635
1.04749
1.28731
1.36116
1.34596
1.33365
1.3453
1.38493
2.20762
0.939154
0.791415
1.04328
1.29214
1.36323
1.34774
1.33431
1.34524
1.38473
1.46904
0.713532
0.762103
1.04671
1.29584
1.36397
1.34935
1.33498
1.34534
1.38461
2.80037
2.1869
1.48913
1.37344
1.38479
1.39809
1.39997
1.4
1.40001
1.4023
2.80037
2.1869
1.48913
1.37344
1.38479
1.39809
1.39997
1.4
1.40001
1.4023
2.80037
2.1869
1.48913
1.37344
1.38479
1.39809
1.39997
1.4
1.40001
1.4023
2.80037
2.1869
1.48913
1.37344
1.38479
1.39809
1.39997
1.4
1.40001
1.4023
2.80037
2.18679
1.48912
1.37352
1.38488
1.39811
1.39997
1.4
1.40001
1.4023
2.80013
2.18586
1.49009
1.37738
1.38852
1.3995
1.40014
1.40001
1.40001
1.4023
2.79817
2.18458
1.50646
1.40923
1.4173
1.41476
1.40345
1.40013
1.40001
1.4023
2.79413
2.1889
1.5662
1.47856
1.47708
1.45532
1.41721
1.40131
1.40002
1.4023
2.7925
2.24751
1.64235
1.53358
1.52173
1.48989
1.43941
1.40581
1.40016
1.40232
2.79974
2.33971
1.68958
1.55328
1.53432
1.50162
1.45555
1.41348
1.40074
1.40238
2.85817
2.42613
1.70636
1.55198
1.52856
1.50007
1.46032
1.42073
1.40205
1.40246
2.95003
2.49411
1.70941
1.53075
1.49154
1.47626
1.45837
1.42463
1.40387
1.40257
3.06449
2.53263
1.69873
1.48586
1.43811
1.43195
1.43691
1.42506
1.40554
1.40273
3.20963
2.54604
1.66214
1.4446
1.39674
1.39486
1.40858
1.41579
1.40628
1.40291
3.33472
2.53528
1.62144
1.40788
1.3648
1.36704
1.38388
1.40077
1.40371
1.40302
3.40394
2.50092
1.58326
1.37193
1.33558
1.34124
1.36109
1.38578
1.39879
1.40263
3.41301
2.45617
1.54475
1.33305
1.30536
1.31566
1.34065
1.37205
1.39356
1.4021
3.36689
2.39842
1.50497
1.29319
1.27378
1.28777
1.31896
1.35767
1.38739
1.40135
3.28317
2.3205
1.46326
1.25221
1.23997
1.25804
1.29797
1.34437
1.38079
1.40034
3.22235
2.23632
1.41446
1.21305
1.2058
1.2291
1.2801
1.33267
1.37409
1.3991
3.22235
2.23632
1.41446
1.21305
1.2058
1.2291
1.2801
1.33267
1.37409
1.3991
3.28317
2.3205
1.46326
1.25221
1.23997
1.25804
1.29797
1.34437
1.38079
1.40034
3.36689
2.39842
1.50497
1.29319
1.27378
1.28777
1.31896
1.35767
1.38739
1.40135
3.41301
2.45617
1.54475
1.33305
1.30536
1.31566
1.34065
1.37205
1.39356
1.4021
3.40394
2.50092
1.58326
1.37193
1.33558
1.34124
1.36109
1.38578
1.39879
1.40263
3.33472
2.53528
1.62144
1.40788
1.3648
1.36704
1.38388
1.40077
1.40371
1.40302
3.20963
2.54604
1.66214
1.4446
1.39674
1.39486
1.40858
1.41579
1.40628
1.40291
3.06449
2.53263
1.69873
1.48586
1.43811
1.43195
1.43691
1.42506
1.40554
1.40273
2.95003
2.49411
1.70941
1.53075
1.49154
1.47626
1.45837
1.42463
1.40387
1.40257
2.85817
2.42613
1.70636
1.55198
1.52856
1.50007
1.46032
1.42073
1.40205
1.40246
2.79974
2.33971
1.68958
1.55328
1.53432
1.50162
1.45555
1.41348
1.40074
1.40238
2.7925
2.24751
1.64235
1.53358
1.52173
1.48989
1.43941
1.40581
1.40016
1.40232
2.79413
2.1889
1.5662
1.47856
1.47708
1.45532
1.41721
1.40131
1.40002
1.4023
2.79817
2.18459
1.50646
1.40923
1.4173
1.41476
1.40345
1.40013
1.40001
1.4023
2.80013
2.18586
1.49009
1.37738
1.38852
1.3995
1.40014
1.40001
1.40001
1.4023
2.80037
2.18679
1.48913
1.37352
1.38488
1.39811
1.39997
1.4
1.40001
1.4023
2.80037
2.1869
1.48913
1.37344
1.38479
1.39809
1.39997
1.4
1.40001
1.4023
2.80037
2.1869
1.48913
1.37344
1.38479
1.39809
1.39997
1.4
1.40001
1.4023
2.80037
2.1869
1.48913
1.37344
1.38479
1.39809
1.39997
1.4
1.40001
1.4023
2.80037
2.1869
1.48913
1.37344
1.38479
1.39809
1.39997
1.4
1.40001
1.4023
2.92709
2.93124
2.94115
2.96458
3.04642
3.36825
3.73811
3.79729
3.72739
3.6201
2.92333
2.91926
2.92019
2.92534
2.94538
3.05897
3.40136
3.71481
3.72309
3.63528
2.93529
2.92851
2.92317
2.92323
2.9288
2.9539
3.09634
3.45207
3.6867
3.66437
2.95671
2.95103
2.94232
2.93952
2.94006
2.94696
2.97643
3.14943
3.50548
3.62768
2.97812
2.97464
2.96891
2.96561
2.96556
2.96292
2.95479
2.99177
3.2037
3.51135
2.98581
2.98276
2.97902
2.97705
2.97828
2.97628
2.9647
2.94141
2.98847
3.26917
2.98714
2.98417
2.98026
2.97918
2.97972
2.97857
2.9663
2.94644
2.9177
3.02307
2.9876
2.98463
2.98066
2.97951
2.97971
2.97867
2.96613
2.94565
2.91983
2.90472
2.98785
2.9848
2.98088
2.97947
2.9798
2.9783
2.96622
2.94469
2.9222
2.89208
2.9879
2.98482
2.98096
2.97938
2.97986
2.9779
2.96652
2.94346
2.92376
2.89678
2.98792
2.98482
2.98095
2.97933
2.97985
2.97774
2.96655
2.94347
2.92204
2.90203
2.9879
2.9848
2.98089
2.97934
2.97975
2.97777
2.96628
2.94399
2.92056
2.90279
2.98789
2.9848
2.98084
2.97935
2.97969
2.9778
2.96612
2.9442
2.92034
2.90286
2.98789
2.98479
2.98083
2.97935
2.97968
2.97781
2.9661
2.94422
2.92039
2.90269
2.98789
2.98479
2.98083
2.97934
2.97968
2.97781
2.9661
2.94418
2.92049
2.90256
2.98789
2.98479
2.98083
2.97934
2.97968
2.9778
2.96611
2.94416
2.92052
2.90254
2.98789
2.98479
2.98083
2.97934
2.97968
2.9778
2.96612
2.94416
2.92053
2.90254
2.98789
2.98479
2.98083
2.97934
2.97968
2.9778
2.96612
2.94416
2.92053
2.90254
2.98789
2.98479
2.98083
2.97934
2.97968
2.9778
2.96612
2.94416
2.92053
2.90254
2.98788
2.98479
2.98083
2.97934
2.97968
2.9778
2.96612
2.94416
2.92053
2.90254
1.40001
1.4
1.40001
1.40019
1.40843
1.59499
2.51029
3.00181
3.01368
2.95338
1.40001
1.4
1.40001
1.40019
1.40843
1.595
2.51031
3.00151
3.01619
2.95753
1.40001
1.4
1.40001
1.40019
1.40843
1.595
2.51043
3.00118
3.01666
2.96566
1.40001
1.4
1.40001
1.40019
1.40843
1.59499
2.5106
3.00088
3.01664
2.98084
1.40001
1.4
1.40001
1.40019
1.40843
1.59498
2.51077
3.00065
3.01637
2.9939
1.40001
1.4
1.40001
1.40019
1.40843
1.59496
2.51093
3.00045
3.01634
2.9984
1.40001
1.4
1.40001
1.40019
1.40843
1.59494
2.5111
3.0002
3.01654
2.99931
1.40001
1.4
1.40001
1.40019
1.40843
1.59493
2.51124
3
3.01689
2.99971
1.40001
1.4
1.40001
1.40019
1.40843
1.59492
2.5113
2.99991
3.01717
2.99991
1.40001
1.4
1.40001
1.40019
1.40843
1.59492
2.5113
2.99989
3.01724
2.99995
1.40001
1.4
1.40001
1.40019
1.40843
1.59492
2.5113
2.99989
3.01724
2.99996
1.40001
1.4
1.40001
1.40019
1.40843
1.59492
2.5113
2.99989
3.01724
2.99997
1.40001
1.4
1.40001
1.40019
1.40843
1.59492
2.5113
2.99989
3.01724
2.99998
1.40001
1.4
1.40001
1.40019
1.40843
1.59492
2.5113
2.99989
3.01724
2.99999
1.40001
1.4
1.40001
1.40019
1.40843
1.59492
2.5113
2.99989
3.01724
2.99999
1.40001
1.4
1.40001
1.40019
1.40843
1.59492
2.5113
2.99989
3.01724
2.99999
1.40001
1.4
1.40001
1.40019
1.40843
1.59492
2.5113
2.99989
3.01724
2.99999
1.40001
1.4
1.40001
1.40019
1.40843
1.59492
2.5113
2.99989
3.01724
2.99999
1.40001
1.4
1.40001
1.40019
1.40843
1.59492
2.5113
2.99989
3.01724
2.99999
1.40001
1.4
1.40001
1.40019
1.40843
1.59492
2.5113
2.99989
3.01724
2.99999
1.40001
1.4
1.40001
1.40019
1.40843
1.59492
2.5113
2.99989
3.01724
2.99999
1.40001
1.4
1.40001
1.40019
1.40843
1.59492
2.5113
2.99989
3.01724
2.99999
1.40001
1.4
1.40001
1.40019
1.40843
1.59492
2.5113
2.99989
3.01724
2.99999
1.40001
1.4
1.40001
1.40019
1.40843
1.59492
2.5113
2.99989
3.01724
2.99999
1.40001
1.4
1.40001
1.40019
1.40843
1.59492
2.5113
2.99989
3.01724
2.99999
1.40001
1.4
1.40001
1.40019
1.40843
1.59492
2.5113
2.99989
3.01724
2.99999
1.40001
1.4
1.40001
1.40019
1.40843
1.59492
2.5113
2.99989
3.01724
2.99999
1.40001
1.4
1.40001
1.40019
1.40843
1.59492
2.5113
2.99989
3.01724
2.99998
1.40001
1.4
1.40001
1.40019
1.40843
1.59492
2.5113
2.99989
3.01724
2.99997
1.40001
1.4
1.40001
1.40019
1.40843
1.59492
2.5113
2.99989
3.01724
2.99996
1.40001
1.4
1.40001
1.40019
1.40843
1.59492
2.5113
2.99989
3.01724
2.99995
1.40001
1.4
1.40001
1.40019
1.40843
1.59492
2.5113
2.99991
3.01717
2.99991
1.40001
1.4
1.40001
1.40019
1.40843
1.59493
2.51124
3
3.01689
2.99971
1.40001
1.4
1.40001
1.40019
1.40843
1.59494
2.5111
3.0002
3.01654
2.99931
1.40001
1.4
1.40001
1.40019
1.40843
1.59496
2.51093
3.00045
3.01634
2.9984
1.40001
1.4
1.40001
1.40019
1.40843
1.59498
2.51077
3.00065
3.01637
2.9939
1.40001
1.4
1.40001
1.40019
1.40843
1.59499
2.5106
3.00088
3.01664
2.98084
1.40001
1.4
1.40001
1.40019
1.40843
1.595
2.51043
3.00118
3.01666
2.96566
1.40001
1.4
1.40001
1.40019
1.40843
1.595
2.51031
3.00151
3.01619
2.95753
1.40001
1.4
1.40001
1.40019
1.40843
1.59499
2.51029
3.00181
3.01368
2.95338
2.98789
2.98479
2.98083
2.97934
2.97968
2.9778
2.96612
2.94416
2.92053
2.90254
2.98789
2.98479
2.98083
2.97934
2.97968
2.9778
2.96612
2.94416
2.92053
2.90254
2.98789
2.98479
2.98083
2.97934
2.97968
2.9778
2.96612
2.94416
2.92053
2.90254
2.98789
2.98479
2.98083
2.97934
2.97968
2.9778
2.96612
2.94416
2.92053
2.90254
2.98789
2.98479
2.98083
2.97934
2.97968
2.9778
2.96611
2.94416
2.92052
2.90254
2.98789
2.98479
2.98083
2.97935
2.97968
2.97781
2.9661
2.94419
2.92049
2.90256
2.98789
2.98479
2.98083
2.97935
2.97968
2.97781
2.9661
2.94422
2.92039
2.90269
2.98789
2.9848
2.98084
2.97935
2.97969
2.9778
2.96612
2.9442
2.92034
2.90286
2.9879
2.9848
2.98089
2.97934
2.97975
2.97777
2.96628
2.94399
2.92056
2.90279
2.98792
2.98482
2.98095
2.97933
2.97985
2.97774
2.96655
2.94347
2.92204
2.90203
2.9879
2.98482
2.98096
2.97938
2.97986
2.9779
2.96652
2.94346
2.92376
2.89678
2.98785
2.9848
2.98088
2.97947
2.9798
2.9783
2.96621
2.94469
2.9222
2.89208
2.9876
2.98463
2.98066
2.97951
2.97971
2.97867
2.96613
2.94565
2.91984
2.90473
2.98713
2.98417
2.98026
2.97918
2.97972
2.97857
2.96629
2.94644
2.9177
3.02307
2.98581
2.98275
2.97902
2.97704
2.97828
2.97628
2.9647
2.94141
2.98847
3.26917
2.97812
2.97464
2.96891
2.96561
2.96556
2.96292
2.95479
2.99177
3.2037
3.51135
2.95671
2.95103
2.94232
2.93952
2.94006
2.94696
2.97643
3.14943
3.50549
3.62768
2.93529
2.92851
2.92316
2.92323
2.9288
2.9539
3.09634
3.45207
3.6867
3.66437
2.92333
2.91926
2.92019
2.92534
2.94538
3.05897
3.40136
3.71481
3.72309
3.63528
2.92708
2.93124
2.94115
2.96458
3.04642
3.36825
3.73811
3.79729
3.72739
3.6201
)
;

boundaryField
{
    inlet
    {
        type            calculated;
        value           uniform 1.40001;
    }
    outlet
    {
        type            calculated;
        value           nonuniform List<scalar> 
100
(
1.39906
1.40031
1.40133
1.40209
1.40263
1.40302
1.40292
1.40274
1.40257
1.40246
1.40238
1.40233
1.40231
1.4023
1.4023
1.4023
1.4023
1.4023
1.4023
1.4023
1.38451
1.38463
1.38483
1.38512
1.38551
1.38596
1.38644
1.38696
1.3875
1.38808
1.38874
1.38958
1.39064
1.3919
1.39323
1.39447
1.39555
1.39648
1.39729
1.39803
1.38439
1.38435
1.38428
1.38413
1.38396
1.38377
1.38351
1.38341
1.3833
1.38325
1.38325
1.3833
1.38341
1.38351
1.38377
1.38396
1.38413
1.38428
1.38435
1.38439
1.39803
1.39729
1.39648
1.39555
1.39447
1.39323
1.3919
1.39064
1.38958
1.38874
1.38808
1.3875
1.38696
1.38644
1.38596
1.38551
1.38512
1.38483
1.38463
1.38451
1.4023
1.4023
1.4023
1.4023
1.4023
1.4023
1.4023
1.40231
1.40233
1.40238
1.40246
1.40257
1.40274
1.40292
1.40302
1.40263
1.40209
1.40133
1.40031
1.39906
)
;
    }
    triangle
    {
        type            calculated;
        value           nonuniform List<scalar> 
40
(
6.2901
6.37754
6.20585
6.03432
5.87295
5.76339
5.5749
5.38779
5.28005
5.21406
0.72632
0.762484
0.799299
0.821172
0.745409
0.681776
0.677576
0.687093
0.694654
0.699157
0.699157
0.694654
0.687093
0.677576
0.681776
0.745409
0.821172
0.799299
0.762484
0.72632
6.2901
6.37754
6.20585
6.03433
5.87295
5.76339
5.5749
5.38779
5.28004
5.21406
)
;
    }
    top
    {
        type            symmetryPlane;
    }
    bottom
    {
        type            symmetryPlane;
    }
    defaultFaces
    {
        type            empty;
    }
}


// ************************************************************************* //
