/*--------------------------------*- C++ -*----------------------------------*\
  =========                 |
  \\      /  F ield         | OpenFOAM: The Open Source CFD Toolbox
   \\    /   O peration     | Website:  https://openfoam.org
    \\  /    A nd           | Version:  8
     \\/     M anipulation  |
\*---------------------------------------------------------------------------*/
FoamFile
{
    version     2.0;
    format      ascii;
    class       volScalarField;
    location    "0.3";
    object      T;
}
// * * * * * * * * * * * * * * * * * * * * * * * * * * * * * * * * * * * * * //

dimensions      [0 0 0 1 0 0 0];

internalField   nonuniform List<scalar> 
2600
(
1.15815
1.08285
0.930496
0.989829
1.02145
1.01595
0.996418
0.982923
0.984268
0.994849
1.1958
1.08456
0.955159
1.00912
1.03007
1.02223
0.998387
0.983179
0.984332
0.994728
1.16645
1.04246
0.978624
1.03546
1.04293
1.03053
0.999844
0.983196
0.984232
0.994632
1.06516
0.998276
1.0064
1.07261
1.06324
1.03998
1.00248
0.983301
0.984181
0.994576
0.945452
0.946312
1.01581
1.10035
1.08152
1.04793
1.00451
0.983438
0.984251
0.99457
0.876385
0.903044
1.00906
1.1132
1.09113
1.05243
1.00572
0.983699
0.98446
0.994589
0.848715
0.866442
0.98971
1.10984
1.09126
1.05359
1.00613
0.984118
0.984703
0.994601
0.832993
0.83118
0.954482
1.08954
1.08098
1.05036
1.00576
0.984597
0.985078
0.994657
0.823448
0.809452
0.921229
1.06059
1.06586
1.045
1.00501
0.984818
0.985312
0.994688
0.821427
0.803534
0.913805
1.04524
1.05594
1.04211
1.00528
0.985135
0.985419
0.994689
0.821426
0.803534
0.913804
1.04524
1.05594
1.04211
1.00528
0.985135
0.985419
0.994689
0.823448
0.809452
0.921229
1.06059
1.06586
1.045
1.00501
0.984818
0.985312
0.994688
0.832993
0.83118
0.954482
1.08954
1.08097
1.05036
1.00576
0.984597
0.985078
0.994657
0.848715
0.866442
0.98971
1.10984
1.09126
1.05359
1.00613
0.984118
0.984703
0.994601
0.876385
0.903044
1.00906
1.1132
1.09113
1.05243
1.00572
0.983699
0.98446
0.994589
0.945452
0.946312
1.01581
1.10035
1.08152
1.04793
1.00451
0.983438
0.984251
0.99457
1.06516
0.998276
1.0064
1.07261
1.06324
1.03998
1.00248
0.983301
0.984181
0.994576
1.16645
1.04246
0.978624
1.03546
1.04293
1.03053
0.999844
0.983196
0.984232
0.994632
1.1958
1.08456
0.955159
1.00912
1.03007
1.02223
0.998387
0.983179
0.984332
0.994728
1.15815
1.08285
0.930496
0.989829
1.02145
1.01595
0.996418
0.982923
0.984268
0.994849
1.42506
1.07142
0.892494
0.970733
1.01285
1.01015
0.994289
0.982934
0.984609
0.995023
1.43486
1.09848
0.876229
0.954012
1.00395
1.00465
0.992208
0.982695
0.984809
0.995199
1.44631
1.11462
0.877638
0.941529
0.99647
1.00075
0.990303
0.982383
0.98491
0.995356
1.46672
1.14834
0.88491
0.933526
0.991533
0.997583
0.988547
0.982006
0.984932
0.995497
1.4931
1.16957
0.887065
0.927405
0.988403
0.994364
0.986728
0.981533
0.984939
0.995634
1.49496
1.17446
0.888409
0.923521
0.985866
0.99115
0.984801
0.981047
0.984985
0.995772
1.48506
1.17084
0.891064
0.922146
0.984116
0.989077
0.983517
0.980658
0.985061
0.995915
1.46925
1.16391
0.89568
0.922269
0.98323
0.988128
0.982813
0.980357
0.985138
0.99606
1.45001
1.15658
0.900316
0.920464
0.981768
0.98795
0.982477
0.980037
0.985183
0.99621
1.43147
1.15436
0.905075
0.917826
0.978453
0.988146
0.982016
0.979491
0.985142
0.996369
1.42183
1.15736
0.911983
0.913052
0.971773
0.986999
0.981293
0.978668
0.985011
0.996552
1.42033
1.16507
0.925328
0.900299
0.960997
0.983484
0.979855
0.977562
0.984901
0.996784
1.42088
1.17414
0.939049
0.894456
0.942517
0.975997
0.976977
0.976365
0.98505
0.997079
1.41967
1.18139
0.95315
0.893916
0.923767
0.961978
0.972378
0.975591
0.985689
0.997427
1.41759
1.18758
0.967231
0.89847
0.918156
0.947263
0.966274
0.97526
0.986688
0.997793
1.41531
1.19444
0.979786
0.906891
0.917923
0.940499
0.96313
0.97545
0.987791
0.998135
1.41474
1.20143
0.991094
0.917252
0.920085
0.938433
0.961634
0.976062
0.988848
0.998434
1.4169
1.20925
1.00096
0.927491
0.925058
0.938927
0.961193
0.976913
0.989794
0.99869
1.42268
1.21905
1.00979
0.936188
0.930789
0.941215
0.961604
0.977777
0.990654
0.998918
1.42988
1.22894
1.0181
0.943956
0.936451
0.944261
0.961991
0.978556
0.991446
0.999126
2.28793
2.27047
2.21867
2.16714
2.11955
2.08184
2.02978
1.96731
1.90806
1.85226
2.16206
2.16927
2.12532
2.08722
2.04732
2.01476
1.97866
1.93465
1.88523
1.82446
2.0489
2.10022
2.06174
2.03287
1.99817
1.96789
1.9395
1.90281
1.86144
1.80346
1.92035
2.02904
2.00893
1.98739
1.95971
1.93076
1.9019
1.86747
1.83209
1.7752
1.75697
1.9539
1.97511
1.9634
1.93998
1.91087
1.8807
1.84706
1.81117
1.75016
1.63421
1.78612
1.93814
1.93171
1.91575
1.89283
1.865
1.83436
1.79272
1.72695
1.59712
1.63088
1.81076
1.889
1.88156
1.8671
1.84291
1.81852
1.7741
1.70415
1.58725
1.59244
1.66458
1.80206
1.82748
1.82626
1.81
1.78956
1.74632
1.67582
1.57996
1.58205
1.60591
1.70919
1.75925
1.76963
1.7624
1.74511
1.70851
1.64061
1.57195
1.57363
1.58784
1.66385
1.71002
1.71828
1.71384
1.6973
1.67012
1.60928
1.56353
1.56542
1.57704
1.64447
1.69094
1.69119
1.6812
1.66144
1.63907
1.58993
1.55671
1.5589
1.56864
1.62886
1.68343
1.6823
1.67176
1.64898
1.62309
1.58139
1.54955
1.55202
1.56025
1.61276
1.68218
1.6815
1.66897
1.64331
1.61424
1.57518
1.54052
1.54264
1.55009
1.59571
1.68018
1.68051
1.66736
1.63955
1.6078
1.5684
1.53188
1.53315
1.53951
1.57755
1.67629
1.67895
1.66616
1.63758
1.60147
1.5605
1.52815
1.52853
1.53248
1.56031
1.66717
1.67407
1.66189
1.63409
1.59632
1.55347
1.52467
1.52475
1.52689
1.54488
1.64784
1.66728
1.65677
1.63133
1.59431
1.55053
1.5197
1.51877
1.52036
1.53213
1.61553
1.66139
1.65304
1.62993
1.59493
1.5516
1.51264
1.51169
1.51322
1.52158
1.57878
1.65456
1.65014
1.63023
1.59846
1.55481
1.50443
1.50446
1.50632
1.5124
1.5457
1.63719
1.64449
1.63032
1.60257
1.55969
1
1
1
1.00005
1.00239
1.05878
1.32668
1.49956
1.51842
1.70358
1
1
1
1.00005
1.00239
1.05878
1.32681
1.49933
1.51834
1.67528
1
1
1
1.00005
1.00239
1.05879
1.32703
1.49861
1.51836
1.63777
1
1
1
1.00005
1.00239
1.0588
1.32729
1.4977
1.51845
1.60149
1
1
1
1.00005
1.00239
1.05881
1.32752
1.49691
1.51858
1.58483
1
1
1
1.00005
1.00239
1.05881
1.32766
1.49647
1.51863
1.57603
1
1
1
1.00005
1.00239
1.05881
1.32764
1.49631
1.51849
1.57006
1
1
1
1.00005
1.00239
1.05882
1.32759
1.49636
1.5182
1.5643
1
1
1
1.00005
1.00239
1.05883
1.32747
1.49657
1.51786
1.55906
1
1
1
1.00005
1.00239
1.05884
1.32736
1.49686
1.51761
1.55435
1
1
1
1.00005
1.00239
1.05885
1.32729
1.49709
1.51759
1.54913
1
1
1
1.00005
1.00239
1.05885
1.32727
1.49721
1.51773
1.54344
1
1
1
1.00005
1.00239
1.05885
1.32725
1.49723
1.51807
1.53848
1
1
1
1.00005
1.00239
1.05885
1.32726
1.4972
1.51861
1.53368
1
1
1
1.00005
1.00239
1.05884
1.32728
1.49719
1.51908
1.53123
1
1
1
1.00005
1.00239
1.05884
1.32727
1.49722
1.51949
1.52767
1
1
1
1.00005
1.00239
1.05883
1.32727
1.49721
1.51981
1.52434
1
1
1
1.00005
1.00239
1.05884
1.32727
1.49708
1.52031
1.52082
1
1
1
1.00005
1.00239
1.05884
1.32726
1.4968
1.52099
1.51666
1
1
1
1.00005
1.00239
1.05885
1.32723
1.49652
1.52177
1.51065
1
1
1
1.00005
1.00239
1.05885
1.32723
1.49652
1.52177
1.51065
1
1
1
1.00005
1.00239
1.05884
1.32726
1.4968
1.52099
1.51666
1
1
1
1.00005
1.00239
1.05884
1.32727
1.49708
1.52031
1.52082
1
1
1
1.00005
1.00239
1.05883
1.32727
1.49721
1.51981
1.52434
1
1
1
1.00005
1.00239
1.05884
1.32727
1.49722
1.51949
1.52767
1
1
1
1.00005
1.00239
1.05884
1.32728
1.49719
1.51908
1.53123
1
1
1
1.00005
1.00239
1.05885
1.32726
1.4972
1.51861
1.53368
1
1
1
1.00005
1.00239
1.05885
1.32725
1.49723
1.51807
1.53848
1
1
1
1.00005
1.00239
1.05885
1.32727
1.49721
1.51773
1.54344
1
1
1
1.00005
1.00239
1.05885
1.32729
1.49709
1.51759
1.54913
1
1
1
1.00005
1.00239
1.05884
1.32736
1.49686
1.51761
1.55435
1
1
1
1.00005
1.00239
1.05883
1.32747
1.49657
1.51786
1.55906
1
1
1
1.00005
1.00239
1.05882
1.32759
1.49636
1.5182
1.5643
1
1
1
1.00005
1.00239
1.05881
1.32764
1.49631
1.51849
1.57006
1
1
1
1.00005
1.00239
1.05881
1.32766
1.49647
1.51863
1.57603
1
1
1
1.00005
1.00239
1.05881
1.32752
1.49691
1.51858
1.58483
1
1
1
1.00005
1.00239
1.0588
1.32729
1.4977
1.51845
1.60149
1
1
1
1.00005
1.00239
1.05879
1.32703
1.49861
1.51836
1.63777
1
1
1
1.00005
1.00239
1.05878
1.32681
1.49933
1.51834
1.67528
1
1
1
1.00005
1.00239
1.05878
1.32668
1.49956
1.51841
1.70358
1.50443
1.50446
1.50632
1.5124
1.5457
1.63719
1.64449
1.63032
1.60257
1.55969
1.51264
1.51169
1.51322
1.52158
1.57878
1.65456
1.65014
1.63023
1.59846
1.55481
1.5197
1.51877
1.52036
1.53213
1.61553
1.66138
1.65304
1.62993
1.59493
1.5516
1.52467
1.52475
1.52689
1.54488
1.64784
1.66728
1.65677
1.63133
1.59431
1.55053
1.52815
1.52853
1.53248
1.56031
1.66717
1.67407
1.66189
1.63409
1.59632
1.55347
1.53188
1.53315
1.53951
1.57755
1.67628
1.67895
1.66616
1.63758
1.60147
1.5605
1.54052
1.54264
1.55009
1.59571
1.68018
1.68051
1.66736
1.63955
1.6078
1.5684
1.54955
1.55202
1.56025
1.61276
1.68218
1.6815
1.66897
1.64331
1.61424
1.57518
1.55671
1.5589
1.56864
1.62886
1.68343
1.6823
1.67176
1.64898
1.62309
1.58139
1.56353
1.56542
1.57704
1.64448
1.69094
1.69119
1.6812
1.66144
1.63907
1.58993
1.57195
1.57363
1.58784
1.66385
1.71002
1.71828
1.71384
1.69729
1.67012
1.60928
1.57996
1.58205
1.60591
1.70919
1.75925
1.76963
1.7624
1.74511
1.70851
1.64061
1.58725
1.59244
1.66458
1.80206
1.82748
1.82626
1.81
1.78956
1.74632
1.67582
1.59712
1.63088
1.81076
1.889
1.88156
1.8671
1.84292
1.81852
1.7741
1.70415
1.63421
1.78612
1.93814
1.93171
1.91575
1.89283
1.865
1.83436
1.79272
1.72695
1.75697
1.9539
1.97511
1.9634
1.93998
1.91087
1.8807
1.84706
1.81117
1.75016
1.92035
2.02904
2.00893
1.98739
1.95971
1.93076
1.9019
1.86747
1.83209
1.7752
2.0489
2.10022
2.06174
2.03287
1.99817
1.96789
1.9395
1.90281
1.86144
1.80346
2.16206
2.16927
2.12532
2.08722
2.04732
2.01476
1.97866
1.93465
1.88523
1.82446
2.28793
2.27047
2.21867
2.16714
2.11955
2.08184
2.02978
1.96731
1.90806
1.85227
1.42988
1.22894
1.0181
0.943956
0.936451
0.944261
0.961991
0.978556
0.991446
0.999126
1.42268
1.21905
1.00979
0.936188
0.930789
0.941215
0.961604
0.977777
0.990654
0.998918
1.4169
1.20925
1.00096
0.927491
0.925059
0.938927
0.961193
0.976913
0.989794
0.99869
1.41474
1.20143
0.991094
0.917251
0.920085
0.938433
0.961634
0.976062
0.988848
0.998434
1.41531
1.19444
0.979786
0.906891
0.917923
0.940499
0.96313
0.97545
0.987791
0.998135
1.41759
1.18758
0.967231
0.89847
0.918156
0.947263
0.966274
0.97526
0.986688
0.997793
1.41967
1.18139
0.95315
0.893916
0.923767
0.961978
0.972378
0.975591
0.985689
0.997427
1.42089
1.17414
0.939048
0.894456
0.942517
0.975997
0.976977
0.976365
0.98505
0.997079
1.42033
1.16507
0.925328
0.900299
0.960997
0.983484
0.979855
0.977562
0.984901
0.996784
1.42183
1.15736
0.911983
0.913052
0.971773
0.986999
0.981294
0.978668
0.985011
0.996552
1.43147
1.15436
0.905075
0.917826
0.978453
0.988146
0.982016
0.979491
0.985142
0.996369
1.45001
1.15658
0.900315
0.920464
0.981768
0.987951
0.982477
0.980037
0.985183
0.99621
1.46925
1.16391
0.89568
0.922269
0.98323
0.988128
0.982813
0.980357
0.985138
0.99606
1.48506
1.17084
0.891064
0.922146
0.984116
0.989077
0.983517
0.980658
0.985061
0.995915
1.49496
1.17446
0.888409
0.923521
0.985866
0.991151
0.984801
0.981047
0.984985
0.995772
1.4931
1.16957
0.887065
0.927405
0.988403
0.994364
0.986728
0.981533
0.984939
0.995634
1.46672
1.14834
0.88491
0.933526
0.991533
0.997583
0.988547
0.982006
0.984932
0.995497
1.44631
1.11462
0.877637
0.941529
0.99647
1.00075
0.990303
0.982383
0.98491
0.995356
1.43486
1.09848
0.876229
0.954012
1.00395
1.00465
0.992208
0.982695
0.984809
0.995199
1.42506
1.07142
0.892494
0.970733
1.01285
1.01015
0.994289
0.982934
0.984609
0.995023
1.38104
1.2368
1.04347
0.993326
0.995774
0.999442
0.99999
1
1
1.00042
1.38104
1.2368
1.04347
0.993326
0.995774
0.999442
0.99999
1
1
1.00042
1.38104
1.23679
1.04347
0.993326
0.995774
0.999442
0.99999
1
1
1.00042
1.38104
1.23679
1.04347
0.993327
0.995774
0.999442
0.99999
1
1
1.00042
1.38104
1.23677
1.04347
0.993351
0.995798
0.999448
0.99999
1
1
1.00042
1.38099
1.2366
1.04372
0.994482
0.996857
0.99985
1.00004
1
1
1.00042
1.38058
1.23648
1.048
1.0038
1.00517
1.00426
1.00098
1.00004
1
1.00042
1.37963
1.23819
1.06326
1.02357
1.02207
1.01575
1.00493
1.00037
1
1.00042
1.379
1.25157
1.0827
1.03875
1.03445
1.02536
1.01124
1.00167
1.00004
1.00042
1.38014
1.27033
1.09514
1.04417
1.03797
1.02864
1.01579
1.00387
1.00021
1.00044
1.39257
1.28675
1.09961
1.04396
1.03649
1.02828
1.01716
1.00595
1.00059
1.00046
1.41213
1.29982
1.10034
1.0385
1.02653
1.02184
1.01665
1.00707
1.00113
1.00048
1.43341
1.31276
1.09852
1.0265
1.01179
1.0095
1.01069
1.00721
1.00163
1.00051
1.46091
1.31861
1.09103
1.01531
1.00021
0.999035
1.00269
1.00459
1.00186
1.00055
1.48426
1.31566
1.08246
1.00549
0.991139
0.991333
0.995626
1.00029
1.00112
1.00059
1.49227
1.31077
1.07468
0.99611
0.9829
0.984069
0.989133
0.995985
0.99972
1.00047
1.4915
1.30068
1.0653
0.986039
0.974329
0.976767
0.983274
0.992026
0.998227
1.00031
1.4814
1.28737
1.05531
0.975711
0.965182
0.968671
0.976998
0.987871
0.99648
1.00009
1.46176
1.26834
1.04404
0.964781
0.955105
0.959833
0.970829
0.984004
0.994622
0.999786
1.4418
1.24531
1.02974
0.953536
0.944914
0.951178
0.965526
0.980576
0.992742
0.999421
1.4418
1.24531
1.02974
0.953536
0.944914
0.951178
0.965526
0.980576
0.992742
0.999421
1.46176
1.26834
1.04404
0.964781
0.955105
0.959833
0.970829
0.984004
0.994622
0.999786
1.4814
1.28737
1.05531
0.975711
0.965182
0.968671
0.976998
0.987871
0.99648
1.00009
1.4915
1.30068
1.0653
0.986039
0.974329
0.976767
0.983274
0.992026
0.998227
1.00031
1.49227
1.31077
1.07468
0.99611
0.9829
0.984068
0.989133
0.995985
0.99972
1.00047
1.48426
1.31566
1.08246
1.00549
0.991139
0.991333
0.995626
1.00029
1.00112
1.00059
1.46091
1.31861
1.09103
1.01531
1.00021
0.999035
1.00269
1.00459
1.00186
1.00055
1.43341
1.31276
1.09852
1.0265
1.01179
1.0095
1.01069
1.00721
1.00163
1.00051
1.41213
1.29982
1.10034
1.0385
1.02653
1.02184
1.01665
1.00707
1.00113
1.00048
1.39257
1.28675
1.09961
1.04396
1.03649
1.02828
1.01716
1.00595
1.00059
1.00046
1.38014
1.27033
1.09514
1.04417
1.03796
1.02864
1.01579
1.00387
1.00021
1.00044
1.379
1.25158
1.0827
1.03875
1.03445
1.02536
1.01124
1.00167
1.00004
1.00042
1.37963
1.23819
1.06326
1.02357
1.02207
1.01575
1.00493
1.00037
1
1.00042
1.38058
1.23648
1.048
1.0038
1.00517
1.00426
1.00098
1.00004
1
1.00042
1.38099
1.2366
1.04372
0.994481
0.996856
0.99985
1.00004
1
1
1.00042
1.38104
1.23677
1.04347
0.993351
0.995798
0.999448
0.99999
1
1
1.00042
1.38104
1.23679
1.04347
0.993326
0.995774
0.999442
0.99999
1
1
1.00042
1.38104
1.23679
1.04347
0.993326
0.995774
0.999442
0.99999
1
1
1.00042
1.38104
1.23679
1.04347
0.993326
0.995774
0.999442
0.99999
1
1
1.00042
1.38104
1.23679
1.04347
0.993326
0.995774
0.999442
0.99999
1
1
1.00042
1.49712
1.49669
1.49724
1.5
1.51348
1.57597
1.63628
1.63169
1.60714
1.56468
1.49579
1.49392
1.49238
1.49098
1.49284
1.51243
1.58115
1.62113
1.61078
1.57465
1.49775
1.49526
1.49295
1.49052
1.48878
1.49089
1.51574
1.5872
1.59939
1.58301
1.50217
1.49985
1.49674
1.49417
1.49169
1.48806
1.4901
1.52139
1.58208
1.57565
1.50659
1.50473
1.50209
1.49946
1.49687
1.49284
1.48367
1.48711
1.52926
1.55317
1.50815
1.50637
1.5041
1.50169
1.49933
1.49557
1.48826
1.47411
1.47956
1.51323
1.50841
1.50665
1.50438
1.50208
1.49958
1.49599
1.48871
1.47804
1.46094
1.47195
1.50851
1.50674
1.50445
1.50215
1.49956
1.49602
1.48869
1.478
1.46477
1.44748
1.50856
1.50678
1.50449
1.50215
1.49959
1.49591
1.48868
1.47788
1.46517
1.44708
1.50857
1.50678
1.50449
1.50213
1.49962
1.49581
1.48873
1.47769
1.4654
1.44774
1.50857
1.50678
1.50449
1.50213
1.49961
1.49577
1.48874
1.47768
1.46508
1.44896
1.50857
1.50678
1.50448
1.50212
1.49959
1.49578
1.48869
1.47776
1.46483
1.4492
1.50856
1.50678
1.50447
1.50212
1.49957
1.4958
1.48866
1.4778
1.4648
1.44921
1.50856
1.50678
1.50447
1.50212
1.49957
1.4958
1.48866
1.4778
1.46481
1.44915
1.50856
1.50678
1.50447
1.50212
1.49957
1.4958
1.48866
1.47779
1.46483
1.44911
1.50856
1.50678
1.50447
1.50212
1.49957
1.4958
1.48866
1.47779
1.46484
1.44911
1.50856
1.50678
1.50447
1.50212
1.49957
1.4958
1.48866
1.47779
1.46484
1.44911
1.50856
1.50678
1.50447
1.50212
1.49957
1.4958
1.48866
1.47779
1.46484
1.44911
1.50856
1.50678
1.50447
1.50212
1.49957
1.4958
1.48866
1.47779
1.46484
1.44911
1.50856
1.50678
1.50447
1.50212
1.49957
1.4958
1.48866
1.47779
1.46484
1.44911
1
1
1
1.00005
1.00239
1.05886
1.32724
1.49633
1.52255
1.50649
1
1
1
1.00005
1.00239
1.05886
1.32727
1.49622
1.52309
1.5065
1
1
1
1.00005
1.00239
1.05885
1.3273
1.49617
1.52319
1.50776
1
1
1
1.00005
1.00239
1.05885
1.32735
1.49609
1.52321
1.51094
1
1
1
1.00005
1.00239
1.05884
1.3274
1.49597
1.52319
1.51365
1
1
1
1.00005
1.00239
1.05884
1.32746
1.49587
1.52324
1.51458
1
1
1
1.00005
1.00239
1.05883
1.3275
1.49579
1.52331
1.51478
1
1
1
1.00005
1.00239
1.05883
1.32753
1.49575
1.52338
1.51486
1
1
1
1.00005
1.00239
1.05883
1.32755
1.49574
1.52343
1.5149
1
1
1
1.00005
1.00239
1.05883
1.32755
1.49573
1.52345
1.51491
1
1
1
1.00005
1.00239
1.05883
1.32755
1.49573
1.52345
1.51491
1
1
1
1.00005
1.00239
1.05883
1.32755
1.49573
1.52345
1.51491
1
1
1
1.00005
1.00239
1.05883
1.32755
1.49573
1.52345
1.51491
1
1
1
1.00005
1.00239
1.05883
1.32755
1.49573
1.52345
1.51491
1
1
1
1.00005
1.00239
1.05883
1.32755
1.49573
1.52345
1.51491
1
1
1
1.00005
1.00239
1.05883
1.32755
1.49573
1.52345
1.51491
1
1
1
1.00005
1.00239
1.05883
1.32755
1.49573
1.52345
1.51491
1
1
1
1.00005
1.00239
1.05883
1.32755
1.49573
1.52345
1.51491
1
1
1
1.00005
1.00239
1.05883
1.32755
1.49573
1.52345
1.51491
1
1
1
1.00005
1.00239
1.05883
1.32755
1.49573
1.52345
1.51491
1
1
1
1.00005
1.00239
1.05883
1.32755
1.49573
1.52345
1.51492
1
1
1
1.00005
1.00239
1.05883
1.32755
1.49573
1.52345
1.51492
1
1
1
1.00005
1.00239
1.05883
1.32755
1.49573
1.52345
1.51492
1
1
1
1.00005
1.00239
1.05883
1.32755
1.49573
1.52345
1.51492
1
1
1
1.00005
1.00239
1.05883
1.32755
1.49573
1.52345
1.51492
1
1
1
1.00005
1.00239
1.05883
1.32755
1.49573
1.52345
1.51491
1
1
1
1.00005
1.00239
1.05883
1.32755
1.49573
1.52345
1.51491
1
1
1
1.00005
1.00239
1.05883
1.32755
1.49573
1.52345
1.51491
1
1
1
1.00005
1.00239
1.05883
1.32755
1.49573
1.52345
1.51491
1
1
1
1.00005
1.00239
1.05883
1.32755
1.49573
1.52345
1.51491
1
1
1
1.00005
1.00239
1.05883
1.32755
1.49573
1.52345
1.51491
1
1
1
1.00005
1.00239
1.05883
1.32755
1.49574
1.52343
1.5149
1
1
1
1.00005
1.00239
1.05883
1.32753
1.49575
1.52338
1.51486
1
1
1
1.00005
1.00239
1.05883
1.3275
1.49579
1.52331
1.51478
1
1
1
1.00005
1.00239
1.05884
1.32746
1.49587
1.52324
1.51458
1
1
1
1.00005
1.00239
1.05884
1.3274
1.49597
1.52319
1.51365
1
1
1
1.00005
1.00239
1.05885
1.32735
1.49609
1.52321
1.51094
1
1
1
1.00005
1.00239
1.05885
1.3273
1.49617
1.52319
1.50776
1
1
1
1.00005
1.00239
1.05886
1.32727
1.49622
1.52309
1.5065
1
1
1
1.00005
1.00239
1.05886
1.32724
1.49633
1.52255
1.50649
1.50856
1.50678
1.50447
1.50212
1.49957
1.4958
1.48866
1.47779
1.46483
1.4491
1.50856
1.50678
1.50447
1.50212
1.49957
1.4958
1.48866
1.47779
1.46483
1.4491
1.50856
1.50678
1.50447
1.50212
1.49957
1.4958
1.48866
1.47779
1.46483
1.4491
1.50856
1.50678
1.50447
1.50212
1.49957
1.4958
1.48866
1.47779
1.46483
1.44911
1.50856
1.50678
1.50447
1.50212
1.49957
1.4958
1.48866
1.47779
1.46483
1.44911
1.50856
1.50678
1.50447
1.50212
1.49957
1.4958
1.48866
1.4778
1.46483
1.44911
1.50856
1.50678
1.50447
1.50212
1.49957
1.4958
1.48866
1.4778
1.46481
1.44915
1.50856
1.50678
1.50447
1.50212
1.49957
1.4958
1.48866
1.4778
1.4648
1.44921
1.50856
1.50678
1.50448
1.50212
1.49959
1.49578
1.48869
1.47776
1.46483
1.4492
1.50857
1.50678
1.50449
1.50212
1.49961
1.49577
1.48875
1.47768
1.46508
1.44896
1.50856
1.50678
1.50449
1.50213
1.49961
1.49581
1.48873
1.4777
1.4654
1.44774
1.50855
1.50678
1.50448
1.50214
1.49959
1.49591
1.48868
1.47788
1.46517
1.44708
1.5085
1.50674
1.50445
1.50214
1.49956
1.49602
1.48869
1.478
1.46477
1.44749
1.50841
1.50664
1.50438
1.50208
1.49958
1.49599
1.48871
1.47804
1.46094
1.47195
1.50814
1.50637
1.5041
1.50169
1.49933
1.49557
1.48826
1.47411
1.47956
1.51323
1.50659
1.50473
1.50209
1.49946
1.49687
1.49284
1.48367
1.48712
1.52926
1.55317
1.50217
1.49985
1.49674
1.49417
1.49169
1.48806
1.4901
1.52139
1.58208
1.57565
1.49775
1.49526
1.49295
1.49052
1.48878
1.49089
1.51574
1.58719
1.59939
1.58301
1.49579
1.49392
1.49238
1.49098
1.49284
1.51243
1.58115
1.62113
1.61078
1.57465
1.49712
1.49669
1.49724
1.5
1.51348
1.57597
1.63628
1.63169
1.60714
1.56468
)
;

boundaryField
{
    inlet
    {
        type            fixedValue;
        value           uniform 1;
    }
    outlet
    {
        type            inletOutlet;
        inletValue      uniform 1;
        value           nonuniform List<scalar> 
100
(
0.999451
0.999808
1.0001
1.00032
1.00047
1.00059
1.00055
1.00051
1.00047
1.00046
1.00044
1.00042
1.00042
1.00042
1.00042
1.00042
1.00042
1.00042
1.00042
1.00042
0.995097
0.995272
0.995428
0.995569
0.995705
0.995843
0.995985
0.99613
0.99628
0.996438
0.996624
0.996858
0.997154
0.9975
0.99786
0.998195
0.998486
0.998736
0.998958
0.999162
0.994924
0.994803
0.994707
0.994652
0.994645
0.994664
0.994676
0.99473
0.994761
0.994763
0.994763
0.994761
0.99473
0.994676
0.994664
0.994645
0.994652
0.994707
0.994803
0.994924
0.999162
0.998958
0.998736
0.998486
0.998195
0.99786
0.9975
0.997154
0.996858
0.996624
0.996438
0.99628
0.99613
0.995985
0.995843
0.995705
0.995569
0.995428
0.995272
0.995097
1.00042
1.00042
1.00042
1.00042
1.00042
1.00042
1.00042
1.00042
1.00042
1.00044
1.00046
1.00047
1.00051
1.00055
1.00059
1.00047
1.00032
1.0001
0.999808
0.999451
)
;
    }
    triangle
    {
        type            zeroGradient;
    }
    top
    {
        type            symmetryPlane;
    }
    bottom
    {
        type            symmetryPlane;
    }
    defaultFaces
    {
        type            empty;
    }
}


// ************************************************************************* //
