/*--------------------------------*- C++ -*----------------------------------*\
  =========                 |
  \\      /  F ield         | OpenFOAM: The Open Source CFD Toolbox
   \\    /   O peration     | Website:  https://openfoam.org
    \\  /    A nd           | Version:  8
     \\/     M anipulation  |
\*---------------------------------------------------------------------------*/
FoamFile
{
    version     2.0;
    format      ascii;
    class       volVectorField;
    location    "0.3";
    object      U;
}
// * * * * * * * * * * * * * * * * * * * * * * * * * * * * * * * * * * * * * //

dimensions      [0 1 -1 0 0 0 0];

internalField   nonuniform List<vector> 
2600
(
(2.32872 0.847275 0)
(1.97924 0.522709 0)
(1.58931 0.318679 0)
(1.18611 0.237857 0)
(1.00406 0.14783 0)
(0.990323 0.0991025 0)
(0.998331 0.061225 0)
(1.02011 0.031711 0)
(1.05024 0.0136171 0)
(1.08402 0.00327249 0)
(1.38156 0.363275 0)
(1.55858 0.390539 0)
(1.4748 0.295225 0)
(1.15713 0.237582 0)
(0.982736 0.153928 0)
(0.974666 0.0979179 0)
(0.993229 0.0567472 0)
(1.02077 0.0284625 0)
(1.05109 0.0121578 0)
(1.084 0.00289076 0)
(0.444507 0.358987 0)
(0.982815 0.407805 0)
(1.22374 0.296863 0)
(1.09442 0.241834 0)
(0.950866 0.157377 0)
(0.958808 0.0940817 0)
(0.989158 0.0517576 0)
(1.01994 0.0249353 0)
(1.05125 0.0105626 0)
(1.08377 0.00260467 0)
(-0.038894 0.205555 0)
(0.400008 0.280055 0)
(0.871334 0.170249 0)
(0.962156 0.228488 0)
(0.903844 0.160687 0)
(0.943831 0.0884184 0)
(0.990676 0.0458956 0)
(1.02138 0.0215452 0)
(1.05085 0.00911791 0)
(1.08343 0.00233482 0)
(-0.216109 0.0193273 0)
(-0.011232 0.120047 0)
(0.450774 0.129584 0)
(0.765871 0.200985 0)
(0.838639 0.147501 0)
(0.929109 0.0795884 0)
(0.990485 0.039997 0)
(1.02173 0.0179206 0)
(1.05047 0.00776207 0)
(1.0832 0.00198864 0)
(-0.289446 -0.107551 0)
(-0.253212 0.0204859 0)
(0.11396 0.0443777 0)
(0.544164 0.193145 0)
(0.758511 0.150291 0)
(0.913242 0.0718966 0)
(0.990065 0.0337187 0)
(1.02219 0.0144216 0)
(1.05072 0.00631898 0)
(1.08316 0.00159545 0)
(-0.329543 -0.126295 0)
(-0.369029 -0.0184642 0)
(-0.119074 0.034153 0)
(0.36012 0.13911 0)
(0.687005 0.112927 0)
(0.905188 0.0544676 0)
(0.989741 0.0270777 0)
(1.0219 0.0109829 0)
(1.0504 0.00490941 0)
(1.08305 0.00125097 0)
(-0.350956 -0.105085 0)
(-0.416273 -0.0360644 0)
(-0.244483 -0.00427873 0)
(0.228354 0.106602 0)
(0.618972 0.0928524 0)
(0.884166 0.0429441 0)
(0.988823 0.0202446 0)
(1.02339 0.00774142 0)
(1.05121 0.00346057 0)
(1.08322 0.000860339 0)
(-0.357777 -0.0666571 0)
(-0.432698 -0.0306716 0)
(-0.299372 -0.0203665 0)
(0.160644 0.0601891 0)
(0.583861 0.0516467 0)
(0.868416 0.0258473 0)
(0.985566 0.0121719 0)
(1.02269 0.00435705 0)
(1.05106 0.00203509 0)
(1.08322 0.00051998 0)
(-0.365871 -0.0225139 0)
(-0.438017 -0.00918081 0)
(-0.314234 -0.00386026 0)
(0.132155 0.0205052 0)
(0.556779 0.0189756 0)
(0.866688 0.00887603 0)
(0.989233 0.00442619 0)
(1.02445 0.00162461 0)
(1.05137 0.00068608 0)
(1.08307 0.000185299 0)
(-0.365871 0.0225152 0)
(-0.438017 0.00918209 0)
(-0.314234 0.00386095 0)
(0.132155 -0.0205049 0)
(0.556779 -0.0189755 0)
(0.866688 -0.00887601 0)
(0.989233 -0.00442619 0)
(1.02445 -0.00162461 0)
(1.05137 -0.000686081 0)
(1.08307 -0.000185299 0)
(-0.357777 0.0666583 0)
(-0.432698 0.0306728 0)
(-0.299372 0.0203673 0)
(0.160644 -0.0601887 0)
(0.583861 -0.0516465 0)
(0.868416 -0.0258473 0)
(0.985566 -0.0121719 0)
(1.02269 -0.00435705 0)
(1.05106 -0.00203509 0)
(1.08322 -0.00051998 0)
(-0.350956 0.105086 0)
(-0.416273 0.0360651 0)
(-0.244484 0.0042795 0)
(0.228354 -0.106602 0)
(0.618972 -0.0928522 0)
(0.884166 -0.0429441 0)
(0.988823 -0.0202446 0)
(1.02339 -0.00774142 0)
(1.05121 -0.00346057 0)
(1.08322 -0.000860339 0)
(-0.329543 0.126295 0)
(-0.369029 0.0184644 0)
(-0.119075 -0.0341524 0)
(0.36012 -0.139109 0)
(0.687005 -0.112927 0)
(0.905188 -0.0544676 0)
(0.989741 -0.0270777 0)
(1.0219 -0.0109829 0)
(1.0504 -0.00490941 0)
(1.08305 -0.00125097 0)
(-0.289446 0.10755 0)
(-0.253213 -0.020486 0)
(0.113959 -0.0443774 0)
(0.544164 -0.193144 0)
(0.758511 -0.150291 0)
(0.913242 -0.0718965 0)
(0.990065 -0.0337187 0)
(1.02219 -0.0144216 0)
(1.05072 -0.00631898 0)
(1.08316 -0.00159545 0)
(-0.216109 -0.0193292 0)
(-0.0112328 -0.120048 0)
(0.450773 -0.129584 0)
(0.76587 -0.200985 0)
(0.838639 -0.1475 0)
(0.929109 -0.0795884 0)
(0.990485 -0.039997 0)
(1.02173 -0.0179206 0)
(1.05047 -0.00776207 0)
(1.0832 -0.00198864 0)
(-0.0388941 -0.205556 0)
(0.400007 -0.280055 0)
(0.871333 -0.170249 0)
(0.962156 -0.228488 0)
(0.903843 -0.160687 0)
(0.943831 -0.0884183 0)
(0.990676 -0.0458956 0)
(1.02138 -0.0215452 0)
(1.05085 -0.00911791 0)
(1.08343 -0.00233482 0)
(0.444507 -0.358986 0)
(0.982814 -0.407805 0)
(1.22374 -0.296863 0)
(1.09442 -0.241834 0)
(0.950866 -0.157377 0)
(0.958808 -0.0940816 0)
(0.989158 -0.0517576 0)
(1.01994 -0.0249353 0)
(1.05125 -0.0105626 0)
(1.08377 -0.00260467 0)
(1.38156 -0.363274 0)
(1.55858 -0.390538 0)
(1.4748 -0.295225 0)
(1.15713 -0.237582 0)
(0.982735 -0.153928 0)
(0.974666 -0.0979178 0)
(0.993229 -0.0567472 0)
(1.02077 -0.0284625 0)
(1.05109 -0.0121578 0)
(1.084 -0.00289076 0)
(2.32872 -0.847275 0)
(1.97924 -0.522709 0)
(1.58931 -0.318679 0)
(1.18611 -0.237857 0)
(1.00406 -0.14783 0)
(0.990323 -0.0991025 0)
(0.998331 -0.061225 0)
(1.02011 -0.031711 0)
(1.05024 -0.0136171 0)
(1.08402 -0.00327249 0)
(2.18842 -0.134955 0)
(2.20121 -0.260654 0)
(1.6106 -0.325829 0)
(1.20797 -0.24643 0)
(1.02221 -0.148635 0)
(1.0047 -0.101337 0)
(1.00518 -0.0653772 0)
(1.02229 -0.0347921 0)
(1.05097 -0.0154079 0)
(1.08427 -0.00361247 0)
(2.03164 0.138121 0)
(2.28464 -0.29181 0)
(1.5851 -0.350541 0)
(1.22796 -0.258723 0)
(1.0411 -0.149682 0)
(1.01761 -0.104331 0)
(1.01265 -0.0696334 0)
(1.02482 -0.0377105 0)
(1.05116 -0.0173948 0)
(1.0844 -0.00409003 0)
(1.94875 0.271522 0)
(2.22078 -0.0740157 0)
(1.58742 -0.324375 0)
(1.24332 -0.254626 0)
(1.05984 -0.148588 0)
(1.02884 -0.106608 0)
(1.01916 -0.0731567 0)
(1.02782 -0.0403824 0)
(1.05232 -0.0191244 0)
(1.08471 -0.00451805 0)
(1.8981 0.380959 0)
(2.15446 0.0503978 0)
(1.58963 -0.30388 0)
(1.25888 -0.252825 0)
(1.07951 -0.146642 0)
(1.03886 -0.109031 0)
(1.02441 -0.0765996 0)
(1.03055 -0.0430799 0)
(1.05373 -0.02076 0)
(1.08513 -0.00491158 0)
(1.88557 0.453905 0)
(2.10391 0.116211 0)
(1.58271 -0.288631 0)
(1.27779 -0.250015 0)
(1.09805 -0.142559 0)
(1.04714 -0.113866 0)
(1.02855 -0.0806015 0)
(1.03277 -0.0459232 0)
(1.05513 -0.0222691 0)
(1.08564 -0.00524329 0)
(1.88229 0.460106 0)
(2.0576 0.126769 0)
(1.5758 -0.280797 0)
(1.29743 -0.24834 0)
(1.11355 -0.140327 0)
(1.05496 -0.117924 0)
(1.03244 -0.0844861 0)
(1.03511 -0.048488 0)
(1.05656 -0.0235633 0)
(1.08619 -0.00553331 0)
(1.8699 0.454489 0)
(2.01031 0.1202 0)
(1.566 -0.266189 0)
(1.31097 -0.237708 0)
(1.12475 -0.134576 0)
(1.06149 -0.117761 0)
(1.03638 -0.0863998 0)
(1.03749 -0.0506206 0)
(1.05798 -0.0247982 0)
(1.08679 -0.0057869 0)
(1.85669 0.413232 0)
(1.96607 0.107885 0)
(1.55665 -0.256387 0)
(1.32039 -0.228787 0)
(1.1352 -0.129042 0)
(1.06788 -0.114405 0)
(1.03951 -0.0863295 0)
(1.03992 -0.0523278 0)
(1.05949 -0.0259587 0)
(1.08744 -0.00601505 0)
(1.85468 0.35075 0)
(1.92201 0.0937725 0)
(1.54429 -0.238511 0)
(1.32517 -0.2249 0)
(1.1444 -0.121937 0)
(1.073 -0.108479 0)
(1.04174 -0.0854553 0)
(1.04225 -0.0540953 0)
(1.06113 -0.0271225 0)
(1.08814 -0.00620616 0)
(1.85551 0.291852 0)
(1.88115 0.0887066 0)
(1.53479 -0.222094 0)
(1.32912 -0.22573 0)
(1.15356 -0.118152 0)
(1.07654 -0.102674 0)
(1.04341 -0.0852177 0)
(1.04457 -0.0561763 0)
(1.06284 -0.0285139 0)
(1.08891 -0.00637445 0)
(1.85824 0.252062 0)
(1.84671 0.091729 0)
(1.51855 -0.194897 0)
(1.32466 -0.233973 0)
(1.16808 -0.123899 0)
(1.08047 -0.0987814 0)
(1.0448 -0.0858953 0)
(1.04661 -0.058887 0)
(1.06468 -0.0300492 0)
(1.08976 -0.00644705 0)
(1.85724 0.235877 0)
(1.81236 0.108139 0)
(1.51629 -0.178801 0)
(1.30766 -0.25345 0)
(1.18419 -0.14377 0)
(1.08554 -0.1017 0)
(1.047 -0.0888197 0)
(1.04863 -0.062361 0)
(1.06688 -0.031466 0)
(1.09067 -0.00636876 0)
(1.84345 0.227964 0)
(1.76907 0.130873 0)
(1.49731 -0.142257 0)
(1.29952 -0.259168 0)
(1.19405 -0.18286 0)
(1.09198 -0.115312 0)
(1.04843 -0.0945046 0)
(1.05034 -0.0662754 0)
(1.06939 -0.0321973 0)
(1.09161 -0.00607117 0)
(1.81381 0.223359 0)
(1.72858 0.148063 0)
(1.46255 -0.0991926 0)
(1.30002 -0.252966 0)
(1.19669 -0.225514 0)
(1.10053 -0.144895 0)
(1.05273 -0.105536 0)
(1.0526 -0.0693219 0)
(1.07199 -0.031792 0)
(1.09251 -0.00559635 0)
(1.77343 0.221304 0)
(1.68923 0.160529 0)
(1.43136 -0.0651572 0)
(1.30092 -0.240686 0)
(1.19376 -0.236047 0)
(1.11078 -0.17549 0)
(1.05765 -0.118347 0)
(1.05546 -0.0709723 0)
(1.07453 -0.0302793 0)
(1.09332 -0.00501457 0)
(1.73211 0.216884 0)
(1.65374 0.167878 0)
(1.40258 -0.0363368 0)
(1.2952 -0.214303 0)
(1.19049 -0.231296 0)
(1.11919 -0.187418 0)
(1.06474 -0.125971 0)
(1.05922 -0.0713873 0)
(1.07702 -0.0285088 0)
(1.09404 -0.00445809 0)
(1.69928 0.211087 0)
(1.62802 0.169459 0)
(1.37759 -0.0135644 0)
(1.28532 -0.183454 0)
(1.187 -0.223253 0)
(1.12566 -0.186624 0)
(1.07197 -0.128014 0)
(1.06333 -0.0703886 0)
(1.07947 -0.0266928 0)
(1.09468 -0.00396921 0)
(1.67795 0.203876 0)
(1.6056 0.170917 0)
(1.35637 0.00440818 0)
(1.27616 -0.156699 0)
(1.18234 -0.207345 0)
(1.12981 -0.178351 0)
(1.07855 -0.12482 0)
(1.0677 -0.068651 0)
(1.08192 -0.0251552 0)
(1.09526 -0.00356021 0)
(1.67266 0.200031 0)
(1.59089 0.170501 0)
(1.33735 0.0193276 0)
(1.26381 -0.132663 0)
(1.18025 -0.189967 0)
(1.13502 -0.170431 0)
(1.08616 -0.124292 0)
(1.07231 -0.0670324 0)
(1.08432 -0.0236695 0)
(1.0958 -0.00318599 0)
(1.67598 0.189976 0)
(1.58237 0.168934 0)
(1.31665 0.0342677 0)
(1.24923 -0.111677 0)
(1.1763 -0.17003 0)
(1.13307 -0.155688 0)
(1.09059 -0.117255 0)
(1.07678 -0.0648363 0)
(1.08665 -0.0223252 0)
(1.09628 -0.00283714 0)
(0.753908 0.194605 0)
(0.769778 0.287179 0)
(0.878827 0.359023 0)
(0.947421 0.4381 0)
(1.02239 0.49674 0)
(1.11212 0.554782 0)
(1.17898 0.615225 0)
(1.21177 0.664434 0)
(1.24212 0.696762 0)
(1.30323 0.718275 0)
(0.854084 0.269721 0)
(0.810817 0.335077 0)
(0.899587 0.386312 0)
(0.950781 0.451498 0)
(1.0182 0.502651 0)
(1.09508 0.557525 0)
(1.15913 0.618269 0)
(1.20353 0.670906 0)
(1.24554 0.704488 0)
(1.31978 0.73935 0)
(1.04093 0.269045 0)
(0.932323 0.323427 0)
(1.00042 0.364709 0)
(1.02227 0.413985 0)
(1.06483 0.456522 0)
(1.11633 0.511244 0)
(1.17395 0.585511 0)
(1.22148 0.659868 0)
(1.27773 0.704806 0)
(1.37884 0.743432 0)
(1.26347 0.309536 0)
(1.06652 0.376908 0)
(1.10096 0.418842 0)
(1.11736 0.447264 0)
(1.14163 0.467188 0)
(1.16601 0.498762 0)
(1.20015 0.559361 0)
(1.25331 0.647474 0)
(1.33478 0.718517 0)
(1.4499 0.747732 0)
(1.60113 0.232913 0)
(1.26593 0.362429 0)
(1.19157 0.412315 0)
(1.20983 0.441929 0)
(1.22336 0.460707 0)
(1.23468 0.488215 0)
(1.26087 0.538671 0)
(1.3163 0.618963 0)
(1.40941 0.697463 0)
(1.52518 0.731965 0)
(1.79824 0.112103 0)
(1.56162 0.250388 0)
(1.27939 0.363342 0)
(1.27716 0.408768 0)
(1.29225 0.440886 0)
(1.30019 0.461184 0)
(1.32519 0.497578 0)
(1.38085 0.561629 0)
(1.461 0.646187 0)
(1.57296 0.684823 0)
(1.84558 0.0684664 0)
(1.7889 0.102697 0)
(1.47071 0.255261 0)
(1.33275 0.335158 0)
(1.35806 0.394133 0)
(1.36785 0.41976 0)
(1.39099 0.444195 0)
(1.44516 0.493685 0)
(1.50673 0.562926 0)
(1.60847 0.598421 0)
(1.86549 0.0538617 0)
(1.844 0.0636002 0)
(1.71229 0.121551 0)
(1.4589 0.222462 0)
(1.42495 0.306142 0)
(1.4354 0.355705 0)
(1.44851 0.37378 0)
(1.49426 0.410971 0)
(1.55888 0.46419 0)
(1.64216 0.490299 0)
(1.87445 0.048202 0)
(1.85815 0.055299 0)
(1.79968 0.0718343 0)
(1.59945 0.124545 0)
(1.50753 0.199407 0)
(1.50602 0.261008 0)
(1.50724 0.279362 0)
(1.54153 0.309291 0)
(1.59559 0.360765 0)
(1.67788 0.382665 0)
(1.88462 0.0458367 0)
(1.86849 0.0533806 0)
(1.82722 0.064512 0)
(1.67256 0.0858038 0)
(1.57109 0.127879 0)
(1.55973 0.173092 0)
(1.56122 0.185054 0)
(1.58346 0.208372 0)
(1.63399 0.259788 0)
(1.70515 0.293633 0)
(1.89817 0.0479143 0)
(1.88312 0.0547407 0)
(1.84852 0.0651653 0)
(1.71124 0.0798687 0)
(1.60301 0.103145 0)
(1.5897 0.122633 0)
(1.59592 0.122328 0)
(1.61404 0.137207 0)
(1.66545 0.179458 0)
(1.7311 0.231834 0)
(1.91677 0.0536968 0)
(1.90311 0.0587858 0)
(1.87345 0.0670803 0)
(1.75033 0.0809143 0)
(1.62538 0.0949279 0)
(1.61086 0.100201 0)
(1.62013 0.0993354 0)
(1.64505 0.102905 0)
(1.69399 0.133387 0)
(1.75013 0.196696 0)
(1.93989 0.0554726 0)
(1.92746 0.0608486 0)
(1.90271 0.0688288 0)
(1.79444 0.0835315 0)
(1.6544 0.0946939 0)
(1.63458 0.0953876 0)
(1.64411 0.0920543 0)
(1.66662 0.0893083 0)
(1.70598 0.111421 0)
(1.75241 0.176457 0)
(1.96282 0.0510808 0)
(1.955 0.0569456 0)
(1.93663 0.0644097 0)
(1.84603 0.0786798 0)
(1.6923 0.095188 0)
(1.65685 0.0951417 0)
(1.66272 0.0905391 0)
(1.68038 0.083969 0)
(1.70731 0.0996671 0)
(1.74131 0.162521 0)
(1.98465 0.0457432 0)
(1.98158 0.0500921 0)
(1.9697 0.0548875 0)
(1.89769 0.0661346 0)
(1.7328 0.0924782 0)
(1.67152 0.0957729 0)
(1.67263 0.0958032 0)
(1.68405 0.0862428 0)
(1.69886 0.0927663 0)
(1.71736 0.154132 0)
(2.01161 0.0358126 0)
(2.01091 0.0386712 0)
(2.00375 0.041092 0)
(1.94931 0.0485811 0)
(1.77692 0.0864014 0)
(1.68133 0.103625 0)
(1.67457 0.107244 0)
(1.6785 0.0948497 0)
(1.67959 0.0951319 0)
(1.6853 0.154049 0)
(2.03079 0.0222849 0)
(2.02864 0.0247445 0)
(2.02209 0.0271239 0)
(1.98089 0.0343214 0)
(1.81991 0.0791361 0)
(1.68687 0.113146 0)
(1.67136 0.119307 0)
(1.66731 0.106762 0)
(1.65647 0.103635 0)
(1.65602 0.158028 0)
(2.04112 0.0108551 0)
(2.03668 0.0125962 0)
(2.02736 0.0161154 0)
(1.99384 0.0255579 0)
(1.858 0.0747419 0)
(1.6918 0.12327 0)
(1.66663 0.129068 0)
(1.65749 0.118309 0)
(1.64222 0.119052 0)
(1.64001 0.165464 0)
(2.04122 0.00405671 0)
(2.03396 0.00650882 0)
(2.02278 0.0106328 0)
(1.99567 0.0198387 0)
(1.89357 0.0624705 0)
(1.7141 0.133116 0)
(1.66677 0.137739 0)
(1.65851 0.132383 0)
(1.64244 0.135381 0)
(1.63875 0.170134 0)
(2.03588 -0.00436375 0)
(2.02837 -0.00125566 0)
(2.01814 0.00156217 0)
(1.99793 0.00886897 0)
(1.93002 0.0391435 0)
(1.76985 0.129054 0)
(1.67169 0.141398 0)
(1.66214 0.143003 0)
(1.65069 0.150749 0)
(1.64712 0.171119 0)
(3 3.51576e-15 0)
(3 -8.18405e-14 0)
(3 -1.49347e-09 0)
(2.99987 9.39996e-08 0)
(2.99396 -3.11587e-06 0)
(2.85446 4.22071e-05 0)
(2.32236 -0.000115836 0)
(2.08157 -0.000137656 0)
(2.05615 0.000251511 0)
(1.63328 0.0283348 0)
(3 4.94578e-14 0)
(3 -3.29484e-13 0)
(3 -3.84176e-09 0)
(2.99987 2.39468e-07 0)
(2.99396 -8.03059e-06 0)
(2.85443 0.000117427 0)
(2.32278 -0.000376378 0)
(2.08109 -0.00023024 0)
(2.05588 0.000791357 0)
(1.69941 0.0866206 0)
(3 6.51084e-14 0)
(3 -4.81519e-13 0)
(3 -5.87586e-09 0)
(2.99987 3.66179e-07 0)
(2.99397 -1.23192e-05 0)
(2.85436 0.000186653 0)
(2.32383 -0.000681753 0)
(2.07934 7.68184e-05 0)
(2.05548 0.00101611 0)
(1.78902 0.101318 0)
(3 3.25579e-13 0)
(3 -4.57484e-13 0)
(3 -7.34449e-09 0)
(2.99987 4.58113e-07 0)
(2.99397 -1.51924e-05 0)
(2.85427 0.000224608 0)
(2.32518 -0.000734692 0)
(2.07659 0.000122969 0)
(2.05566 0.00115506 0)
(1.85961 0.0921142 0)
(3 1.48529e-13 0)
(3 -2.36717e-13 0)
(3 -8.27151e-09 0)
(2.99987 5.19086e-07 0)
(2.99397 -1.68516e-05 0)
(2.85421 0.000229564 0)
(2.32614 -0.000672048 0)
(2.07421 0.00029376 0)
(2.05661 0.00085871 0)
(1.89524 0.0696856 0)
(3 -1.84954e-13 0)
(3 -3.65853e-14 0)
(3 -8.54507e-09 0)
(2.99987 5.37663e-07 0)
(2.99397 -1.70187e-05 0)
(2.85419 0.000208363 0)
(2.32656 -0.000469979 0)
(2.07279 0.00029401 0)
(2.05811 7.9281e-07 0)
(1.91095 0.0540741 0)
(3 -3.10169e-13 0)
(3 1.35256e-13 0)
(3 -8.4138e-09 0)
(2.99987 5.40293e-07 0)
(2.99397 -1.69015e-05 0)
(2.85418 0.000190734 0)
(2.32668 -0.000317811 0)
(2.07209 0.000247172 0)
(2.05961 -0.000937087 0)
(1.92675 0.0420581 0)
(3 -3.31881e-13 0)
(3 3.49467e-13 0)
(3 -7.6373e-09 0)
(2.99987 5.02422e-07 0)
(2.99397 -1.58723e-05 0)
(2.85419 0.000176848 0)
(2.3266 -0.00024996 0)
(2.07184 0.000179819 0)
(2.06078 -0.00186109 0)
(1.93816 0.0343858 0)
(3 -3.94533e-13 0)
(3 5.5939e-13 0)
(3 -6.44489e-09 0)
(2.99987 4.28976e-07 0)
(2.99397 -1.35262e-05 0)
(2.85419 0.000153755 0)
(2.32647 -0.000294063 0)
(2.07185 0.000176874 0)
(2.06147 -0.00258434 0)
(1.94771 0.0295076 0)
(3 -1.93459e-13 0)
(3 5.42068e-13 0)
(3 -5.43648e-09 0)
(2.99987 3.58055e-07 0)
(2.99397 -1.06278e-05 0)
(2.85418 0.000113032 0)
(2.32642 -0.000256092 0)
(2.07191 0.000196526 0)
(2.06182 -0.00311489 0)
(1.95525 0.027638 0)
(3 -1.41318e-13 0)
(3 4.05373e-13 0)
(3 -4.42257e-09 0)
(2.99987 2.8765e-07 0)
(2.99397 -8.09262e-06 0)
(2.85415 7.30274e-05 0)
(2.32645 -0.000180813 0)
(2.07192 0.000169332 0)
(2.06211 -0.00337924 0)
(1.96293 0.0294464 0)
(3 2.44575e-13 0)
(3 2.12521e-13 0)
(3 -3.63777e-09 0)
(2.99987 2.32561e-07 0)
(2.99397 -6.33061e-06 0)
(2.85411 5.96201e-05 0)
(2.32662 -0.000187893 0)
(2.07187 0.000165545 0)
(2.06243 -0.00364512 0)
(1.97058 0.031758 0)
(3 5.17401e-13 0)
(3 -6.61151e-14 0)
(3 -3.12043e-09 0)
(2.99987 1.93157e-07 0)
(2.99397 -5.00155e-06 0)
(2.85407 4.31819e-05 0)
(2.3269 -0.000147372 0)
(2.07174 0.000169994 0)
(2.06251 -0.0039997 0)
(1.9793 0.0334301 0)
(3 4.09786e-13 0)
(3 -2.29151e-13 0)
(3 -2.81889e-09 0)
(2.99987 1.65087e-07 0)
(2.99397 -4.30577e-06 0)
(2.85403 4.11036e-05 0)
(2.32719 -0.000118859 0)
(2.07157 0.000131364 0)
(2.06242 -0.00414421 0)
(1.9907 0.0296191 0)
(3 2.54932e-13 0)
(3 -3.71925e-13 0)
(3 -2.99606e-09 0)
(2.99987 1.58692e-07 0)
(2.99397 -3.81051e-06 0)
(2.85401 3.74516e-05 0)
(2.32741 -0.000108218 0)
(2.07144 0.000126221 0)
(2.06188 -0.00405432 0)
(2.00596 0.0256334 0)
(3 -5.91636e-14 0)
(3 -3.85591e-13 0)
(3 -3.42695e-09 0)
(2.99987 1.86898e-07 0)
(2.99397 -4.93857e-06 0)
(2.854 6.66899e-05 0)
(2.32751 -0.000236294 0)
(2.07139 0.000232462 0)
(2.06116 -0.00401734 0)
(2.0236 0.0205014 0)
(3 -3.61994e-13 0)
(3 -1.47231e-13 0)
(3 -3.76766e-09 0)
(2.99987 2.1851e-07 0)
(2.99397 -6.7867e-06 0)
(2.85401 0.000109858 0)
(2.3275 -0.000398883 0)
(2.07143 0.000407827 0)
(2.06052 -0.00387632 0)
(2.03991 0.0127602 0)
(3 -8.33231e-13 0)
(3 3.97364e-14 0)
(3 -4.07906e-09 0)
(2.99987 2.46602e-07 0)
(2.99397 -8.33147e-06 0)
(2.85402 0.000146701 0)
(2.32742 -0.000544547 0)
(2.07148 0.00063289 0)
(2.06028 -0.00363188 0)
(2.04979 0.00421632 0)
(3 -1.25276e-12 0)
(3 1.31026e-14 0)
(3 -4.26938e-09 0)
(2.99987 2.69933e-07 0)
(2.99397 -9.80852e-06 0)
(2.85403 0.000184889 0)
(2.32734 -0.000722535 0)
(2.07149 0.000831802 0)
(2.06004 -0.00289236 0)
(2.05372 -0.00373363 0)
(3 -1.4339e-12 0)
(3 1.22004e-13 0)
(3 -4.25788e-09 0)
(2.99987 2.86788e-07 0)
(2.99397 -1.09183e-05 0)
(2.85404 0.000212165 0)
(2.32724 -0.000852071 0)
(2.07169 0.000937548 0)
(2.05941 -0.00191606 0)
(2.05302 -0.0140702 0)
(3 1.44349e-12 0)
(3 -1.26672e-13 0)
(3 4.25802e-09 0)
(2.99987 -2.86786e-07 0)
(2.99397 1.09183e-05 0)
(2.85404 -0.000212164 0)
(2.32724 0.000852072 0)
(2.07169 -0.000937546 0)
(2.05941 0.00191603 0)
(2.05302 0.0140702 0)
(3 1.21499e-12 0)
(3 -8.72777e-14 0)
(3 4.26938e-09 0)
(2.99987 -2.69932e-07 0)
(2.99397 9.80843e-06 0)
(2.85403 -0.000184887 0)
(2.32734 0.000722527 0)
(2.07149 -0.00083179 0)
(2.06004 0.00289231 0)
(2.05372 0.00373362 0)
(3 8.91843e-13 0)
(3 4.80771e-14 0)
(3 4.07904e-09 0)
(2.99987 -2.466e-07 0)
(2.99397 8.33134e-06 0)
(2.85402 -0.000146698 0)
(2.32742 0.000544532 0)
(2.07148 -0.000632874 0)
(2.06028 0.00363182 0)
(2.04979 -0.0042163 0)
(3 4.16176e-13 0)
(3 2.54949e-13 0)
(3 3.76782e-09 0)
(2.99987 -2.18508e-07 0)
(2.99397 6.78654e-06 0)
(2.85401 -0.000109854 0)
(2.3275 0.000398865 0)
(2.07143 -0.000407813 0)
(2.06052 0.00387628 0)
(2.0399 -0.0127601 0)
(3 -2.75815e-14 0)
(3 3.09731e-13 0)
(3 3.42667e-09 0)
(2.99987 -1.86897e-07 0)
(2.99397 4.93838e-06 0)
(2.854 -6.66844e-05 0)
(2.32751 0.000236274 0)
(2.07139 -0.000232448 0)
(2.06116 0.0040173 0)
(2.0236 -0.0205012 0)
(3 -3.28206e-13 0)
(3 3.68726e-13 0)
(3 2.99605e-09 0)
(2.99987 -1.5869e-07 0)
(2.99397 3.8103e-06 0)
(2.85401 -3.74456e-05 0)
(2.32741 0.000108196 0)
(2.07144 -0.000126208 0)
(2.06188 0.00405428 0)
(2.00596 -0.0256332 0)
(3 -4.20556e-13 0)
(3 3.63632e-13 0)
(3 2.81911e-09 0)
(2.99987 -1.65086e-07 0)
(2.99397 4.30557e-06 0)
(2.85403 -4.10973e-05 0)
(2.32719 0.000118837 0)
(2.07157 -0.00013135 0)
(2.06242 0.00414416 0)
(1.9907 -0.0296189 0)
(3 -6.59291e-13 0)
(3 1.06384e-13 0)
(3 3.1206e-09 0)
(2.99987 -1.93157e-07 0)
(2.99397 5.00136e-06 0)
(2.85407 -4.31755e-05 0)
(2.3269 0.000147349 0)
(2.07174 -0.000169976 0)
(2.06251 0.00399963 0)
(1.9793 -0.0334298 0)
(3 -4.59445e-13 0)
(3 -1.47713e-13 0)
(3 3.6381e-09 0)
(2.99987 -2.32562e-07 0)
(2.99397 6.33044e-06 0)
(2.85411 -5.96136e-05 0)
(2.32662 0.000187868 0)
(2.07187 -0.000165524 0)
(2.06243 0.00364504 0)
(1.97058 -0.0317576 0)
(3 8.08074e-14 0)
(3 -3.06099e-13 0)
(3 4.42308e-09 0)
(2.99987 -2.87652e-07 0)
(2.99397 8.0925e-06 0)
(2.85415 -7.30212e-05 0)
(2.32645 0.000180785 0)
(2.07192 -0.000169308 0)
(2.06211 0.00337914 0)
(1.96293 -0.029446 0)
(3 2.63827e-13 0)
(3 -5.67642e-13 0)
(3 5.43658e-09 0)
(2.99987 -3.58058e-07 0)
(2.99397 1.06277e-05 0)
(2.85418 -0.000113026 0)
(2.32642 0.000256066 0)
(2.07191 -0.000196499 0)
(2.06182 0.00311481 0)
(1.95525 -0.0276377 0)
(3 5.78544e-13 0)
(3 -6.56424e-13 0)
(3 6.44466e-09 0)
(2.99987 -4.28981e-07 0)
(2.99397 1.35262e-05 0)
(2.85419 -0.000153751 0)
(2.32647 0.000294042 0)
(2.07185 -0.000176852 0)
(2.06147 0.00258429 0)
(1.94771 -0.0295075 0)
(3 3.87726e-13 0)
(3 -5.90066e-13 0)
(3 7.63712e-09 0)
(2.99987 -5.02429e-07 0)
(2.99397 1.58724e-05 0)
(2.85419 -0.000176846 0)
(2.3266 0.000249946 0)
(2.07184 -0.000179804 0)
(2.06078 0.00186106 0)
(1.93816 -0.0343857 0)
(3 3.63944e-13 0)
(3 -2.32676e-13 0)
(3 8.41363e-09 0)
(2.99987 -5.40302e-07 0)
(2.99397 1.69016e-05 0)
(2.85418 -0.000190734 0)
(2.32668 0.000317807 0)
(2.07209 -0.000247164 0)
(2.05961 0.000937068 0)
(1.92675 -0.042058 0)
(3 3.31154e-13 0)
(3 1.48794e-13 0)
(3 8.54536e-09 0)
(2.99987 -5.37672e-07 0)
(2.99397 1.70189e-05 0)
(2.85419 -0.000208367 0)
(2.32656 0.000469992 0)
(2.07279 -0.000294014 0)
(2.05811 -7.73904e-07 0)
(1.91095 -0.0540741 0)
(3 -9.6614e-14 0)
(3 2.79059e-13 0)
(3 8.27163e-09 0)
(2.99987 -5.19096e-07 0)
(2.99397 1.6852e-05 0)
(2.85421 -0.000229572 0)
(2.32614 0.00067208 0)
(2.07421 -0.000293789 0)
(2.05661 -0.00085867 0)
(1.89524 -0.0696857 0)
(3 -2.94464e-13 0)
(3 4.42933e-13 0)
(3 7.34459e-09 0)
(2.99987 -4.58125e-07 0)
(2.99397 1.51929e-05 0)
(2.85427 -0.000224619 0)
(2.32518 0.000734739 0)
(2.07659 -0.000123018 0)
(2.05566 -0.001155 0)
(1.85961 -0.0921143 0)
(3 -2.33999e-13 0)
(3 4.25312e-13 0)
(3 5.87619e-09 0)
(2.99987 -3.66191e-07 0)
(2.99397 1.23198e-05 0)
(2.85436 -0.000186664 0)
(2.32383 0.000681794 0)
(2.07934 -7.68807e-05 0)
(2.05548 -0.00101603 0)
(1.78902 -0.101318 0)
(3 -1.21622e-13 0)
(3 2.26432e-13 0)
(3 3.84177e-09 0)
(2.99987 -2.39481e-07 0)
(2.99396 8.03116e-06 0)
(2.85443 -0.000117439 0)
(2.32278 0.000376435 0)
(2.08109 0.000230135 0)
(2.05588 -0.000791256 0)
(1.69941 -0.0866207 0)
(3 2.92808e-14 0)
(3 1.36811e-13 0)
(3 1.49362e-09 0)
(2.99987 -9.40126e-08 0)
(2.99396 3.11645e-06 0)
(2.85446 -4.22191e-05 0)
(2.32236 0.000115879 0)
(2.08157 0.0001376 0)
(2.05615 -0.000251386 0)
(1.63328 -0.028335 0)
(2.03588 0.00436377 0)
(2.02837 0.00125589 0)
(2.01813 -0.00156249 0)
(1.99793 -0.00886926 0)
(1.93001 -0.0391433 0)
(1.76985 -0.129054 0)
(1.67169 -0.141398 0)
(1.66214 -0.143002 0)
(1.65069 -0.150749 0)
(1.64712 -0.171119 0)
(2.04122 -0.00405644 0)
(2.03396 -0.00650839 0)
(2.02277 -0.0106322 0)
(1.99567 -0.019838 0)
(1.89357 -0.0624693 0)
(1.71411 -0.133116 0)
(1.66677 -0.137739 0)
(1.65851 -0.132382 0)
(1.64244 -0.135381 0)
(1.63876 -0.170134 0)
(2.04112 -0.0108549 0)
(2.03668 -0.0125959 0)
(2.02736 -0.0161146 0)
(1.99384 -0.0255569 0)
(1.858 -0.0747409 0)
(1.6918 -0.12327 0)
(1.66663 -0.129068 0)
(1.65749 -0.118309 0)
(1.64222 -0.119052 0)
(1.64001 -0.165464 0)
(2.03079 -0.0222845 0)
(2.02864 -0.0247442 0)
(2.02209 -0.0271235 0)
(1.98089 -0.034321 0)
(1.81991 -0.0791359 0)
(1.68687 -0.113146 0)
(1.67136 -0.119308 0)
(1.66731 -0.106762 0)
(1.65647 -0.103635 0)
(1.65602 -0.158028 0)
(2.01161 -0.0358122 0)
(2.01091 -0.0386711 0)
(2.00375 -0.0410919 0)
(1.94931 -0.0485812 0)
(1.77692 -0.0864016 0)
(1.68133 -0.103626 0)
(1.67457 -0.107244 0)
(1.6785 -0.0948494 0)
(1.67959 -0.0951325 0)
(1.6853 -0.15405 0)
(1.98465 -0.0457429 0)
(1.98158 -0.0500921 0)
(1.9697 -0.0548876 0)
(1.89769 -0.0661346 0)
(1.7328 -0.0924784 0)
(1.67152 -0.095773 0)
(1.67263 -0.095803 0)
(1.68405 -0.0862424 0)
(1.69886 -0.0927672 0)
(1.71736 -0.154134 0)
(1.96282 -0.0510805 0)
(1.955 -0.0569453 0)
(1.93663 -0.0644093 0)
(1.84603 -0.078679 0)
(1.6923 -0.0951877 0)
(1.65685 -0.0951417 0)
(1.66272 -0.090539 0)
(1.68038 -0.083969 0)
(1.70731 -0.0996683 0)
(1.74131 -0.162522 0)
(1.93989 -0.055472 0)
(1.92746 -0.060848 0)
(1.90271 -0.068828 0)
(1.79444 -0.0835302 0)
(1.6544 -0.0946933 0)
(1.63458 -0.0953874 0)
(1.64411 -0.0920542 0)
(1.66662 -0.0893085 0)
(1.70598 -0.111422 0)
(1.75241 -0.176459 0)
(1.91677 -0.053696 0)
(1.90311 -0.0587849 0)
(1.87345 -0.0670794 0)
(1.75033 -0.0809131 0)
(1.62538 -0.0949271 0)
(1.61086 -0.100201 0)
(1.62013 -0.0993356 0)
(1.64505 -0.102905 0)
(1.69399 -0.133389 0)
(1.75013 -0.196698 0)
(1.89817 -0.0479136 0)
(1.88312 -0.0547399 0)
(1.84852 -0.0651644 0)
(1.71124 -0.0798676 0)
(1.60301 -0.103145 0)
(1.5897 -0.122633 0)
(1.59592 -0.122328 0)
(1.61404 -0.137207 0)
(1.66545 -0.17946 0)
(1.7311 -0.231835 0)
(1.88462 -0.0458362 0)
(1.86849 -0.0533799 0)
(1.82722 -0.0645112 0)
(1.67256 -0.0858029 0)
(1.57109 -0.127878 0)
(1.55973 -0.173092 0)
(1.56122 -0.185054 0)
(1.58346 -0.208373 0)
(1.63399 -0.259789 0)
(1.70515 -0.293634 0)
(1.87445 -0.0482017 0)
(1.85816 -0.0552986 0)
(1.79968 -0.0718337 0)
(1.59945 -0.124545 0)
(1.50753 -0.199406 0)
(1.50602 -0.261008 0)
(1.50724 -0.279362 0)
(1.54153 -0.309291 0)
(1.59559 -0.360766 0)
(1.67788 -0.382666 0)
(1.86549 -0.0538614 0)
(1.844 -0.0635999 0)
(1.71229 -0.121551 0)
(1.4589 -0.222461 0)
(1.42495 -0.306141 0)
(1.4354 -0.355705 0)
(1.44851 -0.37378 0)
(1.49426 -0.410971 0)
(1.55888 -0.46419 0)
(1.64216 -0.490299 0)
(1.84558 -0.0684661 0)
(1.7889 -0.102696 0)
(1.47071 -0.25526 0)
(1.33275 -0.335157 0)
(1.35806 -0.394132 0)
(1.36785 -0.41976 0)
(1.39099 -0.444194 0)
(1.44516 -0.493684 0)
(1.50673 -0.562926 0)
(1.60847 -0.598421 0)
(1.79824 -0.112103 0)
(1.56162 -0.250388 0)
(1.27939 -0.363342 0)
(1.27716 -0.408768 0)
(1.29225 -0.440885 0)
(1.30019 -0.461183 0)
(1.32519 -0.497577 0)
(1.38085 -0.561628 0)
(1.461 -0.646187 0)
(1.57296 -0.684823 0)
(1.60113 -0.232913 0)
(1.26593 -0.362429 0)
(1.19157 -0.412315 0)
(1.20983 -0.441929 0)
(1.22336 -0.460707 0)
(1.23468 -0.488215 0)
(1.26087 -0.53867 0)
(1.3163 -0.618962 0)
(1.40941 -0.697462 0)
(1.52518 -0.731966 0)
(1.26347 -0.309537 0)
(1.06652 -0.376908 0)
(1.10096 -0.418842 0)
(1.11736 -0.447264 0)
(1.14163 -0.467188 0)
(1.16601 -0.498761 0)
(1.20015 -0.559361 0)
(1.25331 -0.647474 0)
(1.33478 -0.718517 0)
(1.4499 -0.747732 0)
(1.04093 -0.269045 0)
(0.932323 -0.323427 0)
(1.00042 -0.364709 0)
(1.02227 -0.413985 0)
(1.06483 -0.456522 0)
(1.11633 -0.511244 0)
(1.17395 -0.58551 0)
(1.22148 -0.659868 0)
(1.27773 -0.704806 0)
(1.37884 -0.743433 0)
(0.854084 -0.269721 0)
(0.810817 -0.335077 0)
(0.899587 -0.386312 0)
(0.950781 -0.451499 0)
(1.0182 -0.502651 0)
(1.09508 -0.557525 0)
(1.15913 -0.618269 0)
(1.20353 -0.670906 0)
(1.24554 -0.704487 0)
(1.31978 -0.73935 0)
(0.753909 -0.194605 0)
(0.769779 -0.287179 0)
(0.878827 -0.359023 0)
(0.947421 -0.4381 0)
(1.02239 -0.49674 0)
(1.11212 -0.554782 0)
(1.17898 -0.615225 0)
(1.21177 -0.664434 0)
(1.24212 -0.696762 0)
(1.30323 -0.718275 0)
(1.67598 -0.189977 0)
(1.58237 -0.168935 0)
(1.31665 -0.0342678 0)
(1.24923 0.111677 0)
(1.1763 0.17003 0)
(1.13307 0.155688 0)
(1.09059 0.117255 0)
(1.07678 0.0648363 0)
(1.08665 0.0223252 0)
(1.09628 0.00283714 0)
(1.67266 -0.200032 0)
(1.59089 -0.170502 0)
(1.33735 -0.0193276 0)
(1.26381 0.132663 0)
(1.18025 0.189967 0)
(1.13502 0.170431 0)
(1.08616 0.124292 0)
(1.07231 0.0670324 0)
(1.08432 0.0236695 0)
(1.0958 0.00318599 0)
(1.67796 -0.203876 0)
(1.6056 -0.170917 0)
(1.35637 -0.00440816 0)
(1.27616 0.156699 0)
(1.18234 0.207346 0)
(1.12981 0.178351 0)
(1.07855 0.12482 0)
(1.0677 0.068651 0)
(1.08192 0.0251552 0)
(1.09526 0.00356021 0)
(1.69928 -0.211087 0)
(1.62802 -0.169459 0)
(1.37759 0.0135646 0)
(1.28532 0.183454 0)
(1.187 0.223253 0)
(1.12566 0.186624 0)
(1.07197 0.128014 0)
(1.06333 0.0703886 0)
(1.07947 0.0266928 0)
(1.09468 0.00396921 0)
(1.73211 -0.216884 0)
(1.65375 -0.167878 0)
(1.40258 0.0363369 0)
(1.2952 0.214303 0)
(1.19049 0.231296 0)
(1.11919 0.187418 0)
(1.06474 0.125971 0)
(1.05922 0.0713873 0)
(1.07702 0.0285088 0)
(1.09404 0.00445809 0)
(1.77343 -0.221304 0)
(1.68923 -0.160529 0)
(1.43135 0.0651573 0)
(1.30092 0.240686 0)
(1.19376 0.236047 0)
(1.11078 0.17549 0)
(1.05765 0.118347 0)
(1.05546 0.0709723 0)
(1.07453 0.0302793 0)
(1.09332 0.00501457 0)
(1.81381 -0.223359 0)
(1.72858 -0.148063 0)
(1.46255 0.0991927 0)
(1.30002 0.252966 0)
(1.19669 0.225514 0)
(1.10053 0.144895 0)
(1.05273 0.105536 0)
(1.0526 0.0693219 0)
(1.07199 0.031792 0)
(1.09251 0.00559635 0)
(1.84345 -0.227965 0)
(1.76907 -0.130873 0)
(1.49731 0.142257 0)
(1.29952 0.259168 0)
(1.19405 0.18286 0)
(1.09198 0.115312 0)
(1.04843 0.0945046 0)
(1.05034 0.0662754 0)
(1.06939 0.0321973 0)
(1.09161 0.00607117 0)
(1.85724 -0.235878 0)
(1.81236 -0.108139 0)
(1.51629 0.178801 0)
(1.30766 0.25345 0)
(1.18419 0.14377 0)
(1.08554 0.1017 0)
(1.047 0.0888197 0)
(1.04863 0.062361 0)
(1.06688 0.031466 0)
(1.09067 0.00636876 0)
(1.85824 -0.252063 0)
(1.8467 -0.0917294 0)
(1.51855 0.194897 0)
(1.32466 0.233973 0)
(1.16808 0.123899 0)
(1.08047 0.0987814 0)
(1.0448 0.0858953 0)
(1.04661 0.058887 0)
(1.06468 0.0300492 0)
(1.08976 0.00644705 0)
(1.85551 -0.291852 0)
(1.88115 -0.0887072 0)
(1.53479 0.222093 0)
(1.32912 0.22573 0)
(1.15356 0.118152 0)
(1.07654 0.102674 0)
(1.04341 0.0852177 0)
(1.04457 0.0561763 0)
(1.06284 0.0285139 0)
(1.08891 0.00637446 0)
(1.85468 -0.35075 0)
(1.92201 -0.093773 0)
(1.54428 0.238511 0)
(1.32517 0.2249 0)
(1.1444 0.121937 0)
(1.073 0.108479 0)
(1.04174 0.0854553 0)
(1.04225 0.0540953 0)
(1.06113 0.0271225 0)
(1.08814 0.00620616 0)
(1.85669 -0.413232 0)
(1.96607 -0.107885 0)
(1.55665 0.256387 0)
(1.32039 0.228787 0)