/*--------------------------------*- C++ -*----------------------------------*\
  =========                 |
  \\      /  F ield         | OpenFOAM: The Open Source CFD Toolbox
   \\    /   O peration     | Website:  https://openfoam.org
    \\  /    A nd           | Version:  7
     \\/     M anipulation  |
\*---------------------------------------------------------------------------*/
FoamFile
{
    version     2.0;
    format      ascii;
    class       volVectorField;
    location    "0.7";
    object      U;
}
// * * * * * * * * * * * * * * * * * * * * * * * * * * * * * * * * * * * * * //

dimensions      [0 1 -1 0 0 0 0];

internalField   nonuniform List<vector> 
325
(
(0.626658 0.198836 0)
(0.685356 0.262622 0)
(3.00123 -6.19367e-05 0)
(1.63358 0.0498915 0)
(3.00112 -0.000147943 0)
(3.00001 0.000127421 0)
(2.99204 -0.0137226 0)
(3.00002 0.000145706 0)
(2.98913 -0.0206465 0)
(3.00004 0.000166598 0)
(2.98445 -0.0306234 0)
(3.00005 0.000187815 0)
(2.97778 -0.0454098 0)
(3.00007 0.000212306 0)
(2.97004 -0.0627193 0)
(3.00009 0.00023611 0)
(2.95274 -0.0972505 0)
(3.00011 0.000263525 0)
(2.93869 -0.113528 0)
(3.00014 0.000286917 0)
(2.90627 -0.149685 0)
(3.00016 0.000313087 0)
(2.86837 -0.184652 0)
(3.00018 0.000331655 0)
(2.82025 -0.226462 0)
(3.00021 0.000353881 0)
(2.75441 -0.273997 0)
(3.00025 0.00036708 0)
(2.66687 -0.320109 0)
(3.00033 0.000380585 0)
(2.53815 -0.366269 0)
(3.00041 0.000379398 0)
(2.36823 -0.383094 0)
(3.00052 0.000363847 0)
(2.19812 -0.370911 0)
(3.00067 0.000332847 0)
(2.05258 -0.336175 0)
(3.00085 0.000290421 0)
(1.9205 -0.290948 0)
(3.00099 0.000205234 0)
(1.79791 -0.230973 0)
(3.00113 0.00014749 0)
(1.69118 -0.157123 0)
(3.00123 5.93125e-05 0)
(1.63345 -0.0494952 0)
(2.98623 -0.0236169 0)
(2.98419 -0.0278352 0)
(2.98262 -0.0297602 0)
(2.97945 -0.0363056 0)
(2.97698 -0.040373 0)
(2.97335 -0.0450861 0)
(2.98037 -0.0378028 0)
(2.97889 -0.0405031 0)
(2.97579 -0.0468476 0)
(2.97438 -0.0497203 0)
(2.97037 -0.0578358 0)
(2.96908 -0.0641422 0)
(2.97274 -0.0548834 0)
(2.97131 -0.0574378 0)
(2.9681 -0.0651046 0)
(2.9664 -0.0674355 0)
(2.96282 -0.0782128 0)
(3.01214 -0.0875979 0)
(2.96226 -0.0795271 0)
(2.96105 -0.0815837 0)
(2.95733 -0.0908269 0)
(2.95482 -0.0939759 0)
(2.94954 -0.105763 0)
(2.74698 -0.375202 0)
(2.9555 -0.0938917 0)
(2.95088 -0.10341 0)
(2.94859 -0.109149 0)
(2.94166 -0.126402 0)
(2.96041 -0.136814 0)
(2.01756 -0.760517 0)
(2.93613 -0.123648 0)
(2.92923 -0.14015 0)
(2.9284 -0.141513 0)
(2.91798 -0.166744 0)
(2.81795 -0.398827 0)
(1.76962 -0.98108 0)
(2.90165 -0.183706 0)
(2.8969 -0.192174 0)
(2.88716 -0.211201 0)
(2.86401 -0.273995 0)
(2.11929 -0.85528 0)
(1.70303 -0.986904 0)
(2.86749 -0.220468 0)
(2.85983 -0.236522 0)
(2.84509 -0.268784 0)
(2.43785 -0.683383 0)
(1.74244 -1.01225 0)
(1.65209 -0.966016 0)
(2.8137 -0.270665 0)
(2.79803 -0.302386 0)
(2.59317 -0.53536 0)
(1.85372 -0.939223 0)
(1.61402 -0.975585 0)
(1.63005 -0.945068 0)
(2.71489 -0.372412 0)
(2.64635 -0.468335 0)
(1.92866 -0.861334 0)
(1.5597 -0.941393 0)
(1.56715 -0.915302 0)
(1.56043 -0.864017 0)
(2.52808 -0.514678 0)
(2.09347 -0.764725 0)
(1.49831 -0.88437 0)
(1.4767 -0.855979 0)
(1.44211 -0.81412 0)
(1.40456 -0.763396 0)
(2.10928 -0.69163 0)
(1.53976 -0.845892 0)
(1.36452 -0.782995 0)
(1.31617 -0.740834 0)
(1.2662 -0.693165 0)
(1.23545 -0.643184 0)
(1.62517 -0.732757 0)
(1.2523 -0.741739 0)
(1.18165 -0.6887 0)
(1.13678 -0.626638 0)
(1.10361 -0.582836 0)
(1.09295 -0.554842 0)
(1.29009 -0.615745 0)
(1.08146 -0.600078 0)
(1.04628 -0.567021 0)
(1.01042 -0.535505 0)
(0.997967 -0.511692 0)
(1.00693 -0.497992 0)
(1.10194 -0.491227 0)
(0.975462 -0.507965 0)
(0.96093 -0.500958 0)
(0.942694 -0.499104 0)
(0.94021 -0.494836 0)
(0.955205 -0.491387 0)
(0.991067 -0.403786 0)
(0.91535 -0.430071 0)
(0.921153 -0.447957 0)
(0.914588 -0.459929 0)
(0.918875 -0.466812 0)
(0.934243 -0.478595 0)
(0.894817 -0.347927 0)
(0.83881 -0.384208 0)
(0.864264 -0.414544 0)
(0.867165 -0.438676 0)
(0.885157 -0.461536 0)
(0.912734 -0.482662 0)
(0.796225 -0.286717 0)
(0.765797 -0.326943 0)
(0.809938 -0.358453 0)
(0.832974 -0.404377 0)
(0.868569 -0.447459 0)
(0.905346 -0.484438 0)
(0.68061 -0.263018 0)
(0.695214 -0.315192 0)
(0.755754 -0.371546 0)
(0.804431 -0.428899 0)
(0.855754 -0.473029 0)
(0.902699 -0.508422 0)
(0.626586 -0.19866 0)
(0.685342 -0.262503 0)
(0.761681 -0.340676 0)
(0.821445 -0.408888 0)
(0.872638 -0.459184 0)
(0.917622 -0.497318 0)
(2.99997 -4.83613e-08 0)
(2.99641 -0.000146365 0)
(2.99997 -6.56728e-07 0)
(2.99642 -0.00041428 0)
(2.99997 -1.5966e-06 0)
(2.99649 -0.000602946 0)
(2.99996 -3.33822e-06 0)
(2.99655 -0.000661056 0)
(2.99996 -5.96448e-06 0)
(2.99662 -0.000635465 0)
(2.99996 -9.75406e-06 0)
(2.99669 -0.000544009 0)
(2.99996 -1.39968e-05 0)
(2.99672 -0.000408415 0)
(2.99996 -1.92084e-05 0)
(2.99666 -0.000262419 0)
(2.99996 -2.61613e-05 0)
(2.99665 8.69424e-05 0)
(2.99996 -3.00195e-05 0)
(2.99669 0.000317223 0)
(2.99996 -3.14165e-05 0)
(2.99664 0.000337407 0)
(2.99997 -3.23115e-05 0)
(2.99648 0.000545979 0)
(2.99997 -2.88952e-05 0)
(2.99639 0.000379376 0)
(2.99997 -2.08619e-05 0)
(2.99643 0.000210268 0)
(2.99997 -7.14063e-06 0)
(2.99649 0.000166109 0)
(2.99997 1.46187e-05 0)
(2.99658 7.39397e-05 0)
(2.99997 3.84246e-05 0)
(2.99656 -0.00054236 0)
(2.99998 6.33501e-05 0)
(2.99633 -0.00182791 0)
(2.99999 8.41255e-05 0)
(2.99563 -0.00404754 0)
(3 0.000107022 0)
(2.99422 -0.00786076 0)
(2.99391 -0.000142925 0)
(2.99328 -1.51225e-05 0)
(2.99245 -0.000204376 0)
(2.99143 0.000182179 0)
(2.99015 -0.000289598 0)
(2.98858 0.000402635 0)
(2.99391 -3.85143e-05 0)
(2.99327 -8.0055e-06 0)
(2.99244 -3.44427e-05 0)
(2.99139 0.000213474 0)
(2.99012 -8.48647e-05 0)
(2.98849 0.000426854 0)
(2.99394 4.73546e-05 0)
(2.99331 -0.0001237 0)
(2.99247 0.000190228 0)
(2.99141 -2.28955e-05 0)
(2.99013 0.000286458 0)
(2.98847 0.000150648 0)
(2.99402 3.5416e-05 0)
(2.9934 -0.000172549 0)
(2.99255 0.000288425 0)
(2.99151 -0.000135778 0)
(2.9902 0.000602848 0)
(2.98856 -0.000105142 0)
(2.99412 6.13978e-05 0)
(2.99351 -0.000141437 0)
(2.99265 0.000350138 0)
(2.99163 -9.11096e-05 0)
(2.99031 0.000744903 0)
(2.98872 -4.75065e-05 0)
(2.99423 0.000130311 0)
(2.99363 -5.92091e-05 0)
(2.99278 0.000425833 0)
(2.99176 -1.18779e-05 0)
(2.99043 0.000835413 0)
(2.98884 1.72577e-05 0)
(2.9943 0.000191357 0)
(2.99369 2.03948e-05 0)
(2.99284 0.000479526 0)
(2.99181 5.5243e-05 0)
(2.99046 0.00085412 0)
(2.98885 6.42967e-05 0)
(2.99425 0.000139382 0)
(2.99364 2.12276e-05 0)
(2.99279 0.000345262 0)
(2.99175 4.58662e-05 0)
(2.99039 0.000571616 0)
(2.98874 0.000138711 0)
(2.99425 3.71319e-05 0)
(2.99363 0.000161986 0)
(2.99275 -2.50456e-05 0)
(2.9917 0.000281824 0)
(2.9903 -0.000128103 0)
(2.98865 0.000502276 0)
(2.99428 -0.000126426 0)
(2.99366 8.24109e-05 0)
(2.99279 -0.000370385 0)
(2.99172 0.000148287 0)
(2.99035 -0.000652541 0)
(2.98865 0.000322021 0)
(2.99416 -0.000314402 0)
(2.99355 -0.000105369 0)
(2.99271 -0.000580563 0)
(2.99165 -4.98461e-05 0)
(2.99032 -0.00080892 0)
(2.98864 0.000126797 0)
(2.99396 -0.000131897 0)
(2.99335 6.01801e-05 0)
(2.99254 -0.000316394 0)
(2.99152 0.000154493 0)
(2.99025 -0.000478929 0)
(2.9886 0.000338055 0)
(2.99389 0.000296176 0)
(2.99324 0.000342607 0)
(2.99243 0.00024881 0)
(2.99138 0.000533968 0)
(2.99012 0.000272234 0)
(2.98848 0.000611633 0)
(2.99394 0.000532465 0)
(2.99331 0.000368834 0)
(2.99245 0.000629881 0)
(2.99138 0.000482042 0)
(2.99009 0.000879208 0)
(2.98846 0.00029757 0)
(2.994 0.000256616 0)
(2.99338 0.000185595 0)
(2.9925 0.000330635 0)
(2.99147 0.000289981 0)
(2.9902 0.000687521 0)
(2.98865 0.000102482 0)
(2.99416 -0.000254314 0)
(2.99354 -0.000118711 0)
(2.99272 -0.000358781 0)
(2.99172 8.44165e-05 0)
(2.9904 -0.000298386 0)
(2.98891 0.000246015 0)
(2.99421 -0.00066903 0)
(2.99359 -0.000808862 0)
(2.99278 -0.000928454 0)
(2.99171 -0.000848288 0)
(2.99038 -0.00135918 0)
(2.98875 -0.0011188 0)
(2.99381 -0.00266997 0)
(2.9931 -0.00319268 0)
(2.99222 -0.00344135 0)
(2.99095 -0.00427577 0)
(2.98951 -0.00498933 0)
(2.9873 -0.00629774 0)
(2.99267 -0.00620776 0)
(2.99165 -0.00770201 0)
(2.99072 -0.00799904 0)
(2.98881 -0.0108794 0)
(2.98742 -0.0113459 0)
(2.98392 -0.015623 0)
(2.98991 -0.013852 0)
(2.98859 -0.0159332 0)
(2.98714 -0.0176467 0)
(2.98473 -0.0219512 0)
(2.98302 -0.0232412 0)
(2.97991 -0.0300027 0)
)
;

boundaryField
{
    inlet
    {
        type            fixedValue;
        value           nonuniform 0();
    }
    outlet
    {
        type            inletOutlet;
        inletValue      nonuniform 0();
        value           nonuniform 0();
    }
    triangle
    {
        type            slip;
    }
    top
    {
        type            symmetryPlane;
    }
    bottom
    {
        type            symmetryPlane;
    }
    defaultFaces
    {
        type            empty;
    }
    procBoundary1to0
    {
        type            processor;
        value           nonuniform List<vector> 
40
(
(3 -2.46944e-06 0)
(3 -3.48933e-06 0)
(3 -3.99369e-06 0)
(3 -4.71849e-06 0)
(3 -5.40255e-06 0)
(3 -5.85122e-06 0)
(3 -6.04407e-06 0)
(3 -6.09843e-06 0)
(3 -6.13932e-06 0)
(2.99999 -6.24645e-06 0)
(2.99999 -6.47234e-06 0)
(2.99999 -6.76571e-06 0)
(2.99999 -7.11216e-06 0)
(2.99999 -7.1929e-06 0)
(2.99999 -6.98511e-06 0)
(2.99999 -6.12403e-06 0)
(2.99999 -4.33166e-06 0)
(2.99999 -2.60366e-06 0)
(2.99999 -1.07644e-06 0)
(2.99999 -1.59524e-06 0)
(3 4.9782e-09 0)
(3 8.27006e-08 0)
(3 1.43119e-07 0)
(3 2.26232e-07 0)
(3 3.187e-07 0)
(3 4.28981e-07 0)
(3 5.48678e-07 0)
(3 6.70555e-07 0)
(3 7.82578e-07 0)
(3 9.06457e-07 0)
(3 9.29223e-07 0)
(3 6.83002e-07 0)
(3 2.68686e-07 0)
(3 -3.49855e-07 0)
(3 -6.17398e-07 0)
(3 -1.10933e-06 0)
(3 4.2634e-07 0)
(3 7.22408e-07 0)
(3 -2.80789e-07 0)
(3 -1.22197e-06 0)
)
;
    }
    procBoundary1to2
    {
        type            processor;
        value           nonuniform List<vector> 
40
(
(2.71509 -0.342286 0)
(1.92916 -0.613575 0)
(1.64363 -0.721083 0)
(1.52719 -0.838719 0)
(1.56178 -0.884221 0)
(1.60821 -0.874854 0)
(1.66288 -0.916377 0)
(1.66581 -0.928734 0)
(1.61992 -0.902476 0)
(1.51993 -0.818635 0)
(1.36409 -0.717747 0)
(1.21272 -0.611217 0)
(1.09499 -0.54471 0)
(1.02941 -0.5008 0)
(0.988194 -0.49575 0)
(0.96883 -0.493224 0)
(0.955044 -0.503904 0)
(0.950484 -0.51492 0)
(0.950178 -0.537317 0)
(0.9609 -0.528786 0)
(2.98654 -0.000466161 0)
(2.98649 -0.000256204 0)
(2.98645 0.000292482 0)
(2.98653 0.00104976 0)
(2.98665 0.00138028 0)
(2.98674 0.00149616 0)
(2.98672 0.00141472 0)
(2.98647 0.000803535 0)
(2.98638 -0.000549697 0)
(2.98649 -0.00108225 0)
(2.98654 -0.00114996 0)
(2.98654 -0.000715442 0)
(2.9865 5.37257e-05 0)
(2.98656 0.000983475 0)
(2.98681 0.00112991 0)
(2.98662 -0.000425502 0)
(2.98592 -0.00286575 0)
(2.9855 -0.00770677 0)
(2.98499 -0.0163681 0)
(3.01201 -0.0411712 0)
)
;
    }
    procBoundary1to4
    {
        type            processor;
        value           nonuniform List<vector> 2((2.99999 1.74861e-06 0) (2.99999 1.39311e-06 0));
    }
    procBoundary1to5
    {
        type            processor;
        value           nonuniform List<vector> 6((0.680779 0.263212 0) (0.761713 0.340701 0) (0.695324 0.315321 0) (1.69149 0.157493 0) (1.69149 0.157493 0) (3.00098 -0.000206993 0));
    }
}


// ************************************************************************* //
