/*--------------------------------*- C++ -*----------------------------------*\
  =========                 |
  \\      /  F ield         | OpenFOAM: The Open Source CFD Toolbox
   \\    /   O peration     | Website:  https://openfoam.org
    \\  /    A nd           | Version:  8
     \\/     M anipulation  |
\*---------------------------------------------------------------------------*/
FoamFile
{
    version     2.0;
    format      ascii;
    class       volScalarField;
    location    "5.1";
    object      rho;
}
// * * * * * * * * * * * * * * * * * * * * * * * * * * * * * * * * * * * * * //

dimensions      [1 -3 0 0 0 0 0];

internalField   nonuniform List<scalar> 
2600
(
1.07773
1.01565
0.927067
0.936485
1.19501
1.50645
1.67733
1.66557
2.05831
2.66254
1.05965
0.97985
0.883508
0.885126
1.14464
1.48141
1.67621
1.67228
2.05153
2.61542
1.05166
0.969708
0.8671
0.848182
1.10823
1.45363
1.67804
1.67936
2.04508
2.56779
1.05305
0.965092
0.854908
0.824496
1.08217
1.4293
1.67148
1.68023
2.03934
2.52029
1.05641
0.962849
0.854259
0.817048
1.05985
1.4001
1.65295
1.67754
2.03418
2.47538
1.05831
0.961723
0.862711
0.823322
1.04701
1.36165
1.62368
1.67332
2.03004
2.43447
1.05869
0.962584
0.877543
0.84394
1.03965
1.31237
1.58366
1.67241
2.02658
2.39695
1.05589
0.964464
0.897527
0.879166
1.04169
1.2611
1.54146
1.67644
2.02626
2.3677
1.05263
0.965503
0.920273
0.923038
1.04426
1.19739
1.49544
1.68772
2.02988
2.34073
1.04733
0.965936
0.942482
0.968835
1.05459
1.13206
1.45125
1.70191
2.03888
2.32382
1.04002
0.964452
0.962701
1.01326
1.05985
1.0641
1.41077
1.71931
2.05351
2.31186
1.03213
0.960503
0.980896
1.04863
1.0679
1.00325
1.38351
1.73542
2.06934
2.30863
1.02422
0.955842
0.992398
1.0781
1.07383
0.953502
1.37127
1.75846
2.09561
2.30802
1.01342
0.950017
1.0015
1.09926
1.07969
0.918844
1.37214
1.78192
2.11835
2.31546
1.00355
0.944748
1.00822
1.1143
1.08437
0.901147
1.38493
1.81198
2.14013
2.32606
0.986271
0.942121
1.0159
1.12322
1.09061
0.895458
1.39983
1.85208
2.1635
2.33863
0.971828
0.942317
1.0289
1.13153
1.09282
0.895938
1.4142
1.91099
2.18472
2.35117
0.961069
0.943938
1.04502
1.14377
1.09571
0.901916
1.42871
1.98301
2.2065
2.36438
0.961275
0.959324
1.06903
1.16236
1.09302
0.912369
1.45008
2.06409
2.23094
2.37392
0.993554
1.01061
1.12115
1.19215
1.09065
0.935987
1.48455
2.15322
2.26422
2.38612
1.32602
1.07868
1.19537
1.24044
1.11995
0.982266
1.53647
2.24772
2.31303
2.41087
1.68673
1.16238
1.28238
1.32118
1.17652
1.06513
1.61594
2.34483
2.38625
2.45824
1.98391
1.24631
1.34301
1.39526
1.25121
1.17123
1.71045
2.42162
2.47617
2.53223
2.23636
1.32638
1.40524
1.46071
1.33509
1.2882
1.81314
2.48422
2.57607
2.62592
2.47341
1.41988
1.46845
1.50546
1.39772
1.38311
1.90153
2.53208
2.67125
2.72067
2.66745
1.53751
1.52816
1.53584
1.44232
1.44961
1.97053
2.56844
2.75083
2.79927
2.83473
1.68045
1.58617
1.55406
1.47716
1.50182
2.02274
2.59344
2.80132
2.84552
2.96353
1.8341
1.6346
1.55335
1.50595
1.55584
2.06884
2.612
2.83115
2.87252
3.05997
1.98969
1.68025
1.54944
1.53409
1.61192
2.11565
2.62909
2.83639
2.8774
3.13573
2.13448
1.72459
1.55707
1.55514
1.66641
2.16667
2.64863
2.82054
2.86575
3.19508
2.26838
1.7748
1.57022
1.57085
1.72799
2.22356
2.67552
2.79651
2.84345
3.24654
2.38323
1.83366
1.5772
1.58549
1.78426
2.27877
2.70542
2.77083
2.8149
3.29766
2.48464
1.90428
1.57632
1.59801
1.82672
2.32366
2.73166
2.74817
2.7828
3.34577
2.57674
1.97404
1.57937
1.61386
1.85783
2.34379
2.7417
2.72809
2.74998
3.39821
2.65988
2.04458
1.58784
1.64071
1.8836
2.34704
2.73681
2.70689
2.7187
3.4714
2.74031
2.11305
1.60481
1.66773
1.90511
2.33998
2.72663
2.68693
2.69065
3.47224
2.81698
2.17082
1.63923
1.69012
1.92562
2.33454
2.70669
2.66928
2.6651
3.44126
2.89278
2.2324
1.68869
1.71505
1.9536
2.33803
2.68102
2.65325
2.64227
3.42031
2.95351
2.28578
1.7489
1.74606
1.98864
2.34758
2.65525
2.63725
2.62137
3.30708
2.99639
2.3399
1.82193
1.79797
2.02364
2.35489
2.63131
2.62512
2.60124
3.77528
4.54754
4.39424
4.26591
4.19319
4.16696
4.13148
4.07718
3.9778
3.75511
2.84064
4.21879
4.21865
4.18019
4.18676
4.17201
4.13364
4.07151
3.95382
3.69261
1.80042
3.2556
4.45898
4.3999
4.36619
4.32376
4.26035
4.18198
4.04206
3.78315
1.51812
1.79076
3.68996
4.55586
4.49141
4.42081
4.35165
4.2629
4.09794
3.85644
1.51229
1.51383
2.03425
4.18147
4.55764
4.48858
4.43104
4.34069
4.15697
3.94089
1.50076
1.50335
1.51056
2.77525
4.41177
4.46687
4.41972
4.33372
4.16933
3.97196
1.49159
1.49383
1.49575
1.60448
3.56651
4.44755
4.39914
4.30708
4.16102
3.98535
1.48379
1.4855
1.48726
1.49083
2.08556
4.15232
4.37149
4.27
4.14679
3.98456
1.47735
1.47932
1.48168
1.48366
1.50424
3.09053
4.2704
4.24624
4.13522
3.97772
1.4732
1.47475
1.47675
1.47853
1.48168
1.83795
3.86438
4.26608
4.12332
3.96991
1.46921
1.47057
1.47217
1.47407
1.47591
1.4887
2.82448
4.17707
4.11087
3.97084
1.4665
1.46801
1.46961
1.47165
1.47358
1.47695
1.7696
3.75967
4.12254
3.97642
1.46449
1.46582
1.46733
1.46908
1.47097
1.47266
1.48724
2.84301
4.04843
3.97932
1.46259
1.46369
1.46501
1.46644
1.46824
1.47002
1.47377
1.86674
3.73846
3.99315
1.46111
1.46218
1.46341
1.46478
1.46643
1.46822
1.47002
1.50076
2.99783
3.93237
1.45988
1.46091
1.46204
1.46338
1.46478
1.46652
1.46809
1.47238
2.10874
3.7641
1.4589
1.45985
1.46093
1.46216
1.46349
1.46511
1.46673
1.46906
1.57553
3.24395
1.45809
1.45897
1.45997
1.46111
1.46239
1.46385
1.46553
1.46713
1.48017
2.60517
1.45747
1.45831
1.45926
1.46033
1.46153
1.46289
1.46449
1.46603
1.47019
2.00672
1.45701
1.4578
1.4587
1.45971
1.46084
1.46211
1.4636
1.46517
1.46762
1.59891
1.4017
1.40525
1.40918
1.41348
1.41827
1.42353
1.42939
1.43624
1.44195
1.48925
1.40169
1.40525
1.40918
1.41348
1.41827
1.42353
1.42938
1.43624
1.44197
1.49116
1.40169
1.40525
1.40918
1.41348
1.41827
1.42353
1.42937
1.43624
1.44191
1.49918
1.40169
1.40525
1.40918
1.41348
1.41827
1.42353
1.42936
1.43626
1.44183
1.49567
1.40169
1.40525
1.40918
1.41348
1.41827
1.42354
1.42935
1.43626
1.44183
1.48981
1.40169
1.40525
1.40918
1.41348
1.41826
1.42354
1.42934
1.43627
1.44186
1.48148
1.40169
1.40525
1.40917
1.41349
1.41826
1.42354
1.42934
1.43627
1.44192
1.47463
1.40169
1.40525
1.40917
1.41349
1.41826
1.42354
1.42933
1.43626
1.44199
1.47
1.40169
1.40526
1.40917
1.41349
1.41826
1.42354
1.42933
1.43625
1.44207
1.46507
1.40169
1.40526
1.40917
1.41349
1.41826
1.42355
1.42933
1.43623
1.44215
1.4622
1.40169
1.40526
1.40917
1.41349
1.41826
1.42355
1.42933
1.43621
1.44223
1.45989
1.40169
1.40526
1.40917
1.41349
1.41826
1.42355
1.42934
1.43619
1.44232
1.45785
1.40169
1.40526
1.40917
1.41349
1.41826
1.42355
1.42934
1.43616
1.44241
1.45642
1.40169
1.40526
1.40917
1.41349
1.41825
1.42355
1.42934
1.43614
1.4425
1.45535
1.40169
1.40526
1.40917
1.41349
1.41825
1.42355
1.42935
1.43611
1.44259
1.45443
1.40169
1.40526
1.40917
1.41349
1.41825
1.42355
1.42935
1.43609
1.44268
1.45363
1.40169
1.40526
1.40917
1.41349
1.41825
1.42355
1.42935
1.43607
1.44276
1.453
1.40169
1.40526
1.40917
1.41349
1.41825
1.42355
1.42936
1.43605
1.44284
1.45253
1.40169
1.40526
1.40917
1.41349
1.41825
1.42355
1.42936
1.43603
1.4429
1.45216
1.40169
1.40526
1.40917
1.41349
1.41825
1.42355
1.42936
1.43602
1.44296
1.45189
1.40169
1.40526
1.40917
1.41349
1.41825
1.42355
1.42936
1.43602
1.44296
1.45189
1.40169
1.40526
1.40917
1.41349
1.41825
1.42355
1.42936
1.43603
1.4429
1.45216
1.40169
1.40526
1.40917
1.41349
1.41825
1.42355
1.42936
1.43605
1.44284
1.45253
1.40169
1.40526
1.40917
1.41349
1.41825
1.42355
1.42935
1.43607
1.44276
1.453
1.40169
1.40526
1.40917
1.41349
1.41825
1.42355
1.42935
1.43609
1.44268
1.45363
1.40169
1.40526
1.40917
1.41349
1.41825
1.42355
1.42935
1.43611
1.44259
1.45443
1.40169
1.40526
1.40917
1.41349
1.41825
1.42355
1.42934
1.43614
1.4425
1.45535
1.40169
1.40526
1.40917
1.41349
1.41826
1.42355
1.42934
1.43616
1.44241
1.45643
1.40169
1.40526
1.40917
1.41349
1.41826
1.42355
1.42934
1.43619
1.44232
1.45785
1.40169
1.40526
1.40917
1.41349
1.41826
1.42355
1.42933
1.43621
1.44223
1.45989
1.40169
1.40526
1.40917
1.41349
1.41826
1.42355
1.42933
1.43623
1.44215
1.46221
1.40169
1.40526
1.40917
1.41349
1.41826
1.42354
1.42933
1.43625
1.44207
1.46508
1.40169
1.40525
1.40917
1.41349
1.41826
1.42354
1.42933
1.43626
1.44199
1.47001
1.40169
1.40525
1.40917
1.41349
1.41826
1.42354
1.42934
1.43627
1.44192
1.47464
1.40169
1.40525
1.40918
1.41348
1.41826
1.42354
1.42934
1.43627
1.44186
1.4815
1.40169
1.40525
1.40918
1.41348
1.41827
1.42354
1.42935
1.43626
1.44183
1.48982
1.40169
1.40525
1.40918
1.41348
1.41827
1.42353
1.42936
1.43626
1.44183
1.49567
1.40169
1.40525
1.40918
1.41348
1.41827
1.42353
1.42937
1.43624
1.44191
1.49916
1.40169
1.40525
1.40918
1.41348
1.41827
1.42353
1.42938
1.43624
1.44197
1.49109
1.4017
1.40525
1.40918
1.41348
1.41827
1.42353
1.42939
1.43624
1.44195
1.48929
1.45701
1.4578
1.4587
1.45971
1.46084
1.46211
1.4636
1.46518
1.4676
1.59476
1.45747
1.45831
1.45926
1.46033
1.46153
1.46289
1.46449
1.46603
1.47018
1.99973
1.45809
1.45897
1.45997
1.46111
1.46239
1.46385
1.46553
1.46713
1.4801
2.60087
1.45891
1.45985
1.46093
1.46216
1.46349
1.46511
1.46673
1.46906
1.57473
3.24227
1.45988
1.46091
1.46204
1.46338
1.46478
1.46652
1.46809
1.47237
2.10645
3.76414
1.46111
1.46219
1.46341
1.46478
1.46643
1.46823
1.47002
1.50055
2.99544
3.93237
1.4626
1.46369
1.46502
1.46644
1.46824
1.47002
1.47378
1.86499
3.73703
3.99297
1.4645
1.46582
1.46734
1.46908
1.47097
1.47266
1.48717
2.84042
4.04836
3.9793
1.46651
1.46802
1.46962
1.47166
1.47358
1.47695
1.76823
3.75806
4.12301
3.97712
1.46921
1.47057
1.47218
1.47408
1.47592
1.48866
2.8221
4.17672
4.11151
3.97263
1.47321
1.47476
1.47675
1.47854
1.48168
1.83698
3.86319
4.26624
4.12423
3.97208
1.47736
1.47933
1.48169
1.48367
1.50421
3.08899
4.27031
4.24672
4.13636
3.98091
1.48381
1.48552
1.48728
1.49085
2.08519
4.15135
4.3715
4.27069
4.14785
3.98907
1.49161
1.49384
1.49577
1.60458
3.56611
4.44703
4.39892
4.30778
4.16221
3.99094
1.50079
1.50338
1.51061
2.77562
4.41145
4.46652
4.41938
4.33417
4.17054
3.97923
1.51231
1.51386
2.03481
4.18167
4.55739
4.48821
4.43064
4.34093
4.15917
3.9505
1.51814
1.79134
3.6905
4.55578
4.49108
4.42022
4.35123
4.26287
4.09973
3.86846
1.80082
3.2566
4.45893
4.39961
4.36575
4.32304
4.25981
4.18185
4.04398
3.79507
2.84123
4.21855
4.21828
4.17976
4.18621
4.17127
4.13288
4.07124
3.95531
3.70467
3.7752
4.54701
4.39381
4.26547
4.19272
4.16626
4.13072
4.07672
3.97913
3.76653
3.32192
2.9948
2.32434
1.71651
1.83131
2.28378
2.57862
2.52516
2.49369
2.556
3.44013
2.95188
2.2712
1.66429
1.76757
2.25484
2.59464
2.5302
2.51045
2.58108
3.46438
2.89003
2.2196
1.62266
1.71529
2.22801
2.60633
2.53118
2.51622
2.59982
3.49923
2.81272
2.16078
1.58596
1.66733
2.20391
2.61072
2.53195
2.51648
2.61285
3.5018
2.73384
2.10192
1.55363
1.63041
2.18148
2.60668
2.51977
2.49997
2.62153
3.4362
2.65386
2.02967
1.52672
1.59998
2.15525
2.59582
2.49827
2.46958
2.62915
3.39011
2.57426
1.94978
1.49797
1.57309
2.12643
2.58157
2.47672
2.44965
2.64287
3.34381
2.49428
1.86181
1.46894
1.55487
2.10048
2.57178
2.45524
2.44
2.66326
3.29331
2.41229
1.76251
1.43711
1.54466
2.07551
2.56338
2.42767
2.43368
2.68849
3.23924
2.32283
1.66197
1.40331
1.53854
2.04818
2.54865
2.38449
2.43647
2.71487
3.1777
2.22174
1.56039
1.37097
1.5351
2.01596
2.51809
2.32797
2.43856
2.74126
3.09513
2.1181
1.4484
1.34588
1.54593
1.98019
2.45402
2.27636
2.44164
2.76563
2.98984
2.00665
1.32515
1.31396
1.56111
1.93981
2.34544
2.23227
2.43579
2.78422
2.85536
1.8815
1.25954
1.27327
1.56994
1.89485
2.20879
2.17184
2.40683
2.79472
2.69069
1.73456
1.21785
1.2331
1.55328
1.8486
2.06128
2.07301
2.33848
2.7966
2.50469
1.59391
1.18732
1.20013
1.51661
1.79676
1.91979
1.94801
2.26825
2.7951
2.27958
1.45023
1.15754
1.16652
1.46739
1.72998
1.8089
1.83476
2.20942
2.7888
2.04566
1.32598
1.11904
1.12022
1.39831
1.65711
1.74196
1.74967
2.15161
2.77454
1.7473
1.21503
1.0644
1.0628
1.32789
1.59297
1.70517
1.69463
2.1026
2.74964
1.40595
1.09592
0.986467
0.994629
1.25406
1.5376
1.68732
1.66845
2.07239
2.70913
1.46775
1.47167
1.4923
3.31578
4.10886
3.70109
3.24345
2.7898
2.31551
1.93306
1.46777
1.47145
1.49488
3.33377
4.11457
3.70402
3.23693
2.78163
2.31178
1.9359
1.46776
1.47134
1.49939
3.37467
4.14221
3.71327
3.22958
2.76887
2.30569
1.94114
1.46772
1.47122
1.50755
3.42725
4.17148
3.72079
3.21797
2.75339
2.30027
1.94904
1.46766
1.47111
1.5246
3.48256
4.1951
3.72641
3.20439
2.73557
2.2955
1.96085
1.46759
1.47103
1.55976
3.5452
4.20682
3.72609
3.18626
2.71558
2.29252
1.97709
1.4675
1.47098
1.62689
3.61283
4.19905
3.71276
3.15996
2.69269
2.29221
1.99894
1.46738
1.47114
1.72892
3.68778
4.17424
3.67419
3.12232
2.66669
2.29383
2.02657
1.46717
1.47214
1.85807
3.74354
4.08065
3.62127
3.0705
2.63163
2.29961
2.06152
1.46691
1.47785
1.99621
3.73886
3.95874
3.50648
3.0197
2.60507
2.31184
2.10241
1.4667
1.50893
2.12357
3.71298
3.77876
3.38982
2.95207
2.57601
2.33194
2.15087
1.46659
1.62866
2.30223
3.5841
3.57944
3.25773
2.87721
2.54918
2.35843
2.20493
1.46661
1.88594
2.5439
3.35001
3.36799
3.10804
2.80334
2.52927
2.38397
2.25782
1.46817
2.20629
2.72055
3.09416
3.13351
2.95203
2.73065
2.51154
2.40062
2.3091
1.49052
2.49917
2.78771
2.845
2.88163
2.81106
2.67475
2.50153
2.4126
2.35769
1.66325
2.71293
2.80869
2.62865
2.62475
2.7099
2.62664
2.4939
2.42667
2.40531
1.9811
2.84329
2.74215
2.42547
2.40039
2.62171
2.57906
2.49148
2.4402
2.44483
2.29486
2.87885
2.62435
2.22981
2.23095
2.52253
2.54554
2.49153
2.4522
2.47295
2.52607
2.8765
2.52165
2.03372
2.07931
2.42044
2.53294
2.49307
2.45976
2.49329
3.03306
2.93945
2.42263
1.84067
1.93544
2.33452
2.55092
2.50718
2.47291
2.52103
3.02413
2.93935
2.43578
1.93977
1.9125
2.08808
2.3543
2.59094
2.61354
2.57601
2.5243
2.87688
2.54452
2.09105
2.08645
2.21389
2.36346
2.53142
2.59783
2.54458
2.29124
2.87784
2.64981
2.24769
2.26887
2.37561
2.39853
2.4812
2.57621
2.50849
1.97964
2.84541
2.76122
2.41833
2.46105
2.51414
2.44611
2.46135
2.54107
2.46605
1.66439
2.71779
2.83153
2.60902
2.67502
2.65015
2.50676
2.46377
2.50335
2.42204
1.49119
2.50409
2.81469
2.81996
2.90481
2.79121
2.57647
2.47184
2.46833
2.37465
1.46825
2.21146
2.74357
3.07483
3.13571
2.94731
2.66145
2.48349
2.43714
2.32441
1.46662
1.89078
2.56381
3.34334
3.3653
3.10578
2.75165
2.49983
2.40542
2.26966
1.46659
1.63137
2.32065
3.58684
3.57988
3.25216
2.84418
2.53177
2.37782
2.21408
1.4667
1.50971
2.13817
3.72732
3.78292
3.38718
2.92919
2.56629
2.3547
2.1614
1.46691
1.47792
2.0101
3.75424
3.97121
3.50693
3.00213
2.60974
2.33806
2.11746
1.46717
1.47213
1.86798
3.75886
4.09415
3.6291
3.06346
2.6314
2.32538
2.08264
1.46737
1.47113
1.7336
3.69864
4.18745
3.6795
3.11977
2.66639
2.31827
2.05143
1.4675
1.47098
1.62782
3.61762
4.21045
3.71877
3.15791
2.69379
2.31445
2.02426
1.46759
1.47103
1.55892
3.5434
4.21379
3.73075
3.18483
2.71909
2.31244
1.99867
1.46766
1.47111
1.5231
3.47272
4.19799
3.72878
3.20338
2.74072
2.3128
1.97668
1.46772
1.47122
1.5057
3.41098
4.17153
3.7218
3.21723
2.75901
2.31498
1.95851
1.46776
1.47134
1.49725
3.35382
4.1425
3.71396
3.22897
2.77427
2.31798
1.94475
1.46777
1.47146
1.49278
3.31209
4.11658
3.70629
3.236
2.78607
2.32178
1.93533
1.46775
1.47168
1.49029
3.29262
4.11143
3.70527
3.2416
2.7932
2.32417
1.92978
1.4566
1.45735
1.4582
1.45913
1.46019
1.46135
1.4627
1.46424
1.46575
1.47755
1.45628
1.45699
1.45779
1.45866
1.45964
1.46071
1.46193
1.46327
1.46488
1.4661
1.4561
1.45679
1.45755
1.45838
1.4593
1.4603
1.46144
1.46264
1.46421
1.46525
1.456
1.45667
1.45741
1.45821
1.45909
1.46005
1.46113
1.46226
1.46373
1.46474
1.45597
1.45662
1.45733
1.45811
1.45895
1.45989
1.46091
1.46203
1.46338
1.46439
1.45595
1.45661
1.45731
1.45809
1.45893
1.45984
1.46084
1.46193
1.46319
1.46422
1.45594
1.4566
1.45731
1.45809
1.45893
1.45984
1.46084
1.46191
1.46312
1.46431
1.45595
1.4566
1.45732
1.4581
1.45895
1.45986
1.46086
1.46192
1.4631
1.46444
1.45597
1.45662
1.45734
1.45811
1.45896
1.45987
1.46087
1.46194
1.4631
1.46448
1.45599
1.45665
1.45736
1.45814
1.45898
1.45989
1.46088
1.46196
1.46311
1.46449
1.45603
1.45668
1.45739
1.45817
1.45901
1.45992
1.46091
1.46199
1.46314
1.46448
1.45606
1.45672
1.45743
1.4582
1.45904
1.45995
1.46094
1.46202
1.46317
1.46448
1.45609
1.45674
1.45746
1.45823
1.45907
1.45998
1.46097
1.46204
1.4632
1.46447
1.45611
1.45676
1.45748
1.45825
1.45909
1.46
1.46099
1.46205
1.46321
1.46445
1.45612
1.45678
1.45749
1.45827
1.4591
1.46001
1.461
1.46206
1.46321
1.46444
1.45613
1.45679
1.45749
1.45826
1.45909
1.45999
1.46097
1.46204
1.4632
1.46443
1.45612
1.45677
1.45747
1.45824
1.45907
1.45998
1.46096
1.46203
1.46319
1.46442
1.45611
1.45676
1.45747
1.45824
1.45907
1.45998
1.46096
1.46202
1.46319
1.46442
1.45608
1.45674
1.45746
1.45823
1.45907
1.45998
1.46097
1.46203
1.4632
1.46443
1.45607
1.45673
1.45745
1.45823
1.45908
1.45999
1.46098
1.46205
1.46321
1.46445
1.40169
1.40526
1.40917
1.41349
1.41825
1.42355
1.42937
1.43601
1.44302
1.45167
1.40169
1.40526
1.40917
1.41349
1.41825
1.42355
1.42937
1.436
1.44308
1.4515
1.40169
1.40526
1.40917
1.41349
1.41825
1.42355
1.42937
1.436
1.44312
1.45142
1.40169
1.40526
1.40917
1.41349
1.41825
1.42355
1.42937
1.436
1.44316
1.45138
1.40169
1.40526
1.40917
1.41349
1.41825
1.42355
1.42937
1.43599
1.4432
1.45138
1.40169
1.40526
1.40917
1.41349
1.41825
1.42355
1.42938
1.43597
1.44322
1.45138
1.40169
1.40526
1.40917
1.41349
1.41825
1.42355
1.42938
1.43596
1.44325
1.45138
1.40169
1.40526
1.40917
1.41349
1.41825
1.42355
1.42938
1.43595
1.44326
1.45138
1.40169
1.40526
1.40917
1.41349
1.41825
1.42355
1.42939
1.43594
1.44326
1.4514
1.40169
1.40526
1.40917
1.41349
1.41825
1.42355
1.42939
1.43593
1.44325
1.45141
1.40169
1.40526
1.40917
1.41349
1.41825
1.42355
1.42939
1.43593
1.44324
1.45144
1.40169
1.40526
1.40917
1.41349
1.41825
1.42355
1.4294
1.43593
1.44323
1.45145
1.40169
1.40526
1.40917
1.41349
1.41825
1.42354
1.4294
1.43593
1.44321
1.45147
1.40169
1.40526
1.40917
1.41349
1.41825
1.42354
1.4294
1.43593
1.44321
1.45148
1.40169
1.40526
1.40917
1.41349
1.41826
1.42354
1.4294
1.43593
1.4432
1.45149
1.40169
1.40526
1.40917
1.41349
1.41826
1.42354
1.4294
1.43593
1.44319
1.4515
1.40169
1.40526
1.40917
1.41349
1.41826
1.42354
1.4294
1.43594
1.44319
1.45149
1.40169
1.40526
1.40917
1.41349
1.41826
1.42354
1.4294
1.43594
1.4432
1.45148
1.40169
1.40526
1.40917
1.41349
1.41826
1.42354
1.4294
1.43594
1.4432
1.45146
1.40169
1.40526
1.40917
1.41349
1.41826
1.42354
1.4294
1.43594
1.4432
1.45144
1.40169
1.40526
1.40917
1.41349
1.41826
1.42354
1.4294
1.43594
1.4432
1.45144
1.40169
1.40526
1.40917
1.41349
1.41826
1.42354
1.4294
1.43594
1.4432
1.45146
1.40169
1.40526
1.40917
1.41349
1.41826
1.42354
1.4294
1.43594
1.4432
1.45148
1.40169
1.40526
1.40917
1.41349
1.41826
1.42354
1.4294
1.43593
1.44319
1.45149
1.40169
1.40526
1.40917
1.41349
1.41826
1.42354
1.4294
1.43593
1.44319
1.45149
1.40169
1.40526
1.40917
1.41349
1.41826
1.42354
1.4294
1.43593
1.4432
1.45149
1.40169
1.40526
1.40917
1.41349
1.41825
1.42354
1.4294
1.43593
1.44321
1.45148
1.40169
1.40526
1.40917
1.41349
1.41825
1.42354
1.4294
1.43593
1.44322
1.45147
1.40169
1.40526
1.40917
1.41349
1.41825
1.42355
1.4294
1.43593
1.44323
1.45145
1.40169
1.40526
1.40917
1.41349
1.41825
1.42355
1.42939
1.43593
1.44324
1.45144
1.40169
1.40526
1.40917
1.41349
1.41825
1.42355
1.42939
1.43593
1.44325
1.45141
1.40169
1.40526
1.40917
1.41349
1.41825
1.42355
1.42939
1.43594
1.44326
1.45139
1.40169
1.40526
1.40917
1.41349
1.41825
1.42355
1.42938
1.43595
1.44326
1.45138
1.40169
1.40526
1.40917
1.41349
1.41825
1.42355
1.42938
1.43596
1.44325
1.45138
1.40169
1.40526
1.40917
1.41349
1.41825
1.42355
1.42938
1.43597
1.44322
1.45139
1.40169
1.40526
1.40917
1.41349
1.41825
1.42355
1.42937
1.43599
1.4432
1.45138
1.40169
1.40526
1.40917
1.41349
1.41825
1.42355
1.42937
1.436
1.44316
1.45138
1.40169
1.40526
1.40917
1.41349
1.41825
1.42355
1.42937
1.436
1.44312
1.45142
1.40169
1.40526
1.40917
1.41349
1.41825
1.42355
1.42937
1.436
1.44308
1.4515
1.40169
1.40526
1.40917
1.41349
1.41825
1.42355
1.42937
1.43601
1.44302
1.45167
1.45607
1.45674
1.45746
1.45824
1.45909
1.46
1.46098
1.46205
1.46321
1.46444
1.45609
1.45675
1.45746
1.45824
1.45908
1.45999
1.46097
1.46203
1.4632
1.46443
1.45611
1.45676
1.45747
1.45824
1.45907
1.45998
1.46096
1.46203
1.46319
1.46442
1.45612
1.45677
1.45747
1.45824
1.45907
1.45998
1.46096
1.46203
1.46319
1.46442
1.45613
1.45678
1.45749
1.45825
1.45908
1.45999
1.46097
1.46204
1.4632
1.46443
1.45612
1.45678
1.45749
1.45826
1.4591
1.46001
1.46099
1.46206
1.46322
1.46445
1.45611
1.45676
1.45748
1.45825
1.45909
1.46
1.46098
1.46205
1.46321
1.46445
1.45609
1.45674
1.45746
1.45823
1.45907
1.45998
1.46097
1.46204
1.46319
1.46447
1.45606
1.45671
1.45743
1.4582
1.45904
1.45995
1.46094
1.46201
1.46317
1.46447
1.45603
1.45668
1.45739
1.45817
1.459
1.45992
1.4609
1.46199
1.46314
1.46448
1.45599
1.45665
1.45736
1.45813
1.45898
1.45989
1.46088
1.46196
1.46311
1.46449
1.45597
1.45662
1.45734
1.45811
1.45896
1.45987
1.46087
1.46194
1.4631
1.46448
1.45595
1.4566
1.45732
1.4581
1.45895
1.45985
1.46086
1.46192
1.4631
1.46444
1.45595
1.4566
1.45731
1.45809
1.45893
1.45984
1.46084
1.46191
1.46312
1.46431
1.45595
1.45661
1.45732
1.45809
1.45893
1.45985
1.46084
1.46193
1.46319
1.46422
1.45597
1.45662
1.45733
1.45811
1.45896
1.45989
1.46092
1.46203
1.46338
1.46439
1.456
1.45667
1.45741
1.45821
1.45909
1.46005
1.46113
1.46226
1.46373
1.46474
1.4561
1.45679
1.45755
1.45838
1.45931
1.4603
1.46144
1.46264
1.46421
1.46525
1.45628
1.45699
1.45779
1.45866
1.45964
1.46071
1.46193
1.46327
1.46488
1.4661
1.4566
1.45735
1.4582
1.45913
1.46019
1.46136
1.4627
1.46424
1.46575
1.47709
)
;

boundaryField
{
    inlet
    {
        type            calculated;
        value           uniform 1.40001;
    }
    outlet
    {
        type            calculated;
        value           nonuniform List<scalar> 
100
(
2.57625
2.54477
2.50865
2.46614
2.422
2.37449
2.32425
2.26957
2.21403
2.16134
2.11739
2.08258
2.05141
2.02429
1.99874
1.97676
1.95859
1.94483
1.93541
1.92986
2.41106
2.45851
2.53259
2.62634
2.72105
2.79962
2.84585
2.87293
2.87794
2.86637
2.84413
2.81563
2.78351
2.75065
2.71927
2.69113
2.66551
2.64261
2.62169
2.60154
2.66251
2.61532
2.56763
2.52007
2.47507
2.43413
2.39664
2.36746
2.34055
2.32363
2.31172
2.30859
2.30811
2.31558
2.32618
2.33875
2.35142
2.36469
2.37422
2.38636
2.55625
2.58117
2.59981
2.61278
2.62134
2.62894
2.64275
2.66324
2.6886
2.71505
2.74157
2.7661
2.78478
2.79529
2.79714
2.79569
2.78947
2.77521
2.75009
2.70928
1.93307
1.93591
1.94115
1.94906
1.96088
1.97712
1.99897
2.02658
2.0615
2.10236
2.1508
2.20481
2.25766
2.30894
2.35757
2.40522
2.44468
2.47274
2.49316
2.52113
)
;
    }
    triangle
    {
        type            calculated;
        value           nonuniform List<scalar> 
40
(
3.77528
4.54754
4.39424
4.26591
4.19319
4.16696
4.13148
4.07718
3.9778
3.75511
1.07773
1.05965
1.05166
1.05305
1.05641
1.05831
1.05869
1.05589
1.05263
1.04733
1.04002
1.03213
1.02422
1.01342
1.00355
0.986271
0.971828
0.961069
0.961275
0.993554
3.7752
4.54701
4.39381
4.26547
4.19272
4.16626
4.13072
4.07672
3.97913
3.76653
)
;
    }
    top
    {
        type            symmetryPlane;
    }
    bottom
    {
        type            symmetryPlane;
    }
    defaultFaces
    {
        type            empty;
    }
}


// ************************************************************************* //
