/*--------------------------------*- C++ -*----------------------------------*\
  =========                 |
  \\      /  F ield         | OpenFOAM: The Open Source CFD Toolbox
   \\    /   O peration     | Website:  https://openfoam.org
    \\  /    A nd           | Version:  8
     \\/     M anipulation  |
\*---------------------------------------------------------------------------*/
FoamFile
{
    version     2.0;
    format      ascii;
    class       volScalarField;
    location    "5.1";
    object      T;
}
// * * * * * * * * * * * * * * * * * * * * * * * * * * * * * * * * * * * * * //

dimensions      [0 0 0 1 0 0 0];

internalField   nonuniform List<scalar> 
2600
(
1.85352
1.81262
1.67497
1.53762
1.7688
2.01101
2.00873
1.87654
1.70968
1.66385
1.91597
1.87189
1.75149
1.61805
1.84238
2.01303
1.99462
1.87636
1.74302
1.69585
1.91757
1.87974
1.79219
1.69245
1.88868
1.99852
1.97741
1.8724
1.77112
1.72891
1.91062
1.8723
1.80337
1.74549
1.90485
1.96783
1.95816
1.86646
1.79496
1.7612
1.89898
1.86104
1.81193
1.77686
1.89904
1.9302
1.94157
1.86287
1.81582
1.79199
1.8888
1.85052
1.81584
1.79525
1.88531
1.89493
1.92933
1.86129
1.83492
1.82109
1.88183
1.84239
1.81372
1.80665
1.86309
1.86422
1.91922
1.86282
1.85247
1.8483
1.87675
1.83543
1.81054
1.8142
1.83926
1.84046
1.91291
1.86647
1.87007
1.87513
1.87449
1.82931
1.80908
1.82113
1.81917
1.81599
1.90781
1.87362
1.88782
1.89876
1.87218
1.8253
1.81075
1.82887
1.81435
1.79788
1.90397
1.88377
1.90505
1.9194
1.86903
1.82353
1.8164
1.84095
1.81048
1.78133
1.89774
1.89573
1.92155
1.9333
1.86554
1.82377
1.82886
1.85765
1.81631
1.76522
1.88668
1.9038
1.93569
1.94214
1.86288
1.82704
1.8456
1.88183
1.83014
1.74955
1.87037
1.90783
1.94986
1.94698
1.85896
1.83194
1.86803
1.91145
1.85271
1.73552
1.85133
1.90745
1.95905
1.95002
1.85673
1.83706
1.8907
1.94568
1.88078
1.72267
1.82788
1.90274
1.96487
1.94929
1.85156
1.84183
1.90835
1.97768
1.91304
1.70956
1.79768
1.88783
1.96753
1.94562
1.85124
1.8448
1.91704
2.00067
1.93996
1.69959
1.7651
1.86218
1.96675
1.93883
1.84914
1.84358
1.91427
2.01034
1.95528
1.69338
1.73066
1.82364
1.96252
1.93173
1.83715
1.81103
1.8797
2.00376
1.95265
1.68261
1.6944
1.77539
1.9506
1.92341
1.76159
1.72322
1.79549
1.96702
1.93372
1.66552
1.65477
1.72492
1.92839
1.91204
1.67038
1.58541
1.66455
1.87068
1.88411
1.62975
1.60532
1.67182
1.88835
1.88871
1.63734
1.48081
1.54438
1.73632
1.7798
1.57246
1.55489
1.62312
1.83124
1.84537
1.61601
1.42195
1.45971
1.60308
1.64499
1.49985
1.51102
1.58584
1.76402
1.78205
1.6
1.38786
1.40882
1.49931
1.52191
1.43325
1.4797
1.55956
1.69428
1.70683
1.593
1.37501
1.37017
1.41974
1.426
1.37844
1.45789
1.53932
1.63041
1.6347
1.58999
1.37807
1.33147
1.36099
1.36089
1.33872
1.44219
1.52293
1.57964
1.57789
1.59636
1.38244
1.30567
1.31882
1.31887
1.31155
1.42932
1.50894
1.54327
1.53785
1.60819
1.38888
1.2935
1.28686
1.28835
1.2931
1.42004
1.49818
1.52133
1.51382
1.62319
1.39994
1.29251
1.26332
1.26498
1.28018
1.41485
1.49136
1.50599
1.49744
1.6399
1.41573
1.2945
1.24885
1.24659
1.27331
1.41313
1.48802
1.49534
1.4858
1.65563
1.43735
1.30173
1.23859
1.23537
1.27525
1.4166
1.4872
1.49028
1.47879
1.66967
1.46124
1.31468
1.23207
1.23183
1.28154
1.42348
1.4898
1.48847
1.47411
1.68258
1.48619
1.3332
1.22916
1.23135
1.28863
1.43042
1.49625
1.48844
1.47053
1.69284
1.51012
1.35275
1.22993
1.23369
1.29578
1.43365
1.50201
1.48915
1.46783
1.70063
1.53145
1.37344
1.23307
1.24131
1.30436
1.43424
1.50542
1.49008
1.46627
1.70538
1.55176
1.394
1.2405
1.25032
1.31329
1.43374
1.50765
1.49125
1.46585
1.70609
1.57056
1.41164
1.25562
1.25748
1.32263
1.43471
1.5078
1.49232
1.46624
1.69934
1.587
1.42911
1.27752
1.26239
1.33525
1.43827
1.50652
1.49311
1.46709
1.68646
1.59577
1.44245
1.29899
1.27123
1.34943
1.44251
1.50496
1.49327
1.46751
1.66514
1.6027
1.45475
1.31911
1.28911
1.36226
1.44566
1.50393
1.4933
1.46718
2.04131
2.21597
2.18408
2.14992
2.12363
2.10824
2.09269
2.07534
2.05235
1.99978
1.65535
2.01769
2.07301
2.07115
2.07563
2.07241
2.06307
2.04871
2.02426
1.94728
1.16231
1.65996
1.97529
2.00405
2.01636
2.01663
2.0122
2.00294
1.98128
1.89758
1.03519
1.15219
1.73912
1.95422
1.95263
1.94912
1.94484
1.93706
1.91697
1.84774
1.03187
1.03218
1.24482
1.83788
1.92924
1.91979
1.91313
1.9014
1.87518
1.82268
1.02827
1.02895
1.03137
1.49781
1.89974
1.91399
1.90439
1.88669
1.85573
1.81253
1.02574
1.02635
1.02693
1.07214
1.76173
1.9257
1.90826
1.88289
1.85016
1.81329
1.02358
1.02406
1.02454
1.02554
1.27384
1.86886
1.90148
1.88032
1.85172
1.81686
1.02179
1.02233
1.02298
1.02352
1.03106
1.63425
1.89602
1.88534
1.85641
1.82161
1.02062
1.02105
1.0216
1.02209
1.02296
1.16932
1.81768
1.89049
1.85962
1.82577
1.0195
1.01987
1.02032
1.02085
1.02135
1.02577
1.53415
1.87147
1.85727
1.82751
1.01874
1.01916
1.0196
1.02017
1.02069
1.0217
1.13338
1.78402
1.85709
1.82755
1.01817
1.01854
1.01896
1.01945
1.01997
1.02044
1.02532
1.53626
1.83745
1.82413
1.01764
1.01795
1.01831
1.01871
1.01921
1.0197
1.02074
1.16473
1.75383
1.82165
1.01723
1.01753
1.01787
1.01825
1.01871
1.0192
1.01971
1.0298
1.57954
1.80507
1.01688
1.01717
1.01748
1.01786
1.01825
1.01873
1.01917
1.02037
1.24943
1.7498
1.01661
1.01688
1.01718
1.01752
1.01789
1.01834
1.01879
1.01946
1.05423
1.66872
1.01638
1.01663
1.01691
1.01723
1.01758
1.01799
1.01846
1.0189
1.02262
1.50513
1.01621
1.01645
1.01671
1.01701
1.01734
1.01772
1.01817
1.01859
1.01976
1.23279
1.01609
1.01631
1.01656
1.01684
1.01715
1.01751
1.01792
1.01835
1.01907
1.06122
1.00048
1.0015
1.00261
1.00384
1.0052
1.00669
1.00834
1.01029
1.01181
1.10253
1.00048
1.0015
1.00261
1.00384
1.0052
1.00669
1.00833
1.01029
1.01182
1.06682
1.00048
1.0015
1.00261
1.00384
1.0052
1.00669
1.00833
1.01029
1.01183
1.04225
1.00048
1.0015
1.00261
1.00384
1.0052
1.00669
1.00833
1.01029
1.01182
1.03115
1.00048
1.0015
1.00261
1.00384
1.0052
1.00669
1.00833
1.01029
1.01183
1.02615
1.00048
1.0015
1.00261
1.00384
1.0052
1.00669
1.00833
1.01029
1.01184
1.02298
1.00048
1.0015
1.00261
1.00384
1.00519
1.00669
1.00832
1.01028
1.01186
1.021
1.00048
1.0015
1.00261
1.00384
1.00519
1.00669
1.00832
1.01028
1.01188
1.01973
1.00048
1.0015
1.00261
1.00384
1.00519
1.00669
1.00832
1.01028
1.0119
1.01835
1.00048
1.0015
1.00261
1.00384
1.00519
1.00669
1.00832
1.01027
1.01193
1.01755
1.00048
1.0015
1.00261
1.00384
1.00519
1.00669
1.00832
1.01027
1.01195
1.01689
1.00048
1.0015
1.00261
1.00384
1.00519
1.00669
1.00832
1.01026
1.01198
1.01632
1.00048
1.0015
1.00261
1.00384
1.00519
1.00669
1.00833
1.01025
1.012
1.01592
1.00048
1.0015
1.00261
1.00384
1.00519
1.00669
1.00833
1.01024
1.01203
1.01562
1.00048
1.0015
1.00261
1.00384
1.00519
1.00669
1.00833
1.01024
1.01205
1.01536
1.00048
1.0015
1.00261
1.00384
1.00519
1.00669
1.00833
1.01023
1.01208
1.01514
1.00048
1.0015
1.00261
1.00384
1.00519
1.00669
1.00833
1.01022
1.0121
1.01496
1.00048
1.0015
1.00261
1.00384
1.00519
1.00669
1.00833
1.01022
1.01212
1.01483
1.00048
1.0015
1.00261
1.00384
1.00519
1.00669
1.00833
1.01021
1.01214
1.01473
1.00048
1.0015
1.00261
1.00384
1.00519
1.00669
1.00833
1.01021
1.01216
1.01465
1.00048
1.0015
1.00261
1.00384
1.00519
1.00669
1.00833
1.01021
1.01216
1.01465
1.00048
1.0015
1.00261
1.00384
1.00519
1.00669
1.00833
1.01021
1.01214
1.01473
1.00048
1.0015
1.00261
1.00384
1.00519
1.00669
1.00833
1.01022
1.01212
1.01483
1.00048
1.0015
1.00261
1.00384
1.00519
1.00669
1.00833
1.01022
1.0121
1.01496
1.00048
1.0015
1.00261
1.00384
1.00519
1.00669
1.00833
1.01023
1.01208
1.01514
1.00048
1.0015
1.00261
1.00384
1.00519
1.00669
1.00833
1.01024
1.01205
1.01536
1.00048
1.0015
1.00261
1.00384
1.00519
1.00669
1.00833
1.01024
1.01203
1.01562
1.00048
1.0015
1.00261
1.00384
1.00519
1.00669
1.00833
1.01025
1.012
1.01592
1.00048
1.0015
1.00261
1.00384
1.00519
1.00669
1.00832
1.01026
1.01197
1.01632
1.00048
1.0015
1.00261
1.00384
1.00519
1.00669
1.00832
1.01027
1.01195
1.01689
1.00048
1.0015
1.00261
1.00384
1.00519
1.00669
1.00832
1.01027
1.01193
1.01755
1.00048
1.0015
1.00261
1.00384
1.00519
1.00669
1.00832
1.01028
1.0119
1.01836
1.00048
1.0015
1.00261
1.00384
1.00519
1.00669
1.00832
1.01028
1.01188
1.01973
1.00048
1.0015
1.00261
1.00384
1.00519
1.00669
1.00832
1.01028
1.01186
1.021
1.00048
1.0015
1.00261
1.00384
1.0052
1.00669
1.00833
1.01029
1.01184
1.02298
1.00048
1.0015
1.00261
1.00384
1.0052
1.00669
1.00833
1.01029
1.01183
1.02616
1.00048
1.0015
1.00261
1.00384
1.0052
1.00669
1.00833
1.01029
1.01182
1.03116
1.00048
1.0015
1.00261
1.00384
1.0052
1.00669
1.00833
1.01029
1.01183
1.04229
1.00048
1.0015
1.00261
1.00384
1.0052
1.00669
1.00833
1.01029
1.01182
1.06686
1.00048
1.0015
1.00261
1.00384
1.0052
1.00669
1.00834
1.01029
1.01181
1.10261
1.01609
1.01631
1.01656
1.01684
1.01715
1.01751
1.01792
1.01836
1.01906
1.05972
1.01621
1.01645
1.01671
1.01701
1.01734
1.01772
1.01817
1.01859
1.01975
1.22891
1.01639
1.01663
1.01691
1.01723
1.01758
1.01799
1.01846
1.0189
1.0226
1.50237
1.01661
1.01688
1.01718
1.01752
1.01789
1.01834
1.01879
1.01946
1.05396
1.66819
1.01688
1.01717
1.01748
1.01786
1.01825
1.01873
1.01917
1.02037
1.24854
1.74971
1.01723
1.01753
1.01787
1.01825
1.01871
1.0192
1.01971
1.02973
1.57873
1.80495
1.01764
1.01795
1.01832
1.01871
1.01921
1.0197
1.02074
1.16404
1.75354
1.82155
1.01817
1.01854
1.01896
1.01945
1.01997
1.02044
1.0253
1.53527
1.83728
1.824
1.01874
1.01916
1.0196
1.02017
1.02069
1.02171
1.13282
1.78367
1.85706
1.82752
1.0195
1.01988
1.02032
1.02085
1.02135
1.02576
1.53317
1.87122
1.85723
1.82769
1.02062
1.02105
1.0216
1.02209
1.02296
1.1689
1.81733
1.89038
1.85963
1.82605
1.02179
1.02233
1.02298
1.02353
1.03105
1.63361
1.89586
1.88531
1.85648
1.82204
1.02359
1.02406
1.02454
1.02555
1.27368
1.86857
1.90141
1.88036
1.8518
1.81746
1.02574
1.02635
1.02693
1.07218
1.76153
1.92551
1.90814
1.88293
1.85025
1.8143
1.02828
1.02896
1.03139
1.4979
1.89963
1.91383
1.90425
1.88672
1.85593
1.81395
1.03188
1.03219
1.24501
1.83785
1.92914
1.91966
1.913
1.90142
1.87567
1.82444
1.03521
1.15243
1.73923
1.95421
1.95257
1.94901
1.94477
1.93709
1.9175
1.85007
1.16254
1.66034
1.97549
2.00408
2.01636
2.01659
2.0122
2.00305
1.98192
1.90055
1.65574
2.01793
2.07314
2.07126
2.07571
2.07246
2.06311
2.04886
2.0248
1.95098
2.04156
2.21616
2.18425
2.15007
2.12376
2.10832
2.09276
2.07547
2.05279
2.00284
1.66893
1.60252
1.44873
1.28756
1.32033
1.44239
1.492
1.47295
1.45964
1.46826
1.69017
1.5951
1.43673
1.27227
1.30154
1.43388
1.49263
1.47147
1.46162
1.4704
1.70332
1.58576
1.42389
1.25818
1.28381
1.42331
1.49107
1.46835
1.46029
1.47018
1.71059
1.56885
1.40703
1.24442
1.2659
1.41139
1.48728
1.4641
1.45758
1.4688
1.71087
1.54938
1.38911
1.23169
1.2508
1.40023
1.48101
1.45588
1.44972
1.46595
1.70763
1.52852
1.36778
1.22096
1.2382
1.39183
1.47393
1.44581
1.43793
1.46279
1.70086
1.50741
1.34517
1.21017
1.22797
1.38827
1.47025
1.43739
1.42878
1.46158
1.69076
1.48544
1.32131
1.20028
1.22277
1.3888
1.47148
1.43127
1.42378
1.4624
1.67808
1.46331
1.29566
1.19165
1.22189
1.39317
1.47642
1.4271
1.4227
1.4647
1.66401
1.44148
1.27226
1.18607
1.22496
1.40447
1.48702
1.42514
1.42636
1.46838
1.64873
1.42055
1.25194
1.18394
1.23391
1.42376
1.50524
1.426
1.4335
1.47351
1.6318
1.40458
1.23209
1.18761
1.25259
1.4507
1.53279
1.43401
1.44551
1.48024
1.61594
1.39368
1.21305
1.19479
1.27703
1.48485
1.57375
1.45567
1.46272
1.48864
1.60301
1.38756
1.2119
1.20527
1.30423
1.52812
1.6386
1.49238
1.48194
1.49899
1.59596
1.38373
1.2214
1.21899
1.3325
1.58466
1.73092
1.54451
1.49534
1.51174
1.59641
1.3903
1.24599
1.24133
1.36801
1.65615
1.83517
1.61103
1.51422
1.52733
1.60187
1.40576
1.28389
1.2742
1.41692
1.7404
1.9253
1.68865
1.54344
1.54607
1.62374
1.44537
1.34065
1.31529
1.47952
1.83273
1.9837
1.76527
1.58096
1.56895
1.65616
1.5325
1.42981
1.37184
1.565
1.91999
2.00924
1.82699
1.62344
1.59753
1.73705
1.67147
1.5509
1.44927
1.66789
1.98159
2.01581
1.86425
1.66871
1.63063
1.01908
1.02015
1.02745
1.68986
1.84143
1.76281
1.67098
1.57053
1.45334
1.357
1.01909
1.02009
1.0279
1.68731
1.83814
1.7601
1.66785
1.56795
1.45218
1.35773
1.01908
1.02007
1.02863
1.68117
1.83207
1.75336
1.6614
1.56278
1.4498
1.35896
1.01907
1.02004
1.03031
1.67358
1.82219
1.7428
1.6516
1.55536
1.4467
1.36068
1.01906
1.02001
1.03432
1.66267
1.80957
1.73026
1.6398
1.54607
1.44284
1.36318
1.01904
1.01999
1.04304
1.64722
1.79234
1.71429
1.62529
1.53495
1.43836
1.36659
1.01901
1.01997
1.06065
1.63142
1.76905
1.6932
1.60668
1.52151
1.43358
1.37126
1.01898
1.02001
1.09034
1.62517
1.74297
1.66701
1.58361
1.50551
1.42845
1.37724
1.01892
1.02029
1.13316
1.62803
1.71033
1.64023
1.55731
1.48605
1.42282
1.38475
1.01885
1.02181
1.18142
1.62602
1.67869
1.60801
1.53421
1.46859
1.41656
1.39319
1.01879
1.02981
1.22032
1.61934
1.64456
1.58473
1.51453
1.45291
1.41153
1.40306
1.01875
1.06134
1.26265
1.59872
1.61785
1.56829
1.50155
1.44119
1.41032
1.41307
1.01876
1.13781
1.34049
1.57466
1.60336
1.55536
1.49462
1.43436
1.41322
1.42167
1.01917
1.24744
1.424
1.55396
1.58458
1.54347
1.49174
1.43147
1.41914
1.43098
1.02455
1.34513
1.48082
1.5276
1.55268
1.53095
1.49323
1.43387
1.42709
1.44092
1.06753
1.42072
1.51277
1.49604
1.50645
1.52104
1.49488
1.44041
1.43701
1.45116
1.17931
1.51581
1.5183
1.46583
1.46509
1.50996
1.4931
1.45108
1.4464
1.45926
1.3692
1.57539
1.52206
1.424
1.42624
1.49367
1.49004
1.46178
1.45269
1.46299
1.52015
1.59117
1.50391
1.373
1.38676
1.4738
1.48607
1.4678
1.45479
1.46307
1.63374
1.59959
1.47355
1.32064
1.34798
1.45439
1.48809
1.47079
1.45636
1.46439
1.63032
1.59908
1.47813
1.34851
1.32654
1.38288
1.44719
1.49957
1.49276
1.46742
1.51742
1.59076
1.50905
1.3893
1.38219
1.41862
1.44994
1.48631
1.48792
1.46809
1.36683
1.57482
1.52776
1.43166
1.43413
1.45724
1.45638
1.46513
1.47967
1.465
1.17888
1.51231
1.52874
1.47035
1.47939
1.48448
1.46339
1.44743
1.46514
1.45775
1.06787
1.41742
1.52313
1.49767
1.52008
1.50866
1.4674
1.43714
1.44899
1.44933
1.02472
1.34359
1.4891
1.52678
1.56048
1.52818
1.47037
1.43032
1.4354
1.44053
1.01919
1.24769
1.43027
1.55446
1.58685
1.54362
1.47577
1.42653
1.42608
1.43146
1.01876
1.13874
1.34648
1.57737
1.60486
1.55606
1.4834
1.42788
1.41904
1.42221
1.01875
1.06195
1.26861
1.60249
1.61975
1.56821
1.49464
1.43683
1.41686
1.41278
1.01879
1.03
1.22596
1.62467
1.64662
1.58468
1.50979
1.45037
1.41905
1.40359
1.01885
1.02182
1.18675
1.6309
1.6812
1.60775
1.53058
1.47009
1.42435
1.39599
1.01892
1.02029
1.13667
1.63166
1.7121
1.6408
1.5558
1.48704
1.42998
1.38987
1.01897
1.02001
1.09178
1.62693
1.74411
1.66694
1.58295
1.50638
1.43517
1.38372
1.01901
1.01997
1.06089
1.63133
1.76986
1.69315
1.60605
1.52244
1.43968
1.37803
1.01904
1.01999
1.0428
1.64553
1.79224
1.71402
1.62477
1.53625
1.44357
1.37245
1.01906
1.02001
1.03388
1.65988
1.80864
1.72962
1.63938
1.54762
1.44731
1.3676
1.01907
1.02004
1.02973
1.66966
1.82112
1.74202
1.65124
1.55692
1.45061
1.36343
1.01908
1.02007
1.0279
1.67589
1.83125
1.7527
1.66108
1.56422
1.45306
1.36008
1.01909
1.0201
1.02709
1.68114
1.83769
1.75982
1.66746
1.56914
1.45482
1.35764
1.01908
1.02015
1.02661
1.68299
1.8411
1.76289
1.67038
1.57147
1.45562
1.35613
1.01597
1.01618
1.01642
1.01668
1.01697
1.0173
1.01767
1.0181
1.01852
1.02206
1.01588
1.01608
1.0163
1.01655
1.01682
1.01712
1.01746
1.01783
1.01828
1.01862
1.01584
1.01603
1.01624
1.01647
1.01673
1.01701
1.01732
1.01766
1.01809
1.01838
1.01581
1.01599
1.0162
1.01642
1.01667
1.01694
1.01724
1.01755
1.01796
1.01824
1.0158
1.01598
1.01618
1.0164
1.01663
1.01689
1.01718
1.01749
1.01786
1.01814
1.01579
1.01598
1.01617
1.01639
1.01662
1.01688
1.01716
1.01746
1.01781
1.0181
1.01579
1.01597
1.01617
1.01639
1.01662
1.01688
1.01716
1.01745
1.01779
1.01812
1.01579
1.01598
1.01618
1.01639
1.01663
1.01688
1.01716
1.01746
1.01779
1.01816
1.0158
1.01598
1.01618
1.0164
1.01663
1.01689
1.01716
1.01746
1.01778
1.01817
1.01581
1.01599
1.01619
1.0164
1.01664
1.01689
1.01717
1.01747
1.01779
1.01817
1.01582
1.016
1.0162
1.01641
1.01665
1.0169
1.01717
1.01748
1.0178
1.01817
1.01582
1.01601
1.01621
1.01642
1.01666
1.01691
1.01718
1.01748
1.01781
1.01817
1.01583
1.01601
1.01621
1.01643
1.01666
1.01692
1.01719
1.01749
1.01781
1.01817
1.01584
1.01602
1.01622
1.01644
1.01667
1.01692
1.0172
1.01749
1.01782
1.01816
1.01584
1.01602
1.01622
1.01644
1.01667
1.01693
1.0172
1.0175
1.01782
1.01816
1.01584
1.01603
1.01622
1.01644
1.01667
1.01692
1.01719
1.01749
1.01781
1.01815
1.01584
1.01602
1.01622
1.01643
1.01666
1.01692
1.01719
1.01749
1.01781
1.01815
1.01584
1.01602
1.01622
1.01643
1.01666
1.01692
1.01719
1.01749
1.01781
1.01815
1.01583
1.01601
1.01621
1.01643
1.01666
1.01692
1.01719
1.01749
1.01781
1.01816
1.01583
1.01601
1.01621
1.01643
1.01667
1.01692
1.0172
1.01749
1.01782
1.01816
1.00048
1.0015
1.00261
1.00384
1.00519
1.00669
1.00833
1.01021
1.01217
1.01459
1.00048
1.0015
1.00261
1.00384
1.00519
1.00669
1.00833
1.0102
1.01219
1.01455
1.00048
1.0015
1.00261
1.00384
1.00519
1.00669
1.00833
1.0102
1.0122
1.01452
1.00048
1.0015
1.00261
1.00384
1.00519
1.00669
1.00834
1.0102
1.01221
1.01451
1.00048
1.0015
1.00261
1.00384
1.00519
1.00669
1.00834
1.0102
1.01222
1.01452
1.00048
1.0015
1.00261
1.00384
1.00519
1.00669
1.00834
1.0102
1.01223
1.01452
1.00048
1.0015
1.00261
1.00384
1.00519
1.00669
1.00834
1.01019
1.01224
1.01451
1.00048
1.0015
1.00261
1.00384
1.00519
1.00669
1.00834
1.01019
1.01224
1.01452
1.00048
1.0015
1.00261
1.00384
1.00519
1.00669
1.00834
1.01019
1.01224
1.01452
1.00048
1.0015
1.00261
1.00384
1.00519
1.00669
1.00834
1.01018
1.01224
1.01452
1.00048
1.0015
1.00261
1.00384
1.00519
1.00669
1.00834
1.01018
1.01224
1.01453
1.00048
1.0015
1.00261
1.00384
1.00519
1.00669
1.00834
1.01018
1.01223
1.01454
1.00048
1.0015
1.00261
1.00384
1.00519
1.00669
1.00834
1.01018
1.01223
1.01454
1.00048
1.0015
1.00261
1.00384
1.00519
1.00669
1.00834
1.01018
1.01223
1.01454
1.00048
1.0015
1.00261
1.00384
1.00519
1.00669
1.00834
1.01018
1.01222
1.01455
1.00048
1.0015
1.00261
1.00384
1.00519
1.00669
1.00834
1.01018
1.01222
1.01455
1.00048
1.0015
1.00261
1.00384
1.00519
1.00669
1.00834
1.01018
1.01222
1.01455
1.00048
1.0015
1.00261
1.00384
1.00519
1.00669
1.00834
1.01019
1.01222
1.01454
1.00048
1.0015
1.00261
1.00384
1.00519
1.00669
1.00834
1.01019
1.01223
1.01454
1.00048
1.0015
1.00261
1.00384
1.00519
1.00669
1.00834
1.01019
1.01223
1.01453
1.00048
1.0015
1.00261
1.00384
1.00519
1.00669
1.00834
1.01019
1.01223
1.01453
1.00048
1.0015
1.00261
1.00384
1.00519
1.00669
1.00834
1.01019
1.01223
1.01454
1.00048
1.0015
1.00261
1.00384
1.00519
1.00669
1.00834
1.01019
1.01222
1.01454
1.00048
1.0015
1.00261
1.00384
1.00519
1.00669
1.00834
1.01018
1.01222
1.01455
1.00048
1.0015
1.00261
1.00384
1.00519
1.00669
1.00834
1.01018
1.01222
1.01455
1.00048
1.0015
1.00261
1.00384
1.00519
1.00669
1.00834
1.01018
1.01223
1.01455
1.00048
1.0015
1.00261
1.00384
1.00519
1.00669
1.00834
1.01018
1.01223
1.01454
1.00048
1.0015
1.00261
1.00384
1.00519
1.00669
1.00834
1.01018
1.01223
1.01454
1.00048
1.0015
1.00261
1.00384
1.00519
1.00669
1.00834
1.01018
1.01223
1.01454
1.00048
1.0015
1.00261
1.00384
1.00519
1.00669
1.00834
1.01018
1.01224
1.01453
1.00048
1.0015
1.00261
1.00384
1.00519
1.00669
1.00834
1.01018
1.01224
1.01452
1.00048
1.0015
1.00261
1.00384
1.00519
1.00669
1.00834
1.01019
1.01224
1.01452
1.00048
1.0015
1.00261
1.00384
1.00519
1.00669
1.00834
1.01019
1.01224
1.01452
1.00048
1.0015
1.00261
1.00384
1.00519
1.00669
1.00834
1.01019
1.01224
1.01451
1.00048
1.0015
1.00261
1.00384
1.00519
1.00669
1.00834
1.0102
1.01223
1.01452
1.00048
1.0015
1.00261
1.00384
1.00519
1.00669
1.00834
1.0102
1.01222
1.01452
1.00048
1.0015
1.00261
1.00384
1.00519
1.00669
1.00834
1.0102
1.01221
1.01451
1.00048
1.0015
1.00261
1.00384
1.00519
1.00669
1.00833
1.0102
1.0122
1.01452
1.00048
1.0015
1.00261
1.00384
1.00519
1.00669
1.00833
1.0102
1.01219
1.01455
1.00048
1.0015
1.00261
1.00384
1.00519
1.00669
1.00833
1.01021
1.01217
1.01459
1.01583
1.01601
1.01621
1.01643
1.01667
1.01692
1.0172
1.01749
1.01782
1.01816
1.01583
1.01602
1.01622
1.01643
1.01667
1.01692
1.01719
1.01749
1.01781
1.01815
1.01584
1.01602
1.01622
1.01643
1.01666
1.01692
1.01719
1.01749
1.01781
1.01815
1.01584
1.01602
1.01622
1.01643
1.01666
1.01692
1.01719
1.01749
1.01781
1.01815
1.01584
1.01603
1.01622
1.01644
1.01667
1.01692
1.01719
1.01749
1.01781
1.01815
1.01584
1.01602
1.01622
1.01644
1.01667
1.01693
1.0172
1.0175
1.01782
1.01816
1.01584
1.01602
1.01622
1.01644
1.01667
1.01692
1.0172
1.01749
1.01782
1.01816
1.01583
1.01601
1.01621
1.01643
1.01666
1.01692
1.01719
1.01749
1.01781
1.01817
1.01582
1.01601
1.01621
1.01642
1.01665
1.01691
1.01718
1.01748
1.0178
1.01817
1.01581
1.016
1.0162
1.01641
1.01665
1.0169
1.01717
1.01748
1.0178
1.01817
1.01581
1.01599
1.01619
1.0164
1.01664
1.01689
1.01717
1.01747
1.01779
1.01817
1.0158
1.01598
1.01618
1.0164
1.01663
1.01689
1.01716
1.01746
1.01778
1.01817
1.01579
1.01598
1.01618
1.01639
1.01663
1.01688
1.01716
1.01746
1.01779
1.01816
1.01579
1.01597
1.01617
1.01639
1.01662
1.01688
1.01716
1.01745
1.01779
1.01812
1.01579
1.01598
1.01617
1.01639
1.01662
1.01688
1.01716
1.01746
1.01781
1.0181
1.0158
1.01598
1.01618
1.0164
1.01663
1.01689
1.01718
1.01749
1.01786
1.01814
1.01581
1.01599
1.0162
1.01642
1.01667
1.01694
1.01724
1.01755
1.01796
1.01824
1.01584
1.01603
1.01624
1.01647
1.01673
1.01701
1.01732
1.01766
1.01809
1.01838
1.01588
1.01608
1.0163
1.01655
1.01682
1.01712
1.01746
1.01783
1.01828
1.01862
1.01597
1.01618
1.01642
1.01668
1.01697
1.0173
1.01767
1.0181
1.01852
1.02192
)
;

boundaryField
{
    inlet
    {
        type            fixedValue;
        value           uniform 1;
    }
    outlet
    {
        type            inletOutlet;
        inletValue      uniform 1;
        value           nonuniform List<scalar> 
100
(
1.46728
1.46798
1.4649
1.45769
1.44936
1.44063
1.43155
1.42227
1.41281
1.40362
1.39604
1.38991
1.38373
1.37801
1.37241
1.36754
1.36337
1.36002
1.35759
1.35607
1.88856
1.84518
1.78179
1.70656
1.63447
1.5777
1.53767
1.5136
1.49716
1.48548
1.47844
1.47373
1.47015
1.46748
1.46596
1.46559
1.46602
1.4669
1.46733
1.46701
1.66387
1.69592
1.72902
1.76135
1.79221
1.82135
1.84854
1.87532
1.89891
1.91956
1.93342
1.94217
1.94691
1.94992
1.94919
1.94551
1.93863
1.93148
1.92317
1.91184
1.46811
1.47034
1.47018
1.46884
1.46606
1.46291
1.46165
1.46241
1.46463
1.46828
1.47334
1.47999
1.48834
1.49869
1.51145
1.52701
1.54569
1.56857
1.59727
1.63054
1.357
1.35773
1.35896
1.36067
1.36316
1.36656
1.37123
1.37723
1.38476
1.39321
1.40311
1.41315
1.42177
1.43108
1.44099
1.45121
1.45935
1.46311
1.46314
1.46433
)
;
    }
    triangle
    {
        type            zeroGradient;
    }
    top
    {
        type            symmetryPlane;
    }
    bottom
    {
        type            symmetryPlane;
    }
    defaultFaces
    {
        type            empty;
    }
}


// ************************************************************************* //
