/*--------------------------------*- C++ -*----------------------------------*\
  =========                 |
  \\      /  F ield         | OpenFOAM: The Open Source CFD Toolbox
   \\    /   O peration     | Website:  https://openfoam.org
    \\  /    A nd           | Version:  8
     \\/     M anipulation  |
\*---------------------------------------------------------------------------*/
FoamFile
{
    version     2.0;
    format      ascii;
    class       volVectorField;
    location    "5.1";
    object      U;
}
// * * * * * * * * * * * * * * * * * * * * * * * * * * * * * * * * * * * * * //

dimensions      [0 1 -1 0 0 0 0];

internalField   nonuniform List<vector> 
2600
(
(0.824283 -0.0156274 0)
(1.3518 0.0380489 0)
(1.82133 0.0537422 0)
(2.09955 0.115698 0)
(1.47719 0.075132 0)
(0.598778 0.0875604 0)
(0.328501 -0.102457 0)
(0.8058 -0.0854459 0)
(1.46492 0.24869 0)
(1.42616 0.125559 0)
(0.190686 -0.147076 0)
(0.764974 0.0022818 0)
(1.38472 0.0150078 0)
(1.8539 0.112453 0)
(1.21345 0.132678 0)
(0.355897 0.128153 0)
(0.155563 -0.10079 0)
(0.631191 -0.155924 0)
(1.34235 0.210479 0)
(1.35519 0.126632 0)
(-0.0230083 -0.174818 0)
(0.345771 -0.0816079 0)
(0.912138 -0.0272348 0)
(1.4804 0.111035 0)
(0.902972 0.228246 0)
(0.129676 0.173251 0)
(0.012811 -0.112107 0)
(0.477406 -0.219236 0)
(1.20789 0.172278 0)
(1.27539 0.128027 0)
(-0.0983585 -0.17604 0)
(0.109612 -0.136015 0)
(0.498051 -0.109751 0)
(1.02344 0.0898334 0)
(0.574369 0.294766 0)
(-0.0642195 0.212739 0)
(-0.101906 -0.117489 0)
(0.345404 -0.282675 0)
(1.0641 0.134234 0)
(1.18661 0.12654 0)
(-0.139239 -0.168383 0)
(-0.0400734 -0.173671 0)
(0.149061 -0.132539 0)
(0.580834 0.107601 0)
(0.278993 0.373671 0)
(-0.218638 0.24272 0)
(-0.183803 -0.127783 0)
(0.227396 -0.330555 0)
(0.916607 0.096385 0)
(1.08971 0.126672 0)
(-0.170916 -0.155578 0)
(-0.158067 -0.190023 0)
(-0.121996 -0.181787 0)
(0.222634 0.104684 0)
(0.0303368 0.425627 0)
(-0.330075 0.275276 0)
(-0.234514 -0.138694 0)
(0.132868 -0.373466 0)
(0.772694 0.0591502 0)
(0.987323 0.124898 0)
(-0.198289 -0.139394 0)
(-0.255721 -0.195322 0)
(-0.316485 -0.189126 0)
(-0.0486404 0.118749 0)
(-0.159453 0.461991 0)
(-0.404352 0.301046 0)
(-0.258876 -0.164343 0)
(0.063659 -0.401389 0)
(0.637846 0.0219482 0)
(0.883109 0.12271 0)
(-0.214261 -0.112416 0)
(-0.32979 -0.199629 0)
(-0.437244 -0.199482 0)
(-0.248969 0.11553 0)
(-0.29952 0.484571 0)
(-0.443877 0.335859 0)
(-0.255377 -0.198363 0)
(0.0248779 -0.425091 0)
(0.51272 -0.00920647 0)
(0.782239 0.121332 0)
(-0.225509 -0.0833668 0)
(-0.37679 -0.191149 0)
(-0.502126 -0.194948 0)
(-0.39213 0.118947 0)
(-0.404272 0.483894 0)
(-0.458294 0.370028 0)
(-0.212929 -0.227957 0)
(0.00735121 -0.43413 0)
(0.400084 -0.0386951 0)
(0.69144 0.113064 0)
(-0.240758 -0.0535327 0)
(-0.402583 -0.179786 0)
(-0.528773 -0.187778 0)
(-0.479595 0.114452 0)
(-0.473053 0.483856 0)
(-0.448352 0.389218 0)
(-0.139588 -0.257327 0)
(0.0047883 -0.436212 0)
(0.307583 -0.0619322 0)
(0.617211 0.111916 0)
(-0.252178 -0.0213094 0)
(-0.412361 -0.162064 0)
(-0.535168 -0.17409 0)
(-0.505636 0.116443 0)
(-0.493673 0.47254 0)
(-0.397953 0.408325 0)
(-0.0418898 -0.280347 0)
(0.0279117 -0.431405 0)
(0.247767 -0.0807981 0)
(0.566418 0.102545 0)
(-0.264415 0.0109749 0)
(-0.408518 -0.142364 0)
(-0.531333 -0.158248 0)
(-0.495087 0.112425 0)
(-0.486294 0.457165 0)
(-0.309309 0.413144 0)
(0.083425 -0.293455 0)
(0.0958103 -0.418324 0)
(0.224521 -0.099442 0)
(0.53808 0.0999749 0)
(-0.273376 0.0455773 0)
(-0.393222 -0.121635 0)
(-0.51331 -0.143968 0)
(-0.474695 0.105651 0)
(-0.456554 0.437206 0)
(-0.187431 0.407802 0)
(0.240627 -0.308132 0)
(0.205579 -0.40687 0)
(0.229435 -0.117027 0)
(0.52825 0.0908814 0)
(-0.266826 0.0788753 0)
(-0.359718 -0.101575 0)
(-0.471476 -0.133526 0)
(-0.439783 0.099627 0)
(-0.396627 0.407632 0)
(-0.0390292 0.377588 0)
(0.433817 -0.30815 0)
(0.340828 -0.3917 0)
(0.262286 -0.121258 0)
(0.530578 0.0793238 0)
(-0.265432 0.113484 0)
(-0.301043 -0.078396 0)
(-0.3938 -0.119166 0)
(-0.380576 0.0894953 0)
(-0.302016 0.371228 0)
(0.138821 0.334226 0)
(0.655679 -0.319638 0)
(0.490194 -0.372838 0)
(0.329158 -0.119076 0)
(0.548228 0.0719246 0)
(-0.23515 0.140907 0)
(-0.193576 -0.0631416 0)
(-0.259802 -0.106138 0)
(-0.283584 0.0792577 0)
(-0.168296 0.335597 0)
(0.338766 0.267376 0)
(0.892351 -0.325765 0)
(0.647732 -0.351178 0)
(0.427852 -0.117407 0)
(0.588945 0.0652113 0)
(-0.164786 0.16162 0)
(0.00842369 -0.0483337 0)
(-0.0411649 -0.0839287 0)
(-0.12692 0.0717514 0)
(0.00226362 0.286774 0)
(0.562101 0.203645 0)
(1.12556 -0.341427 0)
(0.805904 -0.322292 0)
(0.549745 -0.109284 0)
(0.656704 0.06246 0)
(-0.0109889 0.12321 0)
(0.377035 -0.0592183 0)
(0.294329 -0.0755907 0)
(0.113196 0.0659463 0)
(0.221754 0.26625 0)
(0.794763 0.12755 0)
(1.33686 -0.358245 0)
(0.956554 -0.301686 0)
(0.686387 -0.102034 0)
(0.749014 0.0572584 0)
(0.378428 0.141321 0)
(0.93417 -0.0639042 0)
(0.75215 -0.0349767 0)
(0.44526 0.060275 0)
(0.488986 0.222676 0)
(1.04318 0.0607544 0)
(1.51095 -0.369118 0)
(1.09311 -0.280243 0)
(0.831308 -0.0911688 0)
(0.861893 0.054871 0)
(1.18481 -0.147301 0)
(1.49835 -0.0645719 0)
(1.24596 -0.00256033 0)
(0.851039 0.0702595 0)
(0.810924 0.236865 0)
(1.31088 0.00627335 0)
(1.64403 -0.374945 0)
(1.21198 -0.267447 0)
(0.977365 -0.083235 0)
(0.990762 0.052706 0)
(1.91394 0.00712184 0)
(1.90314 -0.0666163 0)
(1.67424 0.0265654 0)
(1.3116 0.097683 0)
(1.21142 0.199793 0)
(1.60652 -0.0430557 0)
(1.74996 -0.378596 0)
(1.32243 -0.254256 0)
(1.12915 -0.0757845 0)
(1.14354 0.0505288 0)
(1.98265 0.236598 0)
(2.13055 -0.0159513 0)
(1.9651 0.0373165 0)
(1.71074 0.141937 0)
(1.62042 0.199901 0)
(1.87212 -0.0457838 0)
(1.83043 -0.363747 0)
(1.42173 -0.242919 0)
(1.2718 -0.0686749 0)
(1.30542 0.0471167 0)
(1.95801 0.297282 0)
(2.2221 0.0165429 0)
(2.11717 0.0221837 0)
(1.94891 0.141947 0)
(1.91868 0.179256 0)
(2.04219 -0.0467934 0)
(1.87963 -0.348702 0)
(1.50054 -0.241115 0)
(1.38172 -0.0681827 0)
(1.44392 0.042111 0)
(1.89024 0.387978 0)
(2.23439 0.0819452 0)
(2.18102 0.0347767 0)
(2.06747 0.152262 0)
(2.09261 0.185131 0)
(2.1279 -0.016778 0)
(1.90935 -0.317481 0)
(1.56389 -0.235643 0)
(1.46172 -0.0668644 0)
(1.55161 0.0349582 0)
(1.86157 0.431861 0)
(2.23669 0.135132 0)
(2.19606 0.0224874 0)
(2.12404 0.136721 0)
(2.18154 0.156769 0)
(2.16985 -0.0186549 0)
(1.93175 -0.306094 0)
(1.6152 -0.239346 0)
(1.52219 -0.0726202 0)
(1.63479 0.0266244 0)
(1.83128 0.488055 0)
(2.24395 0.189068 0)
(2.17668 0.0387223 0)
(2.15866 0.141923 0)
(2.23471 0.147055 0)
(2.19916 -0.0188884 0)
(1.95203 -0.295037 0)
(1.65788 -0.239856 0)
(1.57634 -0.0749213 0)
(1.70398 0.0201849 0)
(1.80753 0.527772 0)
(2.22454 0.243492 0)
(2.16802 0.036087 0)
(2.19859 0.135651 0)
(2.2748 0.129298 0)
(2.22144 -0.0363542 0)
(1.96998 -0.302614 0)
(1.6927 -0.24778 0)
(1.63003 -0.0883263 0)
(1.76336 0.00769827 0)
(1.78752 0.557307 0)
(2.18358 0.295586 0)
(2.16792 0.0498965 0)
(2.25055 0.131039 0)
(2.30316 0.122207 0)
(2.23689 -0.0351811 0)
(1.98558 -0.30146 0)
(1.72254 -0.251017 0)
(1.68425 -0.0920322 0)
(1.81211 0.00475078 0)
(1.76306 0.585081 0)
(2.13096 0.345629 0)
(2.18015 0.0612813 0)
(2.29912 0.126487 0)
(2.31515 0.11323 0)
(2.24072 -0.0478549 0)
(1.99301 -0.307382 0)
(1.74569 -0.256883 0)
(1.72679 -0.11298 0)
(1.84244 -0.00893416 0)
(1.7432 0.607093 0)
(2.08456 0.381604 0)
(2.19867 0.083625 0)
(2.32187 0.130051 0)
(2.31584 0.102916 0)
(2.23767 -0.052518 0)
(1.99464 -0.301305 0)
(1.76313 -0.257102 0)
(1.76435 -0.127395 0)
(1.86217 -0.0201701 0)
(1.72444 0.627102 0)
(2.03959 0.418568 0)
(2.20781 0.11076 0)
(2.32156 0.130494 0)
(2.31255 0.0941739 0)
(2.22766 -0.0567009 0)
(1.99384 -0.300136 0)
(1.77495 -0.25529 0)
(1.79765 -0.143814 0)
(1.88062 -0.0324787 0)
(1.70576 0.644772 0)
(2.00999 0.439689 0)
(2.20057 0.145684 0)
(2.3172 0.133422 0)
(2.30834 0.0934763 0)
(2.21228 -0.0645564 0)
(1.99628 -0.289433 0)
(1.78444 -0.250282 0)
(1.82362 -0.157668 0)
(1.89575 -0.0448866 0)
(1.68614 0.660391 0)
(1.9738 0.469524 0)
(2.18428 0.183742 0)
(2.31437 0.138287 0)
(2.2996 0.0874312 0)
(2.19293 -0.085614 0)
(2.005 -0.287663 0)
(1.7934 -0.244055 0)
(1.84151 -0.168944 0)
(1.90614 -0.0564589 0)
(1.67387 0.672071 0)
(1.95254 0.484168 0)
(2.16896 0.218963 0)
(2.31184 0.14935 0)
(2.28981 0.0808482 0)
(2.17363 -0.110612 0)
(2.01662 -0.295214 0)
(1.80006 -0.24346 0)
(1.85028 -0.178897 0)
(1.91061 -0.066638 0)
(1.6535 0.685129 0)
(1.9217 0.506835 0)
(2.13888 0.267383 0)
(2.30789 0.165476 0)
(2.27596 0.0797365 0)
(2.15535 -0.134531 0)
(2.02319 -0.313014 0)
(1.8044 -0.246484 0)
(1.85057 -0.185685 0)
(1.91004 -0.0755326 0)
(1.64905 0.693085 0)
(1.90255 0.521071 0)
(2.12491 0.298155 0)
(2.30499 0.192392 0)
(2.25576 0.0754387 0)
(2.14247 -0.156401 0)
(2.03355 -0.327729 0)
(1.80693 -0.249061 0)
(1.84555 -0.19132 0)
(1.90636 -0.0823162 0)
(1.65071 0.689975 0)
(1.87539 0.545871 0)
(2.08776 0.345445 0)
(2.30784 0.218452 0)
(2.22757 0.0690332 0)
(2.12997 -0.18035 0)
(2.03744 -0.341021 0)
(1.80335 -0.249931 0)
(1.83969 -0.195292 0)
(1.90175 -0.0884704 0)
(1.65681 0.686884 0)
(1.8492 0.568268 0)
(2.0681 0.381371 0)
(2.30373 0.246326 0)
(2.20094 0.0662195 0)
(2.12401 -0.203736 0)
(2.03013 -0.347904 0)
(1.79784 -0.254234 0)
(1.83759 -0.19781 0)
(1.89697 -0.0926753 0)
(1.69728 0.665077 0)
(1.84197 0.580553 0)
(2.0535 0.417648 0)
(2.27101 0.285428 0)
(2.18935 0.0669443 0)
(2.11488 -0.227608 0)
(2.01088 -0.349227 0)
(1.79613 -0.253842 0)
(1.84089 -0.199688 0)
(1.89251 -0.0965328 0)
(1.7352 0.638965 0)
(1.82556 0.606617 0)
(2.03824 0.456165 0)
(2.23399 0.316679 0)
(2.19304 0.0712899 0)
(2.0903 -0.252659 0)
(1.99058 -0.352651 0)
(1.79903 -0.253764 0)
(1.84624 -0.199323 0)
(1.88875 -0.099714 0)
(1.16417 0.243895 0)
(0.925126 0.358462 0)
(1.0084 0.46924 0)
(1.04849 0.556748 0)
(1.05475 0.594157 0)
(1.06291 0.606279 0)
(1.07513 0.610568 0)
(1.09782 0.618446 0)
(1.14285 0.632971 0)
(1.25792 0.659545 0)
(1.61401 0.459811 0)
(1.06198 0.572879 0)
(1.01391 0.602884 0)
(1.03388 0.61448 0)
(1.04711 0.618354 0)
(1.06323 0.624628 0)
(1.08158 0.630722 0)
(1.10665 0.639348 0)
(1.15013 0.6472 0)
(1.26422 0.677159 0)
(2.45272 0.179815 0)
(1.66732 0.591523 0)
(1.13785 0.67143 0)
(1.14203 0.638064 0)
(1.13451 0.620642 0)
(1.1347 0.622774 0)
(1.144 0.630309 0)
(1.16101 0.637082 0)
(1.19541 0.642589 0)
(1.30742 0.67209 0)
(2.58475 0.0360958 0)
(2.52049 0.137955 0)
(1.55446 0.666935 0)
(1.19988 0.708795 0)
(1.20722 0.694099 0)
(1.21068 0.686602 0)
(1.21171 0.681565 0)
(1.22133 0.680175 0)
(1.24713 0.681147 0)
(1.35456 0.703965 0)
(2.59325 0.0307908 0)
(2.59089 0.0333798 0)
(2.41949 0.236861 0)
(1.40101 0.698218 0)
(1.23856 0.712127 0)
(1.25271 0.710857 0)
(1.25507 0.712039 0)
(1.26989 0.715304 0)
(1.30255 0.711408 0)
(1.39885 0.720744 0)
(2.59609 0.0291073 0)
(2.59464 0.0291409 0)
(2.59228 0.0315821 0)
(2.02444 0.499804 0)
(1.27195 0.723355 0)
(1.25409 0.715628 0)
(1.27149 0.718337 0)
(1.30128 0.722678 0)
(1.34163 0.727209 0)
(1.42478 0.727401 0)
(2.60191 0.019649 0)
(2.60085 0.0196088 0)
(2.5993 0.0211848 0)
(2.58801 0.0548462 0)
(1.54504 0.657575 0)
(1.27327 0.718273 0)
(1.28913 0.721386 0)
(1.31755 0.730291 0)
(1.35914 0.73536 0)
(1.43101 0.733426 0)
(2.60485 0.0158458 0)
(2.6028 0.0172468 0)
(2.6011 0.0179421 0)
(2.59837 0.0205574 0)
(2.38462 0.266771 0)
(1.40349 0.69544 0)
(1.29378 0.731062 0)
(1.3263 0.736616 0)
(1.36701 0.73677 0)
(1.43348 0.731921 0)
(2.60628 0.0132802 0)
(2.60484 0.0134986 0)
(2.60304 0.0144793 0)
(2.60186 0.0146045 0)
(2.59908 0.0230493 0)
(1.78559 0.607871 0)
(1.31287 0.743355 0)
(1.3326 0.736948 0)
(1.37314 0.733281 0)
(1.43532 0.731685 0)
(2.6085 0.00937405 0)
(2.60722 0.0099353 0)
(2.60571 0.0107909 0)
(2.60433 0.0113045 0)
(2.60161 0.0136076 0)
(2.52214 0.1557 0)
(1.50048 0.703866 0)
(1.34032 0.730101 0)
(1.38332 0.734924 0)
(1.43881 0.734422 0)
(2.61036 0.00737597 0)
(2.60885 0.00814155 0)
(2.6074 0.00848136 0)
(2.60543 0.00957148 0)
(2.60387 0.00989763 0)
(2.59992 0.0171704 0)
(1.97591 0.567818 0)
(1.3636 0.744566 0)
(1.38777 0.740055 0)
(1.43909 0.737214 0)
(2.61085 0.00664839 0)
(2.60942 0.00704279 0)
(2.60791 0.00748479 0)
(2.60612 0.00822081 0)
(2.60447 0.00850461 0)
(2.60225 0.0101866 0)
(2.56528 0.125014 0)
(1.54714 0.70047 0)
(1.39517 0.735287 0)
(1.44296 0.737388 0)
(2.6117 0.00465664 0)
(2.61045 0.00488269 0)
(2.60895 0.0054557 0)
(2.60746 0.00586625 0)
(2.60561 0.0066672 0)
(2.60402 0.00740796 0)
(2.59956 0.0161034 0)
(1.94685 0.581438 0)
(1.41862 0.748599 0)
(1.44376 0.744662 0)
(2.61226 0.00379122 0)
(2.61098 0.00418295 0)
(2.60956 0.00463407 0)
(2.60808 0.00509458 0)
(2.60628 0.00592518 0)
(2.6046 0.00628984 0)
(2.6017 0.00801945 0)
(2.53435 0.173662 0)
(1.59247 0.707695 0)
(1.45051 0.7409 0)
(2.61282 0.00299867 0)
(2.61155 0.00331938 0)
(2.61023 0.00355202 0)
(2.60871 0.00401477 0)
(2.60713 0.00433517 0)
(2.60528 0.00485381 0)
(2.60374 0.00548019 0)
(2.60262 0.0201084 0)
(1.85356 0.627713 0)
(1.46367 0.75647 0)
(2.61322 0.00241026 0)
(2.61201 0.00256651 0)
(2.61068 0.00286237 0)
(2.60921 0.00317424 0)
(2.60768 0.00347055 0)
(2.60581 0.00413897 0)
(2.60421 0.00433771 0)
(2.60107 0.00679706 0)
(2.44223 0.303643 0)
(1.57798 0.729227 0)
(2.61358 0.00175116 0)
(2.61241 0.00186129 0)
(2.61107 0.00218915 0)
(2.6097 0.00232507 0)
(2.60809 0.00281489 0)
(2.60644 0.0030453 0)
(2.6045 0.00360161 0)
(2.60302 0.00439072 0)
(2.61801 0.0440739 0)
(1.73358 0.667614 0)
(2.61385 0.0012612 0)
(2.61268 0.00138409 0)
(2.61139 0.0016003 0)
(2.61001 0.0017846 0)
(2.60845 0.00211908 0)
(2.60682 0.00236696 0)
(2.60486 0.00289345 0)
(2.6033 0.00318881 0)
(2.59819 0.0115453 0)
(1.97799 0.559963 0)
(2.61402 0.000936383 0)
(2.61288 0.000995857 0)
(2.6116 0.00121788 0)
(2.61026 0.0012999 0)
(2.60872 0.0016377 0)
(2.60714 0.00176879 0)
(2.60522 0.00230404 0)
(2.60351 0.0024718 0)
(2.59998 0.00422527 0)
(2.44148 0.292304 0)
(2.61417 0.000618561 0)
(2.61304 0.000674303 0)
(2.61179 0.000834893 0)
(2.61046 0.000910743 0)
(2.60895 0.00118112 0)
(2.60739 0.00127894 0)
(2.60554 0.00174952 0)
(2.60372 0.00185497 0)
(2.6014 0.00287365 0)
(2.62002 0.0521787 0)
(2.71173 -9.04455e-08 0)
(2.7049 2.73713e-07 0)
(2.69746 -7.19226e-07 0)
(2.68936 1.20227e-06 0)
(2.68051 -2.59231e-06 0)
(2.67085 3.78981e-06 0)
(2.66045 -9.85967e-06 0)
(2.64811 1.31151e-05 0)
(2.63912 -2.6176e-05 0)
(2.44996 0.0281655 0)
(2.71173 -2.59291e-07 0)
(2.7049 7.86214e-07 0)
(2.69746 -2.04357e-06 0)
(2.68936 3.43894e-06 0)
(2.68051 -7.12704e-06 0)
(2.67085 1.05976e-05 0)
(2.66045 -2.57392e-05 0)
(2.64811 4.02367e-05 0)
(2.63909 -9.60909e-05 0)
(2.52873 0.0491888 0)
(2.71173 -4.24424e-07 0)
(2.7049 1.29045e-06 0)
(2.69746 -3.33313e-06 0)
(2.68936 5.63464e-06 0)
(2.68051 -1.1614e-05 0)
(2.67085 1.72846e-05 0)
(2.66045 -4.02154e-05 0)
(2.64811 6.64547e-05 0)
(2.63886 -0.00020262 0)
(2.58035 0.0360637 0)
(2.71173 -5.81863e-07 0)
(2.7049 1.77377e-06 0)
(2.69746 -4.53678e-06 0)
(2.68936 7.71184e-06 0)
(2.68051 -1.57167e-05 0)
(2.67085 2.36668e-05 0)
(2.66045 -5.24074e-05 0)
(2.64811 9.10264e-05 0)
(2.63865 -0.000217874 0)
(2.59562 0.0288922 0)
(2.71173 -7.28779e-07 0)
(2.7049 2.22897e-06 0)
(2.69746 -5.63495e-06 0)
(2.68936 9.6423e-06 0)
(2.68052 -1.94001e-05 0)
(2.67085 2.96088e-05 0)
(2.66046 -6.28413e-05 0)
(2.64813 0.000114585 0)
(2.63854 -0.000238066 0)
(2.60477 0.0220491 0)
(2.71173 -8.6324e-07 0)
(2.7049 2.64982e-06 0)
(2.69746 -6.6117e-06 0)
(2.68936 1.13982e-05 0)
(2.68052 -2.25991e-05 0)
(2.67085 3.49861e-05 0)
(2.66046 -7.12791e-05 0)
(2.64816 0.000134403 0)
(2.63846 -0.000255861 0)
(2.61112 0.0169611 0)
(2.71173 -9.84051e-07 0)
(2.7049 3.03207e-06 0)
(2.69746 -7.46142e-06 0)
(2.68936 1.29664e-05 0)
(2.68052 -2.53141e-05 0)
(2.67085 3.9765e-05 0)
(2.66046 -7.8482e-05 0)
(2.6482 0.000150658 0)
(2.63837 -0.000266715 0)
(2.61339 0.0151561 0)
(2.71173 -1.09067e-06 0)
(2.7049 3.37302e-06 0)
(2.69746 -8.18481e-06 0)
(2.68936 1.43407e-05 0)
(2.68052 -2.75492e-05 0)
(2.67085 4.38556e-05 0)
(2.66046 -8.39188e-05 0)
(2.64824 0.000164018 0)
(2.63824 -0.000270209 0)
(2.61638 0.0101263 0)
(2.71173 -1.18312e-06 0)
(2.7049 3.6717e-06 0)
(2.69746 -8.78813e-06 0)
(2.68936 1.55246e-05 0)
(2.68052 -2.93555e-05 0)
(2.67085 4.73026e-05 0)
(2.66045 -8.77538e-05 0)
(2.64829 0.000174564 0)
(2.6381 -0.00027756 0)
(2.61751 0.00847379 0)
(2.71173 -1.26191e-06 0)
(2.7049 3.92855e-06 0)
(2.69746 -9.2806e-06 0)
(2.68936 1.65242e-05 0)
(2.68052 -3.07675e-05 0)
(2.67085 5.01463e-05 0)
(2.66045 -9.0158e-05 0)
(2.64834 0.000183619 0)
(2.63796 -0.000279394 0)
(2.61838 0.00691187 0)
(2.71173 -1.32783e-06 0)
(2.7049 4.14529e-06 0)
(2.69746 -9.67372e-06 0)
(2.68936 1.73534e-05 0)
(2.68052 -3.18471e-05 0)
(2.67085 5.24521e-05 0)
(2.66044 -9.18371e-05 0)
(2.64839 0.000188551 0)
(2.6378 -0.000281138 0)
(2.6199 0.00471236 0)
(2.71173 -1.38189e-06 0)
(2.7049 4.32439e-06 0)
(2.69746 -9.97852e-06 0)
(2.68936 1.8023e-05 0)
(2.68052 -3.26261e-05 0)
(2.67085 5.43163e-05 0)
(2.66044 -9.31253e-05 0)
(2.64845 0.000193781 0)
(2.63764 -0.000283646 0)
(2.62048 0.00389336 0)
(2.71173 -1.4252e-06 0)
(2.7049 4.46899e-06 0)
(2.69746 -1.02067e-05 0)
(2.68936 1.85474e-05 0)
(2.68052 -3.31305e-05 0)
(2.67086 5.56776e-05 0)
(2.66043 -9.31421e-05 0)
(2.6485 0.000196148 0)
(2.63748 -0.000281323 0)
(2.62086 0.00290322 0)
(2.71173 -1.45886e-06 0)
(2.7049 4.58238e-06 0)
(2.69746 -1.03689e-05 0)
(2.68936 1.89421e-05 0)
(2.68052 -3.34157e-05 0)
(2.67086 5.66462e-05 0)
(2.66042 -9.2906e-05 0)
(2.64856 0.000197741 0)
(2.63732 -0.000278248 0)
(2.62115 0.00227959 0)
(2.71173 -1.48398e-06 0)
(2.7049 4.66787e-06 0)
(2.69746 -1.0474e-05 0)
(2.68936 1.92175e-05 0)
(2.68052 -3.34811e-05 0)
(2.67086 5.72274e-05 0)
(2.66041 -9.19322e-05 0)
(2.64861 0.000197288 0)
(2.63715 -0.00027259 0)
(2.62152 0.0016188 0)
(2.71173 -1.50157e-06 0)
(2.7049 4.72856e-06 0)
(2.69746 -1.053e-05 0)
(2.68936 1.93899e-05 0)
(2.68052 -3.33635e-05 0)
(2.67086 5.74737e-05 0)
(2.6604 -9.04858e-05 0)
(2.64866 0.000196559 0)
(2.63699 -0.000261501 0)
(2.62175 0.00123184 0)
(2.71173 -1.51255e-06 0)
(2.7049 4.76712e-06 0)
(2.69746 -1.05398e-05 0)
(2.68936 1.94695e-05 0)
(2.68052 -3.30892e-05 0)
(2.67086 5.73581e-05 0)
(2.66039 -8.85154e-05 0)
(2.6487 0.000193566 0)
(2.63683 -0.000246535 0)
(2.62193 0.000836312 0)
(2.71173 -1.51765e-06 0)
(2.7049 4.78671e-06 0)
(2.69746 -1.05105e-05 0)
(2.68936 1.94681e-05 0)
(2.68052 -3.26802e-05 0)
(2.67086 5.68959e-05 0)
(2.66038 -8.60405e-05 0)
(2.64874 0.000189298 0)
(2.63668 -0.000228262 0)
(2.62204 0.000568136 0)
(2.71173 -1.51692e-06 0)
(2.7049 4.78894e-06 0)
(2.69746 -1.04456e-05 0)
(2.68936 1.93829e-05 0)
(2.68052 -3.21515e-05 0)
(2.67086 5.612e-05 0)
(2.66037 -8.30979e-05 0)
(2.64876 0.000183377 0)
(2.63656 -0.000207765 0)
(2.62212 0.000333375 0)
(2.71173 -1.51147e-06 0)
(2.7049 4.77538e-06 0)
(2.69746 -1.03532e-05 0)
(2.68936 1.9232e-05 0)
(2.68052 -3.1529e-05 0)
(2.67086 5.50144e-05 0)
(2.66037 -7.96806e-05 0)
(2.64878 0.000175457 0)
(2.63645 -0.000185345 0)
(2.62216 0.000200204 0)
(2.71173 1.51174e-06 0)
(2.7049 -4.77678e-06 0)
(2.69746 1.0358e-05 0)
(2.68936 -1.92398e-05 0)
(2.68052 3.15478e-05 0)
(2.67086 -5.50254e-05 0)
(2.66037 7.9694e-05 0)
(2.64878 -0.00017541 0)
(2.63645 0.000185282 0)
(2.62216 -0.000200457 0)
(2.71173 1.51712e-06 0)
(2.7049 -4.78995e-06 0)
(2.69746 1.04493e-05 0)
(2.68936 -1.93887e-05 0)
(2.68052 3.21666e-05 0)
(2.67086 -5.61279e-05 0)
(2.66037 8.31127e-05 0)
(2.64876 -0.000183333 0)
(2.63656 0.000207726 0)
(2.62212 -0.00033344 0)
(2.71173 1.51779e-06 0)
(2.7049 -4.78742e-06 0)
(2.69746 1.05131e-05 0)
(2.68936 -1.94718e-05 0)
(2.68052 3.26917e-05 0)
(2.67086 -5.69002e-05 0)
(2.66038 8.60546e-05 0)
(2.64874 -0.000189256 0)
(2.63669 0.000228248 0)
(2.62204 -0.000568453 0)
(2.71173 1.51264e-06 0)
(2.7049 -4.76762e-06 0)
(2.69746 1.05416e-05 0)
(2.68936 -1.94717e-05 0)
(2.68052 3.30972e-05 0)
(2.67086 -5.73587e-05 0)
(2.66039 8.85276e-05 0)
(2.6487 -0.000193528 0)
(2.63683 0.00024655 0)
(2.62193 -0.000836573 0)
(2.71173 1.50164e-06 0)
(2.7049 -4.72888e-06 0)
(2.69746 1.05311e-05 0)
(2.68936 -1.93911e-05 0)
(2.68052 3.33684e-05 0)
(2.67086 -5.74718e-05 0)
(2.6604 9.04943e-05 0)
(2.64866 -0.000196524 0)
(2.63699 0.000261545 0)
(2.62175 -0.00123236 0)
(2.71173 1.48404e-06 0)
(2.7049 -4.6681e-06 0)
(2.69746 1.04746e-05 0)
(2.68936 -1.92181e-05 0)
(2.68052 3.34838e-05 0)
(2.67086 -5.7225e-05 0)
(2.66041 9.19358e-05 0)
(2.64861 -0.000197263 0)
(2.63715 0.000272661 0)
(2.62152 -0.00161964 0)
(2.71173 1.45893e-06 0)
(2.7049 -4.58258e-06 0)
(2.69746 1.03693e-05 0)
(2.68936 -1.89425e-05 0)
(2.68052 3.34171e-05 0)
(2.67086 -5.66436e-05 0)
(2.66042 9.29065e-05 0)
(2.64856 -0.000197721 0)
(2.63732 0.000278317 0)
(2.62115 -0.00228106 0)
(2.71173 1.42528e-06 0)
(2.7049 -4.46923e-06 0)
(2.69746 1.02071e-05 0)
(2.68936 -1.8548e-05 0)
(2.68052 3.31316e-05 0)
(2.67086 -5.5677e-05 0)
(2.66043 9.31415e-05 0)
(2.6485 -0.000196147 0)
(2.63748 0.000281398 0)
(2.62086 -0.0029046 0)
(2.71173 1.382e-06 0)
(2.7049 -4.32471e-06 0)
(2.69746 9.97898e-06 0)
(2.68936 -1.80243e-05 0)
(2.68052 3.2628e-05 0)
(2.67085 -5.43195e-05 0)
(2.66044 9.31273e-05 0)
(2.64845 -0.000193791 0)
(2.63764 0.000283704 0)
(2.62048 -0.0038959 0)
(2.71173 1.32797e-06 0)
(2.7049 -4.14572e-06 0)
(2.69746 9.67446e-06 0)
(2.68936 -1.73556e-05 0)
(2.68052 3.18505e-05 0)
(2.67085 -5.24582e-05 0)
(2.66044 9.18431e-05 0)
(2.64839 -0.000188561 0)
(2.6378 0.000281176 0)
(2.6199 -0.00471401 0)
(2.71173 1.26209e-06 0)
(2.7049 -3.92912e-06 0)
(2.69746 9.28169e-06 0)
(2.68936 -1.65274e-05 0)
(2.68052 3.07725e-05 0)
(2.67085 -5.0155e-05 0)
(2.66045 9.01659e-05 0)
(2.64834 -0.000183632 0)
(2.63796 0.000279432 0)
(2.61838 -0.00691625 0)
(2.71173 1.18335e-06 0)
(2.7049 -3.67241e-06 0)
(2.69746 8.78966e-06 0)
(2.68936 -1.55288e-05 0)
(2.68052 2.93621e-05 0)
(2.67085 -4.73128e-05 0)
(2.66045 8.77662e-05 0)
(2.64829 -0.000174569 0)
(2.6381 0.000277591 0)
(2.61751 -0.00847721 0)
(2.71173 1.09094e-06 0)
(2.7049 -3.37388e-06 0)
(2.69746 8.1868e-06 0)
(2.68936 -1.43458e-05 0)
(2.68052 2.75577e-05 0)
(2.67085 -4.38677e-05 0)
(2.66046 8.3938e-05 0)
(2.64824 -0.000164025 0)
(2.63824 0.000270219 0)
(2.61638 -0.0101327 0)
(2.71173 9.84366e-07 0)
(2.7049 -3.03307e-06 0)
(2.69746 7.46389e-06 0)
(2.68936 -1.29724e-05 0)
(2.68052 2.53241e-05 0)
(2.67085 -3.97769e-05 0)
(2.66046 7.84916e-05 0)
(2.6482 -0.000150647 0)
(2.63837 0.000266723 0)
(2.61339 -0.0151652 0)
(2.71173 8.63598e-07 0)
(2.7049 -2.65095e-06 0)
(2.69746 6.61464e-06 0)
(2.68936 -1.14048e-05 0)
(2.68052 2.26105e-05 0)
(2.67085 -3.49985e-05 0)
(2.66046 7.12914e-05 0)
(2.64816 -0.000134396 0)
(2.63846 0.000255865 0)
(2.61111 -0.0169669 0)
(2.71173 7.29174e-07 0)
(2.7049 -2.2302e-06 0)
(2.69746 5.63831e-06 0)
(2.68936 -9.64953e-06 0)
(2.68052 1.94129e-05 0)
(2.67085 -2.96211e-05 0)
(2.66046 6.2843e-05 0)
(2.64813 -0.000114555 0)
(2.63854 0.000238059 0)
(2.60476 -0.0220551 0)
(2.71173 5.82291e-07 0)
(2.7049 -1.77509e-06 0)
(2.69746 4.54049e-06 0)
(2.68936 -7.71947e-06 0)
(2.68051 1.57306e-05 0)
(2.67085 -2.36789e-05 0)
(2.66045 5.24034e-05 0)
(2.64811 -9.09859e-05 0)
(2.63865 0.000217921 0)
(2.59562 -0.0289019 0)
(2.71173 4.24876e-07 0)
(2.7049 -1.29183e-06 0)
(2.69746 3.33712e-06 0)
(2.68936 -5.6425e-06 0)
(2.68051 1.16285e-05 0)
(2.67085 -1.72954e-05 0)
(2.66045 4.02003e-05 0)
(2.64811 -6.63884e-05 0)
(2.63886 0.00020265 0)
(2.58034 -0.036067 0)
(2.71173 2.59758e-07 0)
(2.7049 -7.87633e-07 0)
(2.69746 2.04769e-06 0)
(2.68936 -3.44677e-06 0)
(2.68051 7.14154e-06 0)
(2.67085 -1.06102e-05 0)
(2.66045 2.57298e-05 0)
(2.64811 -4.01379e-05 0)
(2.63909 9.608e-05 0)
(2.52856 -0.0492894 0)
(2.71173 9.09243e-08 0)
(2.7049 -2.75163e-07 0)
(2.69746 7.23473e-07 0)
(2.68936 -1.21027e-06 0)
(2.68051 2.60788e-06 0)
(2.67085 -3.80146e-06 0)
(2.66045 9.82181e-06 0)
(2.64811 -1.2982e-05 0)
(2.63912 2.59857e-05 0)
(2.44979 -0.0280376 0)
(2.61417 -0.000618398 0)
(2.61304 -0.00067418 0)
(2.61178 -0.000834393 0)
(2.61046 -0.000910742 0)
(2.60895 -0.00117981 0)
(2.60738 -0.00127993 0)
(2.60554 -0.00174577 0)
(2.60371 -0.00185903 0)
(2.60145 -0.00286739 0)
(2.62132 -0.0499535 0)
(2.61402 -0.000936221 0)
(2.61288 -0.000996011 0)
(2.6116 -0.00121739 0)
(2.61026 -0.00130045 0)
(2.60872 -0.00163685 0)
(2.60713 -0.00176957 0)
(2.60522 -0.0023043 0)
(2.60351 -0.00247074 0)
(2.6 -0.00423065 0)
(2.44799 -0.286719 0)
(2.61385 -0.00126073 0)
(2.61268 -0.00138362 0)
(2.61139 -0.00159988 0)
(2.61001 -0.00178388 0)
(2.60845 -0.00211914 0)
(2.60682 -0.00236559 0)
(2.60486 -0.00289461 0)
(2.6033 -0.00318604 0)
(2.59817 -0.0115055 0)
(1.98357 -0.557025 0)
(2.61358 -0.00175135 0)
(2.61241 -0.00186134 0)
(2.61107 -0.00218955 0)
(2.6097 -0.00232504 0)
(2.60809 -0.00281561 0)
(2.60644 -0.00304548 0)
(2.6045 -0.00360226 0)
(2.60302 -0.00438876 0)
(2.61761 -0.0438381 0)
(1.73482 -0.666099 0)
(2.61322 -0.00241058 0)
(2.61201 -0.00256679 0)
(2.61068 -0.00286257 0)
(2.60921 -0.00317452 0)
(2.60768 -0.00347083 0)
(2.60581 -0.00413924 0)
(2.60421 -0.0043379 0)
(2.60107 -0.00678838 0)
(2.44295 -0.302402 0)
(1.5786 -0.728738 0)
(2.61282 -0.00300004 0)
(2.61155 -0.0033204 0)
(2.61023 -0.00355333 0)
(2.60871 -0.0040161 0)
(2.60713 -0.00433668 0)
(2.60527 -0.00485525 0)
(2.60374 -0.00548106 0)
(2.60257 -0.0200356 0)
(1.85465 -0.627321 0)
(1.46411 -0.75642 0)
(2.61226 -0.00379426 0)
(2.61098 -0.0041861 0)
(2.60956 -0.00463724 0)
(2.60808 -0.0050978 0)
(2.60627 -0.00592733 0)
(2.6046 -0.00629325 0)
(2.6017 -0.00801803 0)
(2.53515 -0.172761 0)
(1.59288 -0.707649 0)
(1.45088 -0.741047 0)
(2.6117 -0.00465897 0)
(2.61044 -0.00488557 0)
(2.60895 -0.0054581 0)
(2.60746 -0.00587034 0)
(2.60561 -0.00667081 0)
(2.60402 -0.00741111 0)
(2.59954 -0.016082 0)
(1.94894 -0.58073 0)
(1.41874 -0.748721 0)
(1.44395 -0.744863 0)
(2.61085 -0.00665316 0)
(2.60942 -0.00704747 0)
(2.60791 -0.00749068 0)
(2.60612 -0.0082248 0)
(2.60446 -0.00851125 0)
(2.60226 -0.0101882 0)
(2.56571 -0.124371 0)
(1.54772 -0.7004 0)
(1.39507 -0.73538 0)
(1.44296 -0.737676 0)
(2.61036 -0.00737863 0)
(2.60885 -0.00814411 0)
(2.6074 -0.00848512 0)
(2.60542 -0.00957595 0)
(2.60387 -0.00990229 0)
(2.59991 -0.0171599 0)
(1.9777 -0.567155 0)
(1.36388 -0.74463 0)
(1.38752 -0.740181 0)
(1.43902 -0.737347 0)
(2.60849 -0.0093804 0)
(2.60722 -0.00994241 0)
(2.60571 -0.0107967 0)
(2.60433 -0.0113134 0)
(2.60162 -0.013613 0)
(2.52252 -0.15523 0)
(1.50094 -0.703839 0)
(1.34047 -0.730209 0)
(1.38292 -0.735083 0)
(1.43855 -0.734514 0)
(2.60628 -0.0132847 0)
(2.60484 -0.013504 0)
(2.60303 -0.0144847 0)
(2.60186 -0.0146092 0)
(2.59907 -0.0230485 0)
(1.78689 -0.607591 0)
(1.31309 -0.743419 0)
(1.33275 -0.737072 0)
(1.37253 -0.733438 0)
(1.43497 -0.731608 0)
(2.60484 -0.0158548 0)
(2.60279 -0.0172575 0)
(2.60109 -0.0179535 0)
(2.59837 -0.0205676 0)
(2.3848 -0.266587 0)
(1.40389 -0.695596 0)
(1.29399 -0.73112 0)
(1.32639 -0.736692 0)
(1.36638 -0.736862 0)
(1.4326 -0.731648 0)
(2.60191 -0.0196606 0)
(2.60084 -0.0196196 0)
(2.59929 -0.0211973 0)
(2.58796 -0.0548893 0)
(1.54546 -0.65759 0)
(1.27352 -0.718422 0)
(1.28925 -0.721479 0)
(1.31753 -0.730307 0)
(1.35858 -0.735374 0)
(1.42999 -0.73273 0)
(2.59608 -0.0291231 0)
(2.59463 -0.0291598 0)
(2.59226 -0.0316051 0)
(2.02427 -0.499913 0)
(1.27209 -0.723442 0)
(1.25427 -0.715726 0)
(1.27163 -0.718418 0)
(1.30124 -0.722636 0)
(1.34114 -0.727131 0)
(1.4236 -0.726811 0)
(2.59324 -0.0308035 0)
(2.59088 -0.0333945 0)
(2.41923 -0.237103 0)
(1.40103 -0.698313 0)
(1.23868 -0.712185 0)
(1.25285 -0.710935 0)
(1.25526 -0.712013 0)
(1.26971 -0.715358 0)
(1.30208 -0.711139 0)
(1.39779 -0.720372 0)
(2.58474 -0.0361065 0)
(2.52024 -0.13817 0)
(1.55421 -0.66706 0)
(1.19988 -0.708852 0)
(1.2073 -0.694136 0)
(1.21079 -0.686635 0)
(1.21182 -0.681567 0)
(1.22125 -0.680105 0)
(1.24656 -0.681092 0)
(1.35382 -0.702818 0)
(2.45247 -0.180042 0)
(1.66671 -0.591619 0)
(1.1378 -0.671415 0)
(1.14205 -0.638004 0)
(1.13454 -0.620617 0)
(1.13478 -0.622722 0)
(1.14407 -0.630301 0)
(1.16088 -0.637084 0)
(1.19499 -0.642393 0)
(1.30641 -0.67118 0)
(1.61342 -0.459879 0)
(1.06178 -0.572852 0)
(1.0138 -0.602809 0)
(1.03381 -0.614426 0)
(1.04708 -0.618311 0)
(1.06327 -0.62461 0)
(1.08162 -0.630739 0)
(1.10659 -0.639402 0)
(1.14933 -0.646905 0)
(1.26159 -0.676272 0)
(1.16393 -0.243803 0)
(0.924999 -0.358419 0)
(1.00826 -0.469171 0)
(1.0484 -0.556675 0)
(1.05473 -0.594084 0)
(1.06294 -0.606247 0)
(1.07516 -0.61057 0)
(1.09778 -0.618492 0)
(1.142 -0.632664 0)
(1.2543 -0.659068 0)
(1.72931 -0.645472 0)
(1.8255 -0.610177 0)
(2.06195 -0.456225 0)
(2.23065 -0.289007 0)
(2.15088 -0.00146414 0)
(1.97318 0.117548 0)
(1.94221 0.200956 0)
(1.96354 0.248749 0)
(1.93127 0.255135 0)
(1.87199 0.156197 0)
(1.69054 -0.671266 0)
(1.84106 -0.584314 0)
(2.08246 -0.415153 0)
(2.25066 -0.257553 0)
(2.18103 -0.00261409 0)
(1.9829 0.102779 0)
(1.94674 0.187062 0)
(1.9741 0.244231 0)
(1.9345 0.252364 0)
(1.87003 0.154841 0)
(1.64904 -0.6933 0)
(1.84765 -0.573181 0)
(2.10056 -0.379062 0)
(2.27174 -0.221016 0)
(2.20865 -0.000603766 0)
(1.98882 0.0846582 0)
(1.94804 0.173045 0)
(1.98343 0.247342 0)
(1.94053 0.255506 0)
(1.8685 0.15755 0)
(1.64193 -0.696864 0)
(1.87376 -0.551462 0)
(2.12333 -0.344484 0)
(2.29006 -0.183683 0)
(2.23528 -0.00183367 0)
(1.99041 0.0654524 0)
(1.94666 0.159506 0)
(1.98923 0.248582 0)
(1.94708 0.25962 0)
(1.86739 0.162387 0)
(1.63941 -0.699412 0)
(1.89931 -0.529 0)
(2.15511 -0.305824 0)
(2.3165 -0.139287 0)
(2.2602 0.00621042 0)
(1.99701 0.0420392 0)
(1.94429 0.146678 0)
(1.99153 0.254126 0)
(1.95089 0.271701 0)
(1.86519 0.169372 0)
(1.6417 -0.693013 0)
(1.92051 -0.513717 0)
(2.17539 -0.280877 0)
(2.32846 -0.0961793 0)
(2.2718 0.0083877 0)
(2.00313 0.0184844 0)
(1.94085 0.136409 0)
(1.99459 0.262273 0)
(1.95356 0.2894 0)
(1.86049 0.176868 0)
(1.65987 -0.680605 0)
(1.94857 -0.492223 0)
(2.20812 -0.241857 0)
(2.33333 -0.0595248 0)
(2.27621 0.0155463 0)
(2.01162 -0.00664657 0)
(1.94196 0.121955 0)
(1.99783 0.266385 0)
(1.95663 0.301328 0)
(1.85387 0.182197 0)
(1.66909 -0.672399 0)
(1.96996 -0.470184 0)
(2.23185 -0.215226 0)
(2.34104 -0.021057 0)
(2.27611 0.0207814 0)
(2.02855 -0.0362605 0)
(1.9503 0.103609 0)
(2.00204 0.264736 0)
(1.96341 0.308592 0)
(1.84644 0.184329 0)
(1.68768 -0.659724 0)
(2.00221 -0.435329 0)
(2.261 -0.181289 0)
(2.34378 0.00736199 0)
(2.27335 0.0274218 0)
(2.03892 -0.0683878 0)
(1.95444 0.0808888 0)