/*--------------------------------*- C++ -*----------------------------------*\
  =========                 |
  \\      /  F ield         | OpenFOAM: The Open Source CFD Toolbox
   \\    /   O peration     | Website:  https://openfoam.org
    \\  /    A nd           | Version:  8
     \\/     M anipulation  |
\*---------------------------------------------------------------------------*/
FoamFile
{
    version     2.0;
    format      ascii;
    class       volScalarField;
    location    "2.6";
    object      p;
}
// * * * * * * * * * * * * * * * * * * * * * * * * * * * * * * * * * * * * * //

dimensions      [1 -1 -2 0 0 0 0];

internalField   nonuniform List<scalar> 
2600
(
0.959533
0.916693
0.907238
0.987467
1.17039
1.46841
1.71024
1.77818
1.72013
1.60179
0.952076
0.903991
0.901552
0.995836
1.19288
1.4917
1.72088
1.78239
1.72829
1.61311
0.950659
0.886765
0.89832
1.01391
1.21417
1.51257
1.72591
1.77685
1.74137
1.62289
0.958745
0.876768
0.891247
1.02906
1.24927
1.52624
1.71486
1.76724
1.74317
1.60502
0.964473
0.877359
0.882772
1.03026
1.27482
1.56039
1.7443
1.78897
1.72691
1.60074
0.969175
0.883967
0.88836
1.0369
1.27725
1.5678
1.76234
1.78896
1.73269
1.61663
0.972409
0.884345
0.901303
1.06408
1.3037
1.55525
1.74667
1.79553
1.74913
1.62146
0.974808
0.883748
0.899241
1.06408
1.3035
1.54978
1.73624
1.80042
1.74926
1.62324
0.974949
0.881772
0.888276
1.04794
1.29252
1.56699
1.73744
1.80626
1.76597
1.64208
0.977189
0.879578
0.891606
1.04933
1.30741
1.59182
1.7325
1.79523
1.7631
1.63396
0.977765
0.879196
0.887304
1.04598
1.30387
1.58372
1.75613
1.78387
1.72017
1.60916
0.976212
0.880491
0.882919
1.04352
1.3049
1.58162
1.76546
1.78751
1.72791
1.59823
0.976773
0.880402
0.888921
1.05844
1.31325
1.55712
1.73316
1.79194
1.74704
1.62407
0.972356
0.87996
0.887204
1.05485
1.32316
1.5665
1.72349
1.78581
1.73739
1.6145
0.967649
0.878856
0.87783
1.03014
1.29687
1.56553
1.74498
1.79983
1.7683
1.62923
0.962023
0.872017
0.872284
1.02951
1.29583
1.58815
1.73147
1.78622
1.75495
1.635
0.956081
0.871367
0.881426
1.02105
1.27428
1.54345
1.69989
1.76998
1.7133
1.59761
0.950957
0.881189
0.886363
1.00262
1.23796
1.51487
1.71129
1.78107
1.71473
1.58868
0.955851
0.898325
0.88798
0.98548
1.21482
1.50389
1.71123
1.77936
1.73652
1.61094
0.958565
0.910964
0.897186
0.977538
1.19326
1.48543
1.70159
1.77413
1.73538
1.61312
1.14941
0.924765
0.912481
0.967171
1.16328
1.45813
1.67545
1.76116
1.72611
1.60501
1.34928
0.953627
0.939031
0.962363
1.12488
1.41886
1.64179
1.7462
1.70559
1.58957
1.54551
1.01527
0.964227
0.962405
1.08575
1.37111
1.63325
1.73942
1.6969
1.58328
1.70312
1.10756
0.995435
0.96771
1.05562
1.32101
1.61663
1.73162
1.6961
1.58261
1.84224
1.21042
1.03909
0.982504
1.04104
1.27369
1.58961
1.7225
1.69638
1.58398
1.96143
1.31006
1.08809
1.00542
1.03728
1.22937
1.54998
1.70848
1.69075
1.5787
2.06413
1.41054
1.13352
1.02685
1.04473
1.18584
1.50089
1.68931
1.67924
1.57026
2.14904
1.50967
1.18528
1.04461
1.04603
1.1467
1.45572
1.66881
1.66677
1.56272
2.22021
1.6002
1.25449
1.06891
1.04627
1.116
1.41091
1.64876
1.66042
1.5575
2.28344
1.67952
1.32631
1.11359
1.0486
1.09481
1.35774
1.62713
1.65775
1.55226
2.34084
1.75636
1.38829
1.16807
1.05898
1.08168
1.29902
1.59977
1.6523
1.54464
2.39277
1.83064
1.44728
1.21272
1.08091
1.08236
1.24536
1.56444
1.64185
1.53534
2.43918
1.89854
1.51072
1.25378
1.1036
1.08307
1.20072
1.52378
1.62837
1.5262
2.48073
1.95841
1.57292
1.30346
1.12326
1.08507
1.16421
1.47848
1.6175
1.51757
2.51758
2.01337
1.62936
1.35767
1.15056
1.08671
1.13452
1.42973
1.60608
1.50812
2.55058
2.06545
1.68236
1.40675
1.19096
1.09014
1.11305
1.37742
1.59167
1.49821
2.58055
2.11455
1.7352
1.45149
1.23197
1.10041
1.09954
1.32395
1.57126
1.48748
2.60817
2.16043
1.78615
1.49668
1.26795
1.11651
1.0927
1.27127
1.54442
1.47664
2.63354
2.20298
1.83382
1.54181
1.3053
1.13147
1.09016
1.22274
1.51316
1.46666
2.65672
2.2427
1.87893
1.58486
1.34483
1.14923
1.09052
1.17981
1.47973
1.45696
4.79413
4.5655
4.40532
4.24808
4.09383
3.9443
3.78571
3.61109
3.36223
3.09259
4.47322
4.25804
4.15749
4.04344
3.92867
3.80426
3.66174
3.48658
3.23433
2.88725
4.37282
4.21129
4.12403
4.01474
3.90908
3.79182
3.65207
3.47368
3.21998
2.87982
4.23476
4.11461
4.04386
3.94564
3.85144
3.73771
3.60033
3.42192
3.17519
2.83573
4.10911
4.02061
3.9668
3.87943
3.79308
3.68299
3.55135
3.37724
3.14134
2.80554
3.99659
3.92986
3.88619
3.81006
3.73413
3.63019
3.50548
3.33543
3.11092
2.78806
3.90291
3.85215
3.81522
3.74829
3.68003
3.58091
3.46308
3.29828
3.08593
2.78483
3.82323
3.78126
3.74856
3.69025
3.62853
3.53455
3.4238
3.26548
3.06612
2.78901
3.75157
3.72157
3.69451
3.64239
3.58412
3.49398
3.38926
3.23792
3.05145
2.79745
3.69668
3.6738
3.64866
3.59954
3.54353
3.45753
3.35853
3.21481
3.04109
2.8084
3.66102
3.63726
3.61017
3.56194
3.50721
3.42503
3.33119
3.19537
3.0337
2.82051
3.63656
3.60565
3.57582
3.52825
3.47464
3.39623
3.30711
3.17955
3.02852
2.83286
3.61514
3.57744
3.54562
3.49854
3.44584
3.371
3.28628
3.16664
3.02541
2.84573
3.59241
3.55047
3.51767
3.47134
3.41986
3.34866
3.26817
3.1561
3.02417
2.8586
3.56878
3.52473
3.49157
3.44619
3.39627
3.32871
3.25229
3.14754
3.02413
2.87085
3.54366
3.4993
3.4666
3.42272
3.37487
3.31099
3.23857
3.14068
3.02517
2.88268
3.51647
3.47386
3.44249
3.40066
3.35522
3.295
3.22645
3.13494
3.02671
2.89389
3.48695
3.4489
3.41996
3.38076
3.33791
3.28124
3.21633
3.13066
3.0289
2.90462
3.45429
3.42317
3.3977
3.36175
3.3218
3.26864
3.20732
3.12712
3.03132
2.91459
3.42632
3.40068
3.37769
3.34471
3.30743
3.25755
3.19956
3.12433
3.03394
2.92406
1.00403
1.01274
1.02276
1.03423
1.0477
1.06441
1.07965
1.202
3.02518
3.88026
1.00403
1.01274
1.02276
1.03424
1.0477
1.06441
1.07966
1.20171
3.0217
3.86628
1.00403
1.01274
1.02276
1.03424
1.04769
1.06442
1.07967
1.20119
3.01782
3.84495
1.00403
1.01274
1.02276
1.03424
1.04768
1.06442
1.07969
1.20019
3.01147
3.82198
1.00403
1.01274
1.02275
1.03424
1.04767
1.06443
1.0797
1.19877
3.00308
3.79858
1.00403
1.01274
1.02275
1.03424
1.04767
1.06444
1.07972
1.1969
2.99223
3.77501
1.00403
1.01274
1.02275
1.03425
1.04766
1.06445
1.07973
1.19459
2.9786
3.75143
1.00403
1.01275
1.02275
1.03425
1.04765
1.06445
1.07974
1.19187
2.96264
3.72771
1.00403
1.01275
1.02275
1.03426
1.04764
1.06445
1.07976
1.18812
2.94472
3.7054
1.00403
1.01275
1.02274
1.03426
1.04763
1.06445
1.0798
1.18309
2.92525
3.68293
1.00403
1.01275
1.02274
1.03426
1.04762
1.06444
1.07986
1.17454
2.90482
3.66117
1.00403
1.01275
1.02274
1.03427
1.04762
1.06443
1.07993
1.16518
2.88457
3.63999
1.00403
1.01275
1.02274
1.03427
1.04761
1.06442
1.08003
1.15477
2.8645
3.61978
1.00403
1.01275
1.02274
1.03427
1.04761
1.0644
1.08015
1.14443
2.84442
3.60032
1.00403
1.01275
1.02273
1.03427
1.0476
1.06438
1.0803
1.13571
2.82357
3.58203
1.00403
1.01275
1.02273
1.03428
1.0476
1.06436
1.08048
1.12809
2.80119
3.56512
1.00403
1.01275
1.02273
1.03428
1.0476
1.06433
1.0807
1.12159
2.77787
3.55032
1.00403
1.01275
1.02273
1.03428
1.0476
1.06429
1.08093
1.11655
2.75352
3.53737
1.00403
1.01275
1.02273
1.03428
1.0476
1.06425
1.08117
1.11262
2.72765
3.52732
1.00403
1.01275
1.02273
1.03428
1.0476
1.06421
1.08142
1.10954
2.70021
3.51918
1.00403
1.01275
1.02273
1.03428
1.0476
1.06421
1.08142
1.10954
2.70023
3.51918
1.00403
1.01275
1.02273
1.03428
1.0476
1.06425
1.08117
1.11262
2.72767
3.52732
1.00403
1.01275
1.02273
1.03428
1.0476
1.06429
1.08093
1.11656
2.75354
3.53737
1.00403
1.01275
1.02273
1.03428
1.0476
1.06433
1.0807
1.12159
2.77788
3.55031
1.00403
1.01275
1.02273
1.03428
1.0476
1.06436
1.08048
1.12809
2.8012
3.56509
1.00403
1.01275
1.02273
1.03427
1.0476
1.06438
1.0803
1.13571
2.82357
3.58199
1.00403
1.01275
1.02274
1.03427
1.04761
1.0644
1.08015
1.14444
2.8444
3.60028
1.00403
1.01275
1.02274
1.03427
1.04761
1.06442
1.08003
1.15477
2.86448
3.61975
1.00403
1.01275
1.02274
1.03427
1.04762
1.06443
1.07993
1.16518
2.88454
3.63996
1.00403
1.01275
1.02274
1.03426
1.04762
1.06444
1.07986
1.17454
2.9048
3.66114
1.00403
1.01275
1.02274
1.03426
1.04763
1.06445
1.0798
1.18309
2.92523
3.6829
1.00403
1.01275
1.02275
1.03426
1.04764
1.06445
1.07976
1.18812
2.94469
3.70537
1.00403
1.01275
1.02275
1.03425
1.04765
1.06445
1.07974
1.19187
2.96261
3.72769
1.00403
1.01274
1.02275
1.03425
1.04766
1.06445
1.07973
1.19459
2.97857
3.75142
1.00403
1.01274
1.02275
1.03424
1.04767
1.06444
1.07972
1.19689
2.9922
3.77501
1.00403
1.01274
1.02275
1.03424
1.04767
1.06443
1.0797
1.19876
3.00305
3.79856
1.00403
1.01274
1.02276
1.03424
1.04768
1.06442
1.07969
1.20019
3.01143
3.82199
1.00403
1.01274
1.02276
1.03424
1.04769
1.06442
1.07967
1.20116
3.01772
3.84493
1.00403
1.01274
1.02276
1.03424
1.0477
1.06441
1.07966
1.20166
3.02161
3.86629
1.00403
1.01274
1.02276
1.03423
1.0477
1.06441
1.07965
1.20274
3.02505
3.88027
3.42624
3.4006
3.37762
3.34465
3.30739
3.25753
3.19958
3.12439
3.03408
2.92428
3.45419
3.4231
3.39763
3.3617
3.32177
3.26864
3.20736
3.12721
3.03148
2.91484
3.48687
3.44884
3.41991
3.38072
3.3379
3.28126
3.2164
3.13079
3.0291
2.9049
3.51641
3.47381
3.44245
3.40063
3.35522
3.29504
3.22654
3.13509
3.02695
2.89421
3.54362
3.49926
3.46656
3.4227
3.37488
3.31105
3.23868
3.14086
3.02545
2.88305
3.56875
3.5247
3.49155
3.44619
3.3963
3.32879
3.25243
3.14774
3.02446
2.87124
3.59239
3.55045
3.51766
3.47136
3.4199
3.34876
3.26833
3.15633
3.02455
2.85901
3.61513
3.57744
3.54564
3.49858
3.44591
3.37112
3.28647
3.16691
3.02582
2.84614
3.63655
3.60565
3.57585
3.52831
3.47473
3.39637
3.30733
3.17985
3.02893
2.83327
3.66102
3.63727
3.6102
3.562
3.5073
3.42518
3.33143
3.1957
3.03411
2.82096
3.69669
3.67383
3.64871
3.59961
3.54364
3.4577
3.35879
3.21515
3.04151
2.80888
3.7516
3.72161
3.69456
3.64247
3.58424
3.49416
3.38952
3.23827
3.0519
2.79793
3.82328
3.78132
3.74863
3.69035
3.62865
3.53473
3.42406
3.26583
3.06661
2.78941
3.90296
3.85221
3.8153
3.74838
3.68016
3.58109
3.46334
3.29863
3.08642
2.78513
3.99666
3.92993
3.88627
3.81016
3.73426
3.63037
3.50574
3.33578
3.11139
2.78824
4.10917
4.02068
3.96687
3.87953
3.7932
3.68315
3.55159
3.37756
3.14177
2.80574
4.23483
4.11469
4.04394
3.94574
3.85156
3.73786
3.60054
3.42222
3.17555
2.83601
4.37289
4.21137
4.12411
4.01483
3.90919
3.79197
3.65226
3.47393
3.22027
2.88005
4.47337
4.25815
4.15758
4.04353
3.92877
3.80439
3.66191
3.4868
3.23462
2.88735
4.79433
4.56566
4.40544
4.24818
4.09392
3.94441
3.78584
3.61127
3.36247
3.09279
2.65706
2.24306
1.87921
1.5847
1.3438
1.14889
1.09122
1.18332
1.48204
1.45747
2.63392
2.20323
1.83406
1.54145
1.30462
1.13101
1.09085
1.2264
1.51486
1.46714
2.60858
2.16067
1.78614
1.49641
1.26763
1.11603
1.09339
1.27404
1.54411
1.47673
2.58098
2.11477
1.73499
1.45175
1.23112
1.10007
1.10047
1.32655
1.56963
1.48755
2.55099
2.06554
1.68213
1.40738
1.18949
1.0901
1.11427
1.38152
1.59078
1.49866
2.51786
2.0133
1.62922
1.35794
1.14988
1.08677
1.13564
1.43359
1.60654
1.50868
2.48087
1.95806
1.57264
1.30436
1.12329
1.08438
1.16475
1.48013
1.61817
1.51758
2.43921
1.89795
1.51034
1.25649
1.10243
1.08126
1.20103
1.52336
1.62769
1.52557
2.3929
1.82967
1.44759
1.21707
1.07821
1.07977
1.24612
1.56634
1.63832
1.53454
2.341
1.75515
1.38954
1.17224
1.05592
1.07841
1.29804
1.60462
1.6494
1.54455
2.28361
1.67828
1.32808
1.11761
1.0454
1.09086
1.35334
1.63293
1.65786
1.55326
2.22016
1.59864
1.25625
1.07397
1.04297
1.11164
1.40592
1.65228
1.66352
1.55853
2.1485
1.50726
1.18888
1.05086
1.04164
1.13979
1.45512
1.66886
1.66833
1.56205
2.06318
1.40786
1.13899
1.03138
1.03928
1.17406
1.5044
1.69076
1.67482
1.56687
1.96043
1.30828
1.09557
1.00759
1.03139
1.21398
1.55175
1.7147
1.68376
1.57502
1.84208
1.20849
1.0479
0.983859
1.03204
1.26097
1.5911
1.72777
1.69218
1.58414
1.70393
1.10536
1.0057
0.971175
1.0439
1.31205
1.62131
1.73387
1.69835
1.58991
1.5468
1.01349
0.974553
0.967268
1.07
1.36152
1.6425
1.73639
1.70409
1.58819
1.3514
0.95544
0.946599
0.969513
1.1057
1.40211
1.66274
1.74203
1.70824
1.58615
1.14977
0.929636
0.920779
0.977112
1.14165
1.43701
1.68542
1.7624
1.7134
1.58983
2.98945
2.81122
2.57587
2.33727
2.07657
1.80791
1.5466
1.31887
1.06603
0.812639
2.98814
2.80734
2.57312
2.33378
2.07279
1.80452
1.54396
1.31519
1.06295
0.814512
2.98569
2.80339
2.57189
2.32769
2.06629
1.79857
1.539
1.30848
1.05757
0.817575
2.982
2.79685
2.56671
2.31871
2.05671
1.78968
1.53158
1.2985
1.05051
0.822669
2.97703
2.78864
2.5587
2.30723
2.04406
1.77785
1.52159
1.28525
1.04213
0.830116
2.9708
2.77828
2.54746
2.29251
2.02801
1.76281
1.50865
1.2684
1.03356
0.8404
2.96324
2.76598
2.53287
2.27475
2.00872
1.74465
1.49268
1.24797
1.02522
0.853928
2.9544
2.75159
2.51497
2.2536
1.98603
1.7233
1.47338
1.2244
1.01872
0.871939
2.94409
2.73504
2.49363
2.22895
1.95986
1.69883
1.45069
1.19784
1.01315
0.896083
2.93229
2.71585
2.4687
2.20048
1.93023
1.671
1.42414
1.16983
1.00738
0.928999
2.91871
2.69395
2.43981
2.16803
1.89684
1.64012
1.39367
1.141
0.999497
0.974056
2.90337
2.66882
2.40735
2.13131
1.85977
1.60538
1.35941
1.11381
0.993452
1.02664
2.88603
2.64001
2.36977
2.08975
1.81865
1.56719
1.32095
1.09074
0.994362
1.08403
2.86655
2.6072
2.32727
2.04366
1.77321
1.52445
1.27996
1.07518
1.0036
1.14723
2.84479
2.56998
2.27962
1.99169
1.72387
1.47718
1.23632
1.06711
1.02719
1.20976
2.82054
2.52801
2.22594
1.93485
1.66924
1.42548
1.19539
1.06196
1.06916
1.27196
2.79345
2.48048
2.16623
1.87198
1.61062
1.36801
1.15813
1.06059
1.13191
1.32852
2.76311
2.42683
2.09958
1.80337
1.54641
1.30853
1.13156
1.06408
1.22041
1.37392
2.72884
2.36647
2.02558
1.72852
1.47741
1.24565
1.10992
1.08573
1.32008
1.40954
2.68946
2.29857
1.94441
1.64765
1.40316
1.18787
1.09575
1.13198
1.4182
1.4391
2.68917
2.29815
1.944
1.64783
1.40409
1.18852
1.0953
1.12978
1.41643
1.43872
2.72858
2.36608
2.02523
1.72838
1.47826
1.24646
1.10978
1.08427
1.31803
1.40907
2.76292
2.42643
2.09917
1.80319
1.54676
1.30926
1.13173
1.06385
1.21832
1.37317
2.79333
2.4802
2.16579
1.87175
1.61069
1.36853
1.15846
1.06055
1.13095
1.32761
2.82047
2.52776
2.22562
1.93449
1.66926
1.42573
1.19553
1.06217
1.06907
1.27149
2.84477
2.56982
2.27932
1.99143
1.72368
1.47733
1.23648
1.06737
1.02751
1.2097
2.86658
2.60711
2.32709
2.04339
1.77304
1.52443
1.27986
1.0754
1.00405
1.14758
2.88608
2.63998
2.36965
2.08957
1.81847
1.56708
1.32081
1.09088
0.994623
1.08473
2.90344
2.66882
2.40729
2.13118
1.85961
1.60525
1.35921
1.11379
0.993598
1.02735
2.91878
2.69399
2.43983
2.16796
1.89672
1.63999
1.39347
1.14089
0.999537
0.974709
2.93236
2.71591
2.46874
2.20047
1.93018
1.67091
1.42398
1.16964
1.00741
0.929467
2.94415
2.7351
2.49369
2.22898
1.95984
1.69878
1.45056
1.19765
1.01315
0.896367
2.95444
2.75165
2.51503
2.25365
1.98605
1.7233
1.47331
1.22424
1.01865
0.872092
2.96327
2.76603
2.53292
2.27481
2.00877
1.74467
1.49265
1.24787
1.02514
0.853983
2.97082
2.77831
2.5475
2.29256
2.02807
1.76286
1.50867
1.26834
1.0335
0.840418
2.97703
2.78866
2.55873
2.30728
2.04412
1.77791
1.52163
1.28526
1.04209
0.830106
2.98198
2.79685
2.56672
2.31875
2.05678
1.78976
1.53164
1.29854
1.05055
0.82266
2.98566
2.80338
2.57189
2.32772
2.06634
1.79866
1.53908
1.30856
1.05766
0.817574
2.98811
2.80732
2.57313
2.3338
2.07284
1.80461
1.54405
1.31529
1.06309
0.81453
2.98941
2.81119
2.57586
2.33728
2.07661
1.80799
1.54669
1.31899
1.06621
0.812671
3.40056
3.37786
3.35668
3.32646
3.29169
3.24537
3.19118
3.12173
3.03812
2.93717
3.37743
3.35553
3.33591
3.30811
3.27584
3.23334
3.18343
3.12051
3.04463
2.95432
3.36084
3.33886
3.32037
3.2942
3.26384
3.22455
3.17809
3.12072
3.05139
2.96958
3.34913
3.32677
3.30897
3.28394
3.25504
3.21839
3.17481
3.12209
3.05834
2.98352
3.34125
3.31832
3.30088
3.27667
3.2489
3.2144
3.1733
3.12436
3.06537
2.9964
3.3363
3.31263
3.29531
3.27173
3.24483
3.21219
3.17321
3.12737
3.07248
3.00847
3.33335
3.3089
3.29157
3.2685
3.24234
3.21116
3.17406
3.13098
3.07959
3.01979
3.33159
3.30651
3.28921
3.26662
3.24111
3.21107
3.17574
3.13508
3.0866
3.03031
3.33029
3.30509
3.28791
3.26569
3.24079
3.21189
3.17811
3.13932
3.09333
3.04004
3.32925
3.30445
3.28761
3.26583
3.24154
3.21359
3.18097
3.14363
3.0997
3.04891
3.32858
3.30445
3.28795
3.26674
3.243
3.21576
3.18411
3.14798
3.10582
3.0571
3.3295
3.30592
3.28943
3.26845
3.24501
3.21821
3.1873
3.15208
3.11134
3.06433
3.33121
3.30784
3.29125
3.27038
3.24717
3.22073
3.19046
3.15602
3.11649
3.07092
3.33329
3.31003
3.29332
3.27252
3.24949
3.2233
3.19352
3.15968
3.12109
3.07666
3.33544
3.31223
3.2954
3.27461
3.25171
3.2257
3.19633
3.16296
3.12514
3.08167
3.33747
3.31427
3.29731
3.2765
3.25372
3.22786
3.19882
3.16583
3.12861
3.08594
3.33922
3.316
3.29893
3.27809
3.25538
3.22963
3.20086
3.16817
3.13144
3.08936
3.34062
3.31737
3.30021
3.27934
3.25669
3.23101
3.20245
3.17001
3.13367
3.0921
3.34137
3.31815
3.30093
3.28005
3.25745
3.23184
3.20344
3.17117
3.13515
3.09387
3.34168
3.31864
3.30151
3.28066
3.2581
3.23251
3.20419
3.17198
3.13615
3.09509
1.00403
1.01275
1.02273
1.03428
1.0476
1.06415
1.08173
1.1068
2.66421
3.51094
1.00403
1.01275
1.02272
1.03429
1.04761
1.06407
1.08209
1.10453
2.61978
3.5032
1.00403
1.01276
1.02272
1.03429
1.04761
1.064
1.08244
1.10306
2.57475
3.49773
1.00403
1.01276
1.02272
1.03429
1.04761
1.06396
1.08276
1.10212
2.52996
3.49408
1.00403
1.01276
1.02272
1.03429
1.04761
1.06394
1.08305
1.10155
2.4861
3.49188
1.00402
1.01276
1.02272
1.0343
1.0476
1.06395
1.0833
1.10123
2.4437
3.49082
1.00402
1.01276
1.02272
1.0343
1.0476
1.06397
1.08352
1.10108
2.40341
3.49039
1.00402
1.01276
1.02272
1.0343
1.0476
1.06396
1.08373
1.10103
2.36604
3.48995
1.00402
1.01276
1.02272
1.0343
1.04761
1.06392
1.08391
1.10108
2.33276
3.48839
1.00402
1.01276
1.02272
1.0343
1.04763
1.06385
1.08409
1.10118
2.30475
3.48468
1.00402
1.01276
1.02272
1.0343
1.04765
1.06377
1.08424
1.1013
2.28115
3.47972
1.00402
1.01276
1.02272
1.03429
1.04767
1.06368
1.08438
1.10144
2.25912
3.47579
1.00402
1.01276
1.02272
1.03429
1.0477
1.06359
1.0845
1.10159
2.23928
3.47242
1.00402
1.01276
1.02272
1.03428
1.04773
1.0635
1.08463
1.10172
2.22165
3.46961
1.00402
1.01276
1.02272
1.03428
1.04775
1.06343
1.08475
1.10183
2.20636
3.46727
1.00402
1.01276
1.02272
1.03428
1.04778
1.06336
1.08489
1.10193
2.19347
3.46535
1.00402
1.01276
1.02272
1.03427
1.0478
1.0633
1.08504
1.10199
2.18308
3.46381
1.00402
1.01276
1.02272
1.03427
1.04781
1.06327
1.08516
1.10203
2.17516
3.46266
1.00402
1.01276
1.02272
1.03427
1.04782
1.06324
1.08524
1.10205
2.16971
3.46167
1.00402
1.01277
1.02272
1.03427
1.04783
1.0632
1.08539
1.10206
2.16693
3.46116
1.00402
1.01277
1.02272
1.03427
1.04783
1.0632
1.08539
1.10206
2.16693
3.46116
1.00402
1.01276
1.02272
1.03427
1.04782
1.06324
1.08524
1.10205
2.16971
3.46166
1.00402
1.01276
1.02272
1.03427
1.04781
1.06327
1.08516
1.10203
2.17516
3.46265
1.00402
1.01276
1.02272
1.03427
1.0478
1.0633
1.08504
1.10199
2.18307
3.4638
1.00402
1.01276
1.02272
1.03428
1.04778
1.06336
1.08489
1.10193
2.19346
3.46535
1.00402
1.01276
1.02272
1.03428
1.04775
1.06343
1.08475
1.10183
2.20636
3.46727
1.00402
1.01276
1.02272
1.03428
1.04773
1.0635
1.08463
1.10172
2.22165
3.46961
1.00402
1.01276
1.02272
1.03429
1.0477
1.06359
1.0845
1.10159
2.23928
3.47243
1.00402
1.01276
1.02272
1.03429
1.04767
1.06368
1.08438
1.10144
2.25912
3.47579
1.00402
1.01276
1.02272
1.0343
1.04765
1.06377
1.08424
1.1013
2.28115
3.47973
1.00402
1.01276
1.02272
1.0343
1.04763
1.06385
1.08409
1.10118
2.30475
3.48469
1.00402
1.01276
1.02272
1.0343
1.04761
1.06392
1.08391
1.10108
2.33277
3.4884
1.00402
1.01276
1.02272
1.0343
1.0476
1.06396
1.08373
1.10103
2.36605
3.48995
1.00402
1.01276
1.02272
1.0343
1.0476
1.06397
1.08352
1.10108
2.40341
3.4904
1.00402
1.01276
1.02272
1.0343
1.0476
1.06395
1.0833
1.10123
2.4437
3.49082
1.00403
1.01276
1.02272
1.03429
1.04761
1.06394
1.08305
1.10155
2.4861
3.49188
1.00403
1.01276
1.02272
1.03429
1.04761
1.06396
1.08276
1.10212
2.52997
3.49408
1.00403
1.01276
1.02272
1.03429
1.04761
1.064
1.08244
1.10306
2.57475
3.49773
1.00403
1.01275
1.02272
1.03429
1.04761
1.06407
1.08209
1.10453
2.61979
3.5032
1.00403
1.01275
1.02273
1.03428
1.0476
1.06415
1.08173
1.1068
2.66422
3.51093
3.34167
3.31863
3.3015
3.28065
3.25809
3.2325
3.20419
3.17199
3.13616
3.09511
3.34136
3.31814
3.30093
3.28005
3.25745
3.23184
3.20344
3.17118
3.13516
3.09389
3.34061
3.31736
3.3002
3.27933
3.25669
3.23101
3.20246
3.17001
3.13368
3.09212
3.33922
3.316
3.29893
3.27809
3.25538
3.22964
3.20086
3.16818
3.13145
3.08937
3.33747
3.31427
3.29732
3.27651
3.25372
3.22787
3.19883
3.16584
3.12862
3.08595
3.33544
3.31223
3.2954
3.27461
3.25172
3.22571
3.19634
3.16298
3.12515
3.08168
3.3333
3.31004
3.29333
3.27253
3.2495
3.22332
3.19354
3.15969
3.1211
3.07666
3.33122
3.30785
3.29126
3.27039
3.24719
3.22075
3.19048
3.15604
3.11649
3.07091
3.32952
3.30593
3.28945
3.26847
3.24503
3.21823
3.18731
3.15209
3.11133
3.0643
3.32859
3.30447
3.28797
3.26676
3.24302
3.21577
3.18412
3.14797
3.10579
3.05706
3.32927
3.30447
3.28763
3.26585
3.24155
3.2136
3.18097
3.1436
3.09966
3.04885
3.33031
3.30511
3.28793
3.2657
3.24079
3.21188
3.17809
3.13928
3.09327
3.03997
3.33161
3.30652
3.28922
3.26662
3.2411
3.21105
3.1757
3.13502
3.08653
3.03023
3.33336
3.3089
3.29157
3.26849
3.24232
3.21112
3.174
3.13091
3.07951
3.01971
3.3363
3.31263
3.2953
3.27171
3.2448
3.21213
3.17313
3.12729
3.0724
3.0084
3.34125
3.31831
3.30086
3.27663
3.24885
3.21433
3.17322
3.12428
3.0653
2.99636
3.34911
3.32674
3.30893
3.28388
3.25497
3.21832
3.17473
3.12203
3.0583
2.98352
3.36081
3.33881
3.32031
3.29413
3.26376
3.22447
3.17802
3.12067
3.05137
2.96963
3.37738
3.35546
3.33584
3.30803
3.27576
3.23328
3.18338
3.1205
3.04467
2.95443
3.40049
3.37779
3.3566
3.32639
3.29163
3.24533
3.19117
3.12176
3.03821
2.93734
)
;

boundaryField
{
    inlet
    {
        type            fixedValue;
        value           uniform 1;
    }
    outlet
    {
        type            zeroGradient;
    }
    triangle
    {
        type            zeroGradient;
    }
    top
    {
        type            symmetryPlane;
    }
    bottom
    {
        type            symmetryPlane;
    }
    defaultFaces
    {
        type            empty;
    }
}


// ************************************************************************* //
