/*--------------------------------*- C++ -*----------------------------------*\
  =========                 |
  \\      /  F ield         | OpenFOAM: The Open Source CFD Toolbox
   \\    /   O peration     | Website:  https://openfoam.org
    \\  /    A nd           | Version:  8
     \\/     M anipulation  |
\*---------------------------------------------------------------------------*/
FoamFile
{
    version     2.0;
    format      ascii;
    class       volScalarField;
    location    "3.5";
    object      p;
}
// * * * * * * * * * * * * * * * * * * * * * * * * * * * * * * * * * * * * * //

dimensions      [1 -1 -2 0 0 0 0];

internalField   nonuniform List<scalar> 
2600
(
1.15731
1.06362
1.03527
1.39553
1.8765
2.10829
2.19161
2.32546
2.28833
2.10029
1.16299
1.02974
1.02115
1.43177
1.88618
2.1162
2.21196
2.33281
2.27401
2.08975
1.16321
1.0148
1.02802
1.45752
1.90059
2.17867
2.23276
2.32038
2.26989
2.07224
1.17245
1.0097
1.04454
1.48949
1.9426
2.20077
2.22145
2.32259
2.2884
2.09338
1.18041
1.01759
1.05381
1.51265
1.9571
2.18184
2.21685
2.35622
2.30208
2.11237
1.18584
1.02278
1.04944
1.49061
1.94778
2.19331
2.2363
2.37047
2.27485
2.10214
1.18581
1.02783
1.04927
1.48106
1.91922
2.18838
2.25256
2.35419
2.26326
2.10327
1.19778
1.03952
1.0633
1.45634
1.90874
2.17806
2.27723
2.36277
2.26301
2.10325
1.20991
1.05677
1.09096
1.41934
1.84234
2.16287
2.31331
2.37375
2.2702
2.11204
1.22602
1.0763
1.13218
1.41309
1.82426
2.14918
2.29391
2.3553
2.25833
2.09693
1.23942
1.10094
1.18816
1.4146
1.75679
2.11547
2.3461
2.36744
2.26793
2.10093
1.24748
1.12973
1.2119
1.40782
1.72332
2.09178
2.33634
2.36464
2.26228
2.09322
1.25008
1.15378
1.22862
1.42161
1.70291
2.0846
2.36938
2.38762
2.27988
2.0888
1.24433
1.16836
1.25092
1.44081
1.69271
2.10477
2.36644
2.37757
2.27401
2.08257
1.22994
1.18089
1.26372
1.40889
1.69351
2.09571
2.36252
2.3857
2.27725
2.08597
1.2165
1.18301
1.25909
1.3715
1.66976
2.08775
2.33113
2.37527
2.2665
2.09093
1.2215
1.19787
1.2666
1.36422
1.62419
2.09868
2.30684
2.3572
2.26253
2.07292
1.23202
1.22035
1.29209
1.32863
1.57329
2.10785
2.32354
2.36633
2.25832
2.05942
1.23927
1.23389
1.32327
1.28514
1.52145
2.08964
2.3054
2.37752
2.2667
2.07833
1.2264
1.23573
1.3247
1.26048
1.47449
2.05959
2.27045
2.34555
2.24969
2.08496
1.43727
1.23268
1.32472
1.25567
1.43065
2.02216
2.25821
2.33019
2.22481
2.07361
1.69023
1.26833
1.34183
1.26
1.39162
1.97032
2.25583
2.32856
2.21961
2.05703
1.94286
1.31353
1.35189
1.26564
1.37089
1.91531
2.24829
2.32745
2.2194
2.04768
2.13828
1.38598
1.37509
1.28261
1.36473
1.8541
2.23031
2.32156
2.21844
2.04351
2.29676
1.49847
1.40716
1.29319
1.3608
1.78734
2.19615
2.3078
2.21507
2.04457
2.4217
1.629
1.44826
1.29982
1.35026
1.71932
2.15789
2.29229
2.20946
2.0428
2.5365
1.75189
1.50381
1.32145
1.34134
1.65245
2.11832
2.27677
2.20512
2.03549
2.64342
1.87484
1.55475
1.3542
1.33036
1.58835
2.07447
2.25841
2.20242
2.02912
2.74002
2.00181
1.61071
1.38496
1.32589
1.52681
2.02316
2.23711
2.19241
2.0269
2.82515
2.11991
1.69094
1.41863
1.3343
1.47525
1.9643
2.21386
2.18206
2.02504
2.90193
2.22366
1.78277
1.47407
1.34381
1.43915
1.89932
2.19419
2.16948
2.01857
2.97281
2.31756
1.86724
1.54445
1.3648
1.41923
1.83012
2.17343
2.15525
2.009
3.03719
2.40605
1.94729
1.61494
1.39755
1.4187
1.76044
2.14649
2.14539
2.00083
3.09623
2.48899
2.02458
1.67934
1.43567
1.42709
1.69417
2.11313
2.13657
1.99275
3.15025
2.56545
2.10047
1.7419
1.4756
1.43895
1.63556
2.07239
2.13095
1.98481
3.20047
2.63463
2.17288
1.80539
1.51641
1.44934
1.58597
2.02412
2.12248
1.97755
3.24697
2.6987
2.23918
1.86987
1.56177
1.45766
1.54404
1.97281
2.11346
1.96627
3.29029
2.75861
2.30211
1.92981
1.61383
1.46584
1.50992
1.91448
2.10239
1.95521
3.33057
2.81446
2.36321
1.9866
1.66603
1.47911
1.48427
1.84858
2.08856
1.94538
3.36789
2.86727
2.42123
2.04375
1.71383
1.49944
1.46138
1.77732
2.06969
1.93729
5.8816
5.57851
5.36111
5.15221
4.95832
4.78018
4.59238
4.38368
4.07565
3.76655
5.43171
5.15619
5.0317
4.89116
4.75882
4.6146
4.44437
4.22978
3.9155
3.50875
5.26024
5.0735
4.98185
4.85791
4.73938
4.60173
4.43398
4.21825
3.9073
3.50769
5.07886
4.95352
4.89034
4.78335
4.67823
4.54123
4.37404
4.15675
3.85528
3.45516
4.92113
4.84822
4.80056
4.70051
4.6042
4.47129
4.31194
4.09775
3.81044
3.41304
4.82471
4.75127
4.70258
4.61309
4.52733
4.40043
4.25037
4.042
3.77131
3.38871
4.73118
4.66886
4.62618
4.54666
4.46594
4.34223
4.19923
3.99709
3.74196
3.38676
4.64322
4.58858
4.54975
4.47707
4.40108
4.28384
4.1506
3.95871
3.72109
3.39544
4.56656
4.5167
4.48103
4.41479
4.34395
4.23354
4.10921
3.92784
3.70701
3.40954
4.49892
4.45222
4.41889
4.35754
4.29071
4.18729
4.07169
3.90247
3.69775
3.42725
4.43927
4.39501
4.36396
4.3076
4.24527
4.14921
4.04182
3.88356
3.69331
3.44897
4.38742
4.34505
4.31616
4.26436
4.20651
4.11741
4.01734
3.87006
3.6951
3.4738
4.34261
4.30214
4.27567
4.22838
4.17491
4.0926
3.9987
3.86279
3.70217
3.50001
4.30526
4.26695
4.24313
4.19977
4.15046
4.07331
3.98585
3.8619
3.71361
3.52731
4.27677
4.23983
4.21751
4.17695
4.131
4.05989
3.98018
3.8667
3.72817
3.55516
4.25524
4.22003
4.19929
4.16141
4.11909
4.05519
3.98035
3.87504
3.74475
3.58305
4.24051
4.20826
4.18923
4.15474
4.11501
4.05567
3.98414
3.88559
3.76268
3.61074
4.23498
4.20326
4.18424
4.15331
4.11567
4.06023
3.9914
3.89837
3.78158
3.63779
4.23644
4.20433
4.18617
4.15693
4.12065
4.06821
4.00144
3.91275
3.801
3.66412
4.24437
4.21232
4.19512
4.16607
4.12965
4.0792
4.01431
3.92903
3.82137
3.6898
1.00279
1.00874
1.01539
1.0229
1.03133
1.04089
1.05262
1.06201
2.17816
4.35219
1.00279
1.00874
1.01539
1.02289
1.03133
1.04089
1.05262
1.06207
2.17234
4.34614
1.00279
1.00874
1.01539
1.02289
1.03134
1.04088
1.05262
1.06211
2.15025
4.34139
1.00279
1.00874
1.01539
1.02289
1.03134
1.04087
1.05262
1.06215
2.11853
4.33018
1.00279
1.00874
1.01539
1.02289
1.03134
1.04087
1.05262
1.06214
2.08105
4.31796
1.00279
1.00874
1.01539
1.02289
1.03134
1.04086
1.05263
1.06205
2.03797
4.29832
1.00279
1.00874
1.01539
1.02289
1.03135
1.04085
1.05265
1.06198
1.99281
4.27787
1.00279
1.00874
1.01539
1.02289
1.03135
1.04084
1.05266
1.06192
1.94596
4.25328
1.00279
1.00874
1.01539
1.02288
1.03135
1.04083
1.05268
1.0619
1.89871
4.22658
1.00279
1.00874
1.01539
1.02288
1.03135
1.04083
1.0527
1.06188
1.8513
4.19666
1.00279
1.00874
1.01539
1.02288
1.03136
1.04082
1.05271
1.06188
1.80447
4.16403
1.00279
1.00874
1.01539
1.02288
1.03136
1.04082
1.05273
1.06188
1.75849
4.12927
1.00279
1.00874
1.01539
1.02288
1.03136
1.04081
1.05274
1.06189
1.7137
4.09192
1.00279
1.00874
1.01539
1.02288
1.03136
1.04081
1.05274
1.0619
1.66935
4.05363
1.00279
1.00874
1.01539
1.02288
1.03136
1.0408
1.05275
1.0619
1.62304
4.01758
1.00279
1.00874
1.0154
1.02288
1.03137
1.0408
1.05275
1.06191
1.5751
3.98335
1.00279
1.00874
1.0154
1.02287
1.03137
1.0408
1.05275
1.06192
1.52579
3.95117
1.00279
1.00874
1.0154
1.02287
1.03137
1.0408
1.05275
1.06193
1.47527
3.92151
1.00279
1.00874
1.0154
1.02287
1.03137
1.0408
1.05275
1.06193
1.42411
3.89402
1.00279
1.00874
1.0154
1.02287
1.03137
1.0408
1.05275
1.06195
1.37352
3.86823
1.00279
1.00874
1.0154
1.02287
1.03137
1.0408
1.05275
1.06195
1.37322
3.8684
1.00279
1.00874
1.0154
1.02287
1.03137
1.0408
1.05275
1.06193
1.42376
3.89427
1.00279
1.00874
1.0154
1.02287
1.03137
1.0408
1.05275
1.06193
1.47489
3.92185
1.00279
1.00874
1.0154
1.02287
1.03137
1.0408
1.05275
1.06192
1.52538
3.95158
1.00279
1.00874
1.0154
1.02288
1.03137
1.0408
1.05275
1.06191
1.57465
3.98383
1.00279
1.00874
1.01539
1.02288
1.03136
1.0408
1.05275
1.0619
1.62257
4.01811
1.00279
1.00874
1.01539
1.02288
1.03136
1.04081
1.05274
1.0619
1.66886
4.05422
1.00279
1.00874
1.01539
1.02288
1.03136
1.04081
1.05274
1.06189
1.71322
4.09253
1.00279
1.00874
1.01539
1.02288
1.03136
1.04082
1.05273
1.06188
1.75802
4.12987
1.00279
1.00874
1.01539
1.02288
1.03136
1.04082
1.05271
1.06188
1.80404
4.16462
1.00279
1.00874
1.01539
1.02288
1.03135
1.04083
1.0527
1.06188
1.85091
4.19723
1.00279
1.00874
1.01539
1.02288
1.03135
1.04083
1.05268
1.0619
1.89836
4.22711
1.00279
1.00874
1.01539
1.02289
1.03135
1.04084
1.05266
1.06192
1.94566
4.25377
1.00279
1.00874
1.01539
1.02289
1.03135
1.04085
1.05265
1.06198
1.99255
4.27832
1.00279
1.00874
1.01539
1.02289
1.03134
1.04086
1.05263
1.06205
2.03775
4.29872
1.00279
1.00874
1.01539
1.02289
1.03134
1.04087
1.05262
1.06214
2.08087
4.31828
1.00279
1.00874
1.01539
1.02289
1.03134
1.04087
1.05262
1.06215
2.11839
4.33046
1.00279
1.00874
1.01539
1.02289
1.03134
1.04088
1.05262
1.06211
2.15016
4.34162
1.00279
1.00874
1.01539
1.02289
1.03133
1.04089
1.05262
1.06206
2.17229
4.34626
1.00279
1.00874
1.01539
1.0229
1.03133
1.04089
1.05262
1.06204
2.17815
4.35227
4.24545
4.21399
4.19708
4.16829
4.13197
4.08164
4.01672
3.93149
3.82312
3.69019
4.23779
4.20614
4.18816
4.15912
4.12294
4.07062
4.00371
3.91488
3.80227
3.66403
4.23654
4.2052
4.18629
4.15544
4.11788
4.06253
3.99349
3.90011
3.78236
3.63735
4.24219
4.21021
4.19131
4.15687
4.11716
4.05779
3.98597
3.88692
3.763
3.60992
4.25701
4.22201
4.20141
4.16355
4.12116
4.05707
3.98184
3.87602
3.74461
3.58167
4.2786
4.24184
4.21959
4.17901
4.13293
4.06153
3.98132
3.86739
3.72743
3.55294
4.30712
4.26892
4.24511
4.2017
4.15221
4.0747
3.98661
3.8623
3.71212
3.52405
4.34447
4.30405
4.27755
4.23019
4.17655
4.09384
3.9992
3.86283
3.69979
3.49558
4.38924
4.34686
4.31791
4.266
4.20797
4.11847
4.01757
3.86946
3.69167
3.46814
4.44103
4.39672
4.3656
4.3091
4.24657
4.15003
4.04171
3.88214
3.68896
3.44223
4.50059
4.45384
4.42041
4.35891
4.29185
4.18786
4.07108
3.90041
3.69244
3.41942
4.56811
4.51821
4.48246
4.41603
4.34492
4.23382
4.10818
3.92508
3.70077
3.40102
4.64467
4.59001
4.5511
4.4782
4.40188
4.28387
4.14925
3.95534
3.71409
3.38676
4.73252
4.67019
4.62743
4.54767
4.46659
4.34208
4.1976
3.99339
3.73454
3.37823
4.82595
4.75255
4.7038
4.61406
4.52793
4.40022
4.24867
4.03815
3.76378
3.38085
4.92248
4.84951
4.80177
4.70145
4.60476
4.47108
4.3103
4.09397
3.80313
3.40448
5.08005
4.95469
4.89144
4.78424
4.67878
4.54109
4.37267
4.15315
3.84858
3.44595
5.26125
5.07453
4.98287
4.85882
4.74005
4.60179
4.43298
4.21518
3.90147
3.49823
5.43257
5.15711
5.03266
4.89201
4.75947
4.61472
4.44359
4.22701
3.90968
3.49805
5.88248
5.57937
5.36205
5.153
4.95907
4.78043
4.59211
4.38157
4.07121
3.75608
3.36374
2.85473
2.4059
2.04269
1.74516
1.5041
1.43934
1.69781
2.05984
1.92808
3.32607
2.8005
2.34535
1.98376
1.69129
1.48252
1.45695
1.78526
2.08693
1.94044
3.28473
2.74209
2.28168
1.92308
1.63592
1.47082
1.49058
1.86684
2.10739
1.95113
3.23979
2.67858
2.21455
1.85938
1.57805
1.46511
1.53743
1.94195
2.12278
1.96261
3.19145
2.61061
2.14387
1.78902
1.53824
1.46753
1.59835
2.00809
2.13569
1.97412
3.1397
2.53972
2.06573
1.71941
1.51474
1.47163
1.66843
2.06339
2.14647
1.98487
3.08492
2.46353
1.98181
1.66067
1.49319
1.47697
1.74261
2.10757
2.15606
1.99478
3.02541
2.38119
1.8996
1.60235
1.47677
1.49676
1.81596
2.14362
2.16379
2.00425
2.95971
2.29302
1.82
1.53504
1.47076
1.52093
1.88469
2.17209
2.17286
2.01348
2.88708
2.20023
1.72964
1.47841
1.46689
1.55736
1.94988
2.19764
2.18212
2.02391
2.80935
2.09854
1.62698
1.44424
1.46582
1.60797
2.01022
2.22263
2.19093
2.03211
2.7256
1.98392
1.53161
1.42157
1.46913
1.67125
2.06243
2.24582
2.19859
2.03716
2.62975
1.86493
1.44564
1.39065
1.49054
1.73689
2.10275
2.2658
2.20847
2.03926
2.52095
1.74778
1.36515
1.35304
1.51465
1.79114
2.13346
2.28461
2.22224
2.04498
2.39919
1.62489
1.2707
1.32091
1.5637
1.84303
2.15836
2.30001
2.23651
2.05451
2.26043
1.49341
1.19881
1.29455
1.62986
1.89118
2.17997
2.31349
2.24528
2.06396
2.09092
1.35502
1.15195
1.28613
1.69767
1.93945
2.19402
2.31819
2.24885
2.06556
1.88876
1.24255
1.11875
1.28652
1.75999
2.00052
2.2005
2.3128
2.25832
2.06564
1.63891
1.15851
1.09069
1.31689
1.81005
2.05637
2.19705
2.30861
2.27413
2.07293
1.37941
1.09595
1.05916
1.35648
1.85307
2.08805
2.18825
2.31358
2.28725
2.09061
4.09328
3.80827
3.43701
3.07448
2.70551
2.34355
2.00672
1.71179
1.36651
1.05943
4.09047
3.80009
3.43194
3.069
2.70001
2.33871
2.00254
1.7051
1.36173
1.06332
4.08718
3.79164
3.42563
3.05947
2.68978
2.33007
1.99515
1.69387
1.35425
1.07034
4.08163
3.7793
3.41496
3.04369
2.67543
2.31805
1.98468
1.67811
1.34546
1.08088
4.07417
3.76372
3.39755
3.02533
2.65695
2.30197
1.97029
1.65687
1.33671
1.09629
4.06443
3.74518
3.37442
3.00076
2.63533
2.28312
1.95278
1.63114
1.32822
1.11655
4.05393
3.72089
3.34692
2.9747
2.61123
2.26153
1.93168
1.60178
1.32299
1.14398
4.03871
3.68786
3.31288
2.94491
2.58308
2.23631
1.9066
1.56915
1.31824
1.18065
4.01223
3.64631
3.27121
2.90815
2.54944
2.20628
1.87632
1.53521
1.31218
1.23026
3.97112
3.5901
3.22428
2.86466
2.50885
2.17039
1.83963
1.50007
1.30402
1.29349
3.90468
3.52957
3.17318
2.81504
2.46186
2.12776
1.79648
1.46639
1.30086
1.3638
3.82599
3.47049
3.11878
2.7599
2.40971
2.07958
1.74618
1.43629
1.30533
1.4384
3.75777
3.41575
3.0613
2.70146
2.35274
2.02546
1.69161
1.41532
1.32111
1.51546
3.70845
3.36476
3.00167
2.63712
2.29217
1.96685
1.63338
1.40078
1.35307
1.59167
3.67204
3.31255
2.93659
2.56856
2.22601
1.90218
1.58008
1.3927
1.40949
1.66763
3.63593
3.25463
2.86488
2.49267
2.15562
1.83218
1.53091
1.38544
1.49692
1.73794
3.59307
3.18852
2.78474
2.41025
2.07877
1.75906
1.49713
1.38771
1.61447
1.79549
3.54285
3.11312
2.6955
2.32103
1.99784
1.68233
1.4661
1.41313
1.74939
1.84075
3.48389
3.02803
2.59914
2.22566
1.91161
1.61098
1.44512
1.47752
1.88104
1.87638
3.41733
2.93214
2.49293
2.12466
1.81856
1.54458
1.43677
1.58104
1.99349
1.90714
3.4208
2.94286
2.5063
2.12667
1.79133
1.53432
1.45261
1.66387
2.0253
1.91913
3.48555
3.03631
2.61149
2.23024
1.89227
1.59224
1.45668
1.53843
1.93186
1.88895
3.54269
3.11884
2.70616
2.32612
1.98646
1.66531
1.47417
1.45731
1.81082
1.85637
3.59168
3.19157
2.79162
2.41477
2.07279
1.74375
1.49881
1.41363
1.67983
1.81603
3.63366
3.25541
2.86821
2.49543
2.1524
1.82321
1.5348
1.39934
1.55356
1.76854
3.66924
3.31146
2.93752
2.56941
2.22501
1.89751
1.5774
1.39875
1.44617
1.70334
3.70539
3.36246
3.00031
2.63723
2.29124
1.96437
1.63389
1.40467
1.36977
1.62373
3.75467
3.4124
3.05885
2.6994
2.35201
2.02512
1.6905
1.41327
1.32281
1.535
3.82304
3.46668
3.11489
2.75713
2.40736
2.07868
1.7472
1.43434
1.30236
1.4424
3.90213
3.52554
3.16874
2.81079
2.4587
2.12603
1.79794
1.46519
1.29842
1.35638
3.96916
3.58628
3.2196
2.86004
2.50441
2.16764
1.8416
1.50222
1.3039
1.27947
4.01091
3.643
3.26682
2.90338
2.54483
2.20297
1.87783
1.54007
1.31225
1.21544
4.03802
3.68538
3.30923
2.94069
2.57873
2.23295
1.90763
1.57489
1.31808
1.16899
4.0538
3.7194
3.34409
2.97144
2.60767
2.25843
1.93171
1.60681
1.32352
1.13531
4.0648
3.74475
3.37323
2.99857
2.63268
2.2805
1.95192
1.63432
1.32936
1.11049
4.07498
3.76429
3.39726
3.0239
2.655
2.29967
1.96869
1.65798
1.33747
1.09199
4.08292
3.7807
3.41581
3.04357
2.67429
2.31621
1.98269
1.67734
1.34566
1.07823
4.08889
3.79367
3.42726
3.06027
2.68935
2.32858
1.99301
1.69189
1.35305
1.06872
4.09253
3.8025
3.43406
3.07032
2.70012
2.33756
2.00053
1.70247
1.35954
1.06242
4.09544
3.81106
3.43934
3.07634
2.70595
2.34265
2.00487
1.7088
1.36355
1.05889
4.26216
4.23004
4.21295
4.18348
4.1465
4.09695
4.03366
3.95229
3.85024
3.72615
4.29041
4.25863
4.24208
4.21189
4.17476
4.12497
4.06207
3.98386
3.88821
3.77176
4.32467
4.29541
4.27962
4.24699
4.20695
4.15398
4.08871
4.01095
3.92053
3.81151
4.36495
4.33933
4.32219
4.28472
4.23929
4.18061
4.11133
4.03265
3.94608
3.84411
4.42609
4.39317
4.36403
4.31845
4.26685
4.2038
4.12959
4.04558
3.95962
3.86772
4.50227
4.451
4.39994
4.34256
4.2856
4.22561
4.15249
4.06735
3.97753
3.88778
4.55342
4.49291
4.43973
4.381
4.32138
4.25925
4.19123
4.10813
4.01506
3.92047
4.60048
4.53962
4.48809
4.44008
4.38212
4.32437
4.26182
4.18211
4.09126
3.98825
4.63118
4.5839
4.56149
4.5085
4.45339
4.40067
4.34079
4.26238
4.17854
4.07914
4.60235
4.55066
4.53829
4.5118
4.47766
4.42697
4.36982
4.30365
4.23113
4.15175
4.58198
4.53133
4.50368
4.46494
4.43048
4.39713
4.36523
4.31734
4.24676
4.18502
4.56422
4.51729
4.49457
4.4549
4.41874
4.37916
4.33508
4.28518
4.23326
4.19435
4.53091
4.49453
4.47505
4.44555
4.41009
4.37536
4.33357
4.28153
4.21946
4.17454
4.49195
4.45941
4.44556
4.42509
4.39989
4.36439
4.32927
4.28909
4.23254
4.16747
4.47725
4.439
4.41976
4.40005
4.38136
4.35368
4.31946
4.28256
4.23721
4.16739
4.49829
4.44966
4.42147
4.39214
4.36661
4.34037
4.3086
4.27481
4.23559
4.16535
4.51476
4.46464
4.43386
4.39809
4.36807
4.33615
4.3025
4.26756
4.2328
4.1666
4.5068
4.46024
4.43921
4.4036
4.37338
4.34076
4.30359
4.26475
4.22981
4.16875
4.50153
4.45709
4.43556
4.40271
4.37307
4.34262
4.30704
4.26709
4.22976
4.16936
4.49932
4.45605
4.43281
4.40207
4.37269
4.34343
4.3096
4.27058
4.23266
4.17105
1.00279
1.00874
1.0154
1.02287
1.03137
1.0408
1.05275
1.06197
1.31335
3.83434
1.00279
1.00874
1.0154
1.02287
1.03137
1.0408
1.05273
1.06202
1.25153
3.78543
1.00279
1.00874
1.0154
1.02287
1.03137
1.0408
1.05271
1.06211
1.1953
3.72954
1.00279
1.00874
1.0154
1.02287
1.03137
1.04081
1.05268
1.06226
1.14935
3.67144
1.00279
1.00874
1.0154
1.02287
1.03137
1.04081
1.05265
1.06245
1.11922
3.62296
1.00279
1.00874
1.0154
1.02287
1.03137
1.0408
1.05262
1.0627
1.1013
3.5682
1.00279
1.00874
1.0154
1.02287
1.03138
1.0408
1.05259
1.06298
1.09091
3.50585
1.00279
1.00874
1.0154
1.02287
1.03138
1.0408
1.05256
1.06329
1.08476
3.42084
1.00279
1.00874
1.0154
1.02287
1.03138
1.0408
1.05252
1.06362
1.08112
3.3015
1.00279
1.00874
1.0154
1.02287
1.03138
1.04081
1.05247
1.06391
1.07888
3.21282
1.00279
1.00874
1.0154
1.02287
1.03138
1.04082
1.05241
1.0642
1.07739
3.16845
1.00279
1.00874
1.0154
1.02287
1.03138
1.04083
1.05233
1.06446
1.07646
3.13556
1.00279
1.00874
1.0154
1.02287
1.03138
1.04085
1.05223
1.0647
1.07592
3.11036
1.00279
1.00874
1.0154
1.02287
1.03138
1.04086
1.05217
1.06492
1.0756
3.09407
1.00279
1.00874
1.0154
1.02286
1.03138
1.04086
1.05213
1.06514
1.07543
3.08046
1.00279
1.00874
1.0154
1.02286
1.03139
1.04086
1.05212
1.06534
1.07536
3.06405
1.00279
1.00874
1.01541
1.02286
1.0314
1.04085
1.05212
1.06553
1.07536
3.0479
1.00279
1.00874
1.01541
1.02286
1.0314
1.04084
1.05213
1.06571
1.0754
3.03706
1.00279
1.00874
1.01541
1.02286
1.0314
1.04083
1.05214
1.06582
1.07542
3.02987
1.00279
1.00873
1.01541
1.02285
1.03141
1.04082
1.05215
1.06593
1.0754
3.02607
1.00279
1.00873
1.01541
1.02285
1.03141
1.04082
1.05215
1.06593
1.0754
3.02666
1.00279
1.00874
1.01541
1.02286
1.0314
1.04083
1.05214
1.06582
1.07542
3.03041
1.00279
1.00874
1.01541
1.02286
1.0314
1.04084
1.05213
1.06571
1.0754
3.03755
1.00279
1.00874
1.01541
1.02286
1.0314
1.04085
1.05212
1.06552
1.07536
3.04831
1.00279
1.00874
1.0154
1.02286
1.03139
1.04086
1.05212
1.06534
1.07536
3.06433
1.00279
1.00874
1.0154
1.02286
1.03138
1.04086
1.05213
1.06514
1.07543
3.08055
1.00279
1.00874
1.0154
1.02287
1.03138
1.04086
1.05217
1.06492
1.0756
3.09396
1.00279
1.00874
1.0154
1.02287
1.03138
1.04085
1.05223
1.0647
1.07592
3.11017
1.00279
1.00874
1.0154
1.02287
1.03138
1.04083
1.05233
1.06446
1.07646
3.1353
1.00279
1.00874
1.0154
1.02287
1.03138
1.04082
1.05241
1.0642
1.0774
3.16816
1.00279
1.00874
1.0154
1.02287
1.03138
1.0408
1.05247
1.06391
1.07889
3.21267
1.00279
1.00874
1.0154
1.02287
1.03138
1.0408
1.05252
1.06362
1.08112
3.30148
1.00279
1.00874
1.0154
1.02287
1.03138
1.0408
1.05256
1.06329
1.08477
3.4208
1.00279
1.00874
1.0154
1.02287
1.03138
1.0408
1.05259
1.06298
1.09093
3.50557
1.00279
1.00874
1.0154
1.02287
1.03137
1.0408
1.05262
1.0627
1.10131
3.56773
1.00279
1.00874
1.0154
1.02287
1.03137
1.04081
1.05265
1.06245
1.11922
3.62254
1.00279
1.00874
1.0154
1.02287
1.03137
1.04081
1.05268
1.06226
1.14931
3.67114
1.00279
1.00874
1.0154
1.02287
1.03137
1.0408
1.05271
1.06211
1.1952
3.72935
1.00279
1.00874
1.0154
1.02287
1.03137
1.0408
1.05273
1.06202
1.25136
3.78538
1.00279
1.00874
1.0154
1.02287
1.03137
1.0408
1.05275
1.06197
1.31311
3.8344
4.50024
4.45698
4.43371
4.40288
4.37339
4.34397
4.30984
4.27045
4.23198
4.16973
4.50236
4.4579
4.43633
4.40337
4.37365
4.34301
4.30716
4.26685
4.22901
4.16804
4.50747
4.4609
4.43975
4.40405
4.37368
4.34091
4.30357
4.26443
4.22908
4.16756
4.51508
4.46489
4.43397
4.3982
4.36804
4.33602
4.30234
4.26707
4.23199
4.16551
4.49802
4.44947
4.42132
4.39192
4.36645
4.34014
4.30819
4.27414
4.23472
4.1644
4.47705
4.43873
4.41963
4.39993
4.38106
4.3532
4.31877
4.28174
4.23632
4.16653
4.49203
4.45937
4.4454
4.42468
4.39928
4.36361
4.32839
4.28817
4.23171
4.16674
4.5307
4.49412
4.47444
4.44475
4.40916
4.37436
4.3325
4.28056
4.21878
4.17406
4.56351
4.51646
4.49364
4.4539
4.41769
4.37809
4.334
4.28431
4.23274
4.1942
4.58128
4.53042
4.50269
4.46391
4.42945
4.3962
4.36432
4.31646
4.24639
4.18537
4.60168
4.54997
4.53749
4.51091
4.47647
4.42573
4.36882
4.30308
4.23121
4.15253
4.63044
4.58309
4.56039
4.50718
4.45218
4.39954
4.33989
4.26201
4.17898
4.08054
4.59915
4.5383
4.48672
4.43865
4.38084
4.32342
4.26136
4.18241
4.09243
3.99039
4.55234
4.49186
4.43879
4.38015
4.32077
4.259
4.19164
4.10934
4.01704
3.92314
4.50194
4.45066
4.39968
4.34239
4.28577
4.22636
4.15381
4.0694
3.98024
3.89087
4.42557
4.3929
4.36402
4.31884
4.26774
4.20536
4.1317
4.04817
3.96261
3.87087
4.36456
4.33939
4.32264
4.2857
4.24079
4.18268
4.11389
4.03548
3.9491
3.84707
4.32461
4.29594
4.28064
4.24856
4.20897
4.15637
4.09142
4.01379
3.92343
3.81425
4.29074
4.25961
4.24355
4.21386
4.17704
4.12747
4.06474
3.98662
3.89089
3.77401
4.2629
4.23143
4.21475
4.18562
4.14882
4.09941
4.03619
3.95496
3.85253
3.72744
)
;

boundaryField
{
    inlet
    {
        type            fixedValue;
        value           uniform 1;
    }
    outlet
    {
        type            zeroGradient;
    }
    triangle
    {
        type            zeroGradient;
    }
    top
    {
        type            symmetryPlane;
    }
    bottom
    {
        type            symmetryPlane;
    }
    defaultFaces
    {
        type            empty;
    }
}


// ************************************************************************* //
