/*--------------------------------*- C++ -*----------------------------------*\
  =========                 |
  \\      /  F ield         | OpenFOAM: The Open Source CFD Toolbox
   \\    /   O peration     | Website:  https://openfoam.org
    \\  /    A nd           | Version:  8
     \\/     M anipulation  |
\*---------------------------------------------------------------------------*/
FoamFile
{
    version     2.0;
    format      ascii;
    class       volScalarField;
    location    "3.5";
    object      rho;
}
// * * * * * * * * * * * * * * * * * * * * * * * * * * * * * * * * * * * * * //

dimensions      [1 -3 0 0 0 0 0];

internalField   nonuniform List<scalar> 
2600
(
1.12512
1.11767
1.20927
1.56576
1.95538
2.14489
2.23875
2.36579
2.34522
2.21505
1.10165
1.05116
1.16151
1.56324
1.92058
2.10529
2.23004
2.3636
2.3309
2.19753
1.09084
1.01535
1.12886
1.54434
1.8679
2.07008
2.19918
2.3409
2.32139
2.16692
1.09309
0.998311
1.10136
1.51734
1.80982
1.97646
2.12063
2.3224
2.32161
2.14995
1.09609
0.994485
1.0692
1.46866
1.72258
1.86209
2.03277
2.31704
2.30587
2.11307
1.09761
0.98982
1.03312
1.38105
1.63899
1.80611
1.96881
2.28323
2.24394
2.04522
1.09544
0.987043
1.01016
1.31503
1.58102
1.78161
1.9265
2.21118
2.17423
1.9881
1.10111
0.990717
1.00694
1.26798
1.56186
1.77157
1.91205
2.14043
2.10236
1.94595
1.1076
0.999493
1.0182
1.2352
1.51781
1.7659
1.92246
2.07217
2.04114
1.93093
1.1177
1.01119
1.04194
1.22774
1.5023
1.7695
1.90885
2.0085
1.98898
1.91522
1.12714
1.02746
1.0775
1.22505
1.46239
1.77674
1.94535
1.99338
1.97437
1.92009
1.13384
1.04808
1.09324
1.21948
1.45956
1.81893
1.96299
1.98794
1.96514
1.93
1.13727
1.06728
1.10678
1.23325
1.48851
1.89764
2.03136
2.00617
1.97843
1.96027
1.13605
1.08211
1.13103
1.27317
1.54744
1.99694
2.09897
2.02214
1.99229
2.0044
1.12935
1.09693
1.15629
1.30508
1.62109
2.05863
2.17467
2.07823
2.04049
2.06224
1.12177
1.10373
1.16988
1.333
1.66637
2.10078
2.22413
2.14874
2.10643
2.11782
1.12501
1.11673
1.18824
1.37253
1.6801
2.14317
2.25932
2.22274
2.18472
2.14589
1.13282
1.1363
1.2242
1.39302
1.68044
2.17261
2.30466
2.30285
2.24887
2.16353
1.14506
1.16805
1.28937
1.40971
1.67355
2.17434
2.31336
2.36096
2.29714
2.1935
1.16398
1.22518
1.3591
1.43463
1.66244
2.1594
2.30035
2.3647
2.30617
2.20737
1.40118
1.30044
1.43026
1.46685
1.64539
2.13374
2.29588
2.36598
2.2975
2.2035
1.68508
1.38712
1.49922
1.49749
1.62611
2.09585
2.29533
2.36951
2.29729
2.19277
1.94838
1.46103
1.54291
1.51765
1.61596
2.05508
2.28773
2.36949
2.29823
2.18639
2.14847
1.54909
1.5874
1.5401
1.61386
2.0099
2.27081
2.36506
2.29791
2.18377
2.30101
1.67221
1.63232
1.55167
1.61145
1.96127
2.24568
2.35639
2.29652
2.18517
2.41132
1.80526
1.67956
1.55708
1.60315
1.91217
2.22385
2.34877
2.29505
2.18477
2.50152
1.91711
1.73105
1.57246
1.59791
1.86316
2.20541
2.34272
2.2956
2.18049
2.57861
2.01743
1.77212
1.59708
1.59307
1.81344
2.18396
2.33466
2.29763
2.17697
2.64553
2.11506
1.81554
1.62485
1.59063
1.76428
2.15402
2.32315
2.29322
2.1763
2.70446
2.20368
1.8784
1.65673
1.59884
1.7224
2.11498
2.30843
2.28678
2.17524
2.75881
2.28126
1.95098
1.70638
1.60767
1.6933
2.06906
2.29484
2.2773
2.17013
2.81048
2.35196
2.01827
1.76752
1.6259
1.67828
2.01855
2.27909
2.26605
2.16298
2.85878
2.41926
2.08251
1.82802
1.65365
1.67953
1.96599
2.25706
2.25868
2.1579
2.90414
2.48294
2.14474
1.8829
1.68583
1.69039
1.914
2.22868
2.25472
2.15363
2.94646
2.54217
2.2058
1.93559
1.72153
1.70247
1.86739
2.19622
2.25499
2.14985
2.9864
2.59623
2.26398
1.9884
1.75863
1.71153
1.82766
2.16231
2.25252
2.14644
3.02396
2.64657
2.31727
2.04153
1.79892
1.71862
1.79429
2.12927
2.24831
2.13906
3.05942
2.69382
2.36766
2.09071
1.844
1.72574
1.76801
2.09068
2.24123
2.13081
3.09281
2.73797
2.41631
2.13714
1.88864
1.7373
1.74945
2.04343
2.23096
2.12282
3.12403
2.77971
2.4624
2.18365
1.92936
1.75596
1.73225
1.98935
2.21625
2.11586
4.23015
4.07178
3.9643
3.86521
3.77559
3.69357
3.60378
3.5002
3.33718
3.13567
4.01904
3.8792
3.82426
3.76036
3.6997
3.63126
3.54639
3.43452
3.26182
3.0192
3.98552
3.9014
3.87125
3.81715
3.75944
3.6879
3.59722
3.47757
3.29977
3.07284
3.97654
3.92102
3.89935
3.84809
3.79275
3.71626
3.62024
3.49303
3.31379
3.08011
3.9856
3.9389
3.90979
3.85192
3.79662
3.71921
3.62504
3.4966
3.32134
3.07806
3.94154
3.9012
3.87348
3.82137
3.77126
3.69655
3.60715
3.48128
3.31416
3.07212
3.88049
3.84816
3.82599
3.78155
3.73564
3.66356
3.57889
3.45688
3.29924
3.07236
3.82801
3.79929
3.77877
3.7381
3.69496
3.62665
3.54775
3.43178
3.28495
3.0775
3.7889
3.7621
3.7421
3.7038
3.66252
3.59722
3.52284
3.41257
3.27598
3.0872
3.75853
3.73306
3.71357
3.677
3.63684
3.5744
3.50409
3.40016
3.27295
3.10161
3.73405
3.70954
3.69084
3.6565
3.61823
3.55922
3.49292
3.39487
3.27556
3.12066
3.71448
3.69061
3.67264
3.6404
3.60424
3.54877
3.48632
3.39431
3.28366
3.14298
3.69937
3.67616
3.65903
3.62887
3.59483
3.54298
3.48392
3.39809
3.29585
3.1668
3.6892
3.66687
3.65076
3.62238
3.59037
3.5411
3.4853
3.40618
3.31108
3.19158
3.68493
3.66313
3.64742
3.62012
3.58947
3.5431
3.49124
3.41802
3.32849
3.21684
3.68494
3.66389
3.64861
3.62232
3.59324
3.5506
3.50114
3.43236
3.34739
3.24226
3.689
3.66943
3.65465
3.62989
3.60191
3.56155
3.51352
3.4483
3.36733
3.26767
3.69913
3.67964
3.66427
3.64111
3.61379
3.57519
3.52818
3.46575
3.38799
3.29273
3.71378
3.69401
3.67853
3.65574
3.62859
3.59118
3.54472
3.48429
3.40901
3.31734
3.73235
3.71267
3.69733
3.67402
3.64609
3.6092
3.56315
3.50406
3.43061
3.34147
1.40279
1.40874
1.41536
1.42283
1.4312
1.44067
1.45223
1.4615
2.24124
3.50954
1.40279
1.40874
1.41536
1.42283
1.4312
1.44067
1.45223
1.46156
2.2358
3.51253
1.40279
1.40874
1.41536
1.42283
1.43121
1.44066
1.45223
1.46161
2.2205
3.5186
1.40279
1.40874
1.41536
1.42283
1.43121
1.44065
1.45223
1.46164
2.19925
3.51332
1.40279
1.40874
1.41536
1.42283
1.43121
1.44065
1.45223
1.46164
2.1747
3.49952
1.40279
1.40874
1.41536
1.42282
1.43121
1.44064
1.45224
1.46155
2.15299
3.48534
1.40279
1.40874
1.41536
1.42282
1.43121
1.44063
1.45226
1.46148
2.13334
3.47677
1.40279
1.40874
1.41536
1.42282
1.43122
1.44062
1.45227
1.46142
2.11205
3.47248
1.40279
1.40874
1.41536
1.42282
1.43122
1.44061
1.45229
1.46139
2.08822
3.47133
1.40279
1.40874
1.41537
1.42282
1.43122
1.44061
1.45231
1.46138
2.06166
3.46972
1.40279
1.40874
1.41537
1.42281
1.43123
1.4406
1.45232
1.46138
2.03332
3.46607
1.40279
1.40874
1.41537
1.42281
1.43123
1.4406
1.45234
1.46138
2.00406
3.45961
1.40279
1.40874
1.41537
1.42281
1.43123
1.44059
1.45235
1.46139
1.97483
3.44976
1.40279
1.40874
1.41537
1.42281
1.43123
1.44059
1.45235
1.46139
1.94549
3.43767
1.40279
1.40874
1.41537
1.42281
1.43123
1.44058
1.45236
1.4614
1.91424
3.42544
1.40279
1.40874
1.41537
1.42281
1.43123
1.44058
1.45236
1.46141
1.88137
3.41301
1.40279
1.40874
1.41537
1.42281
1.43124
1.44058
1.45236
1.46142
1.84709
3.4006
1.40279
1.40874
1.41537
1.42281
1.43124
1.44058
1.45236
1.46142
1.81149
3.38851
1.40279
1.40874
1.41537
1.42281
1.43124
1.44058
1.45236
1.46143
1.77512
3.37666
1.40279
1.40874
1.41537
1.42281
1.43124
1.44058
1.45236
1.46144
1.73918
3.36482
1.40279
1.40874
1.41537
1.42281
1.43124
1.44058
1.45236
1.46144
1.73897
3.36496
1.40279
1.40874
1.41537
1.42281
1.43124
1.44058
1.45236
1.46143
1.77489
3.37684
1.40279
1.40874
1.41537
1.42281
1.43124
1.44058
1.45236
1.46142
1.81125
3.38873
1.40279
1.40874
1.41537
1.42281
1.43124
1.44058
1.45236
1.46142
1.84684
3.40085
1.40279
1.40874
1.41537
1.42281
1.43123
1.44058
1.45236
1.46141
1.88111
3.4133
1.40279
1.40874
1.41537
1.42281
1.43123
1.44058
1.45236
1.4614
1.91396
3.42576
1.40279
1.40874
1.41537
1.42281
1.43123
1.44059
1.45235
1.46139
1.9452
3.43802
1.40279
1.40874
1.41537
1.42281
1.43123
1.44059
1.45235
1.46139
1.97456
3.45011
1.40279
1.40874
1.41537
1.42281
1.43123
1.4406
1.45234
1.46138
2.00379
3.45996
1.40279
1.40874
1.41537
1.42281
1.43123
1.4406
1.45232
1.46138
2.03307
3.46641
1.40279
1.40874
1.41537
1.42282
1.43122
1.44061
1.45231
1.46138
2.06144
3.47005
1.40279
1.40874
1.41536
1.42282
1.43122
1.44061
1.45229
1.46139
2.08801
3.47164
1.40279
1.40874
1.41536
1.42282
1.43122
1.44062
1.45227
1.46142
2.11186
3.47278
1.40279
1.40874
1.41536
1.42282
1.43121
1.44063
1.45226
1.46148
2.13317
3.47706
1.40279
1.40874
1.41536
1.42282
1.43121
1.44064
1.45224
1.46155
2.15286
3.48563
1.40279
1.40874
1.41536
1.42283
1.43121
1.44065
1.45223
1.46164
2.1746
3.49978
1.40279
1.40874
1.41536
1.42283
1.43121
1.44065
1.45223
1.46164
2.19919
3.51354
1.40279
1.40874
1.41536
1.42283
1.43121
1.44066
1.45223
1.46161
2.22047
3.51877
1.40279
1.40874
1.41536
1.42283
1.4312
1.44067
1.45223
1.46156
2.23579
3.51262
1.40279
1.40874
1.41536
1.42283
1.4312
1.44067
1.45223
1.46154
2.24124
3.50959
3.73328
3.71392
3.69877
3.67565
3.64775
3.61091
3.56479
3.5057
3.43174
3.34169
3.71491
3.69543
3.68005
3.65738
3.63027
3.59288
3.5463
3.48574
3.40987
3.31728
3.70043
3.68117
3.66587
3.64274
3.61544
3.57687
3.52968
3.46699
3.38856
3.29246
3.69038
3.67098
3.65629
3.63154
3.60356
3.56315
3.51489
3.44931
3.36764
3.26718
3.68638
3.66547
3.65027
3.62399
3.59486
3.55207
3.50233
3.43318
3.34745
3.24145
3.6864
3.66472
3.64906
3.62174
3.59102
3.54445
3.49224
3.41869
3.3282
3.21551
3.69069
3.66844
3.65235
3.62395
3.59183
3.54232
3.48609
3.4067
3.31034
3.1896
3.70084
3.67768
3.66055
3.63037
3.59622
3.54413
3.48457
3.3984
3.29456
3.1641
3.71591
3.69206
3.67407
3.64178
3.60552
3.5498
3.48682
3.39426
3.28174
3.13947
3.73541
3.7109
3.69217
3.65777
3.61939
3.56009
3.4932
3.39431
3.27305
3.11642
3.7598
3.73432
3.7148
3.67816
3.63788
3.57509
3.50405
3.39916
3.26985
3.09667
3.79006
3.76326
3.74324
3.70486
3.66342
3.5977
3.52251
3.41112
3.27231
3.08181
3.82909
3.80037
3.77983
3.73906
3.69573
3.62695
3.5472
3.42994
3.28073
3.07193
3.88149
3.84916
3.82696
3.7824
3.73628
3.66372
3.57813
3.4548
3.29472
3.0668
3.94243
3.90212
3.87439
3.82215
3.77182
3.69662
3.60631
3.4791
3.30959
3.06689
3.98632
3.93971
3.91062
3.85263
3.7971
3.71924
3.62421
3.49446
3.31689
3.07214
3.97717
3.92171
3.90005
3.84869
3.79316
3.71626
3.61952
3.49097
3.30967
3.07379
3.98609
3.90199
3.87185
3.81768
3.75984
3.68796
3.5967
3.4758
3.29615
3.0671
4.01951
3.87971
3.82479
3.76083
3.70007
3.63133
3.54597
3.43286
3.25804
3.01346
4.2306
4.07224
3.96481
3.86564
3.776
3.69372
3.60364
3.49884
3.334
3.13051
3.12123
2.77092
2.45098
2.18253
1.95476
1.76078
1.71347
1.92615
2.20714
2.10783
3.08979
2.72819
2.40296
2.13458
1.90953
1.74015
1.72736
1.99435
2.22786
2.11758
3.05572
2.68225
2.35231
2.08501
1.86289
1.72883
1.75301
2.05686
2.24307
2.12581
3.01921
2.63247
2.29869
2.0327
1.81381
1.72343
1.78949
2.11137
2.25372
2.13417
2.98046
2.57934
2.24199
1.97465
1.77903
1.72545
1.83774
2.15584
2.26187
2.14203
2.93953
2.52405
2.17927
1.91662
1.75699
1.72891
1.89354
2.19085
2.26788
2.14902
2.89673
2.46498
2.11175
1.8667
1.73633
1.73311
1.95273
2.21982
2.27199
2.15549
2.85107
2.40175
2.04523
1.81628
1.72195
1.7472
2.01114
2.24739
2.27375
2.16192
2.80185
2.33478
1.98064
1.75726
1.71674
1.76461
2.06335
2.27169
2.27791
2.16809
2.74896
2.26519
1.90766
1.70652
1.71251
1.79274
2.11039
2.29331
2.28439
2.17526
2.69398
2.18986
1.82438
1.6767
1.70868
1.83285
2.15212
2.31287
2.29138
2.18104
2.63608
2.10512
1.74567
1.65837
1.70748
1.88228
2.18604
2.32905
2.29691
2.18432
2.56974
2.01546
1.67354
1.63346
1.72254
1.93223
2.20919
2.34095
2.30271
2.18474
2.49138
1.92274
1.60581
1.60186
1.74107
1.9725
2.22456
2.35071
2.30991
2.18721
2.39637
1.81695
1.52535
1.57297
1.77972
2.0107
2.23706
2.35757
2.31668
2.19219
2.27631
1.69123
1.46014
1.54824
1.83065
2.04583
2.25013
2.36372
2.31973
2.19722
2.1163
1.54472
1.41115
1.53598
1.88088
2.0807
2.26035
2.36534
2.32015
2.19696
1.91406
1.41037
1.36878
1.52861
1.9246
2.12402
2.26503
2.36098
2.32621
2.19616
1.65532
1.29647
1.32394
1.54371
1.95401
2.15687
2.26027
2.35745
2.33772
2.2009
1.36819
1.1966
1.26545
1.55904
1.96746
2.15976
2.2479
2.36014
2.34655
2.21245
3.54831
3.43718
3.21383
2.98481
2.74063
2.48284
2.22343
1.9809
1.68222
1.3953
3.54845
3.43295
3.21158
2.98224
2.73746
2.47943
2.22004
1.97524
1.6779
1.39897
3.55307
3.43035
3.21078
2.97935
2.73243
2.47359
2.21391
1.96551
1.67097
1.40554
3.56132
3.427
3.20945
2.97444
2.72567
2.46532
2.20498
1.9516
1.66264
1.41531
3.571
3.42307
3.20553
2.96886
2.71598
2.45353
2.19244
1.93271
1.65411
1.42947
3.57984
3.41844
3.19862
2.95821
2.70266
2.43859
2.17687
1.90969
1.64562
1.44783
3.58758
3.41191
3.18827
2.94408
2.68531
2.42032
2.15798
1.88329
1.63996
1.4722
3.5925
3.40087
3.17145
2.92424
2.66271
2.3982
2.13558
1.85383
1.63501
1.50385
3.59118
3.38364
3.14633
2.8965
2.63427
2.37165
2.10883
1.82296
1.62929
1.54559
3.58051
3.35389
3.11411
2.86163
2.59957
2.34021
2.0768
1.791
1.62068
1.59906
3.5508
3.3167
3.07583
2.82076
2.55952
2.30342
2.03937
1.76045
1.61499
1.65895
3.50739
3.27591
3.03271
2.77489
2.51531
2.26216
1.99583
1.73291
1.61669
1.72084
3.46445
3.23418
2.98557
2.72593
2.46718
2.21598
1.94836
1.71301
1.62828
1.78377
3.42833
3.19202
2.93559
2.6721
2.41591
2.1658
1.89737
1.69801
1.65418
1.84563
3.39696
3.14702
2.88087
2.61466
2.35994
2.11025
1.84997
1.68779
1.70118
1.90721
3.36304
3.09691
2.82092
2.55144
2.30031
2.0499
1.80526
1.67931
1.77318
1.9637
3.32264
3.04064
2.75482
2.4832
2.23541
1.98656
1.77284
1.6801
1.86698
2.00825
3.27608
2.97789
2.68233
2.40988
2.16721
1.91982
1.74283
1.69952
1.97059
2.04205
3.22358
2.9087
2.60488
2.33194
2.09475
1.85712
1.72179
1.7507
2.07077
2.0684
3.16643
2.83219
2.52016
2.24948
2.01664
1.79801
1.71191
1.83357
2.15658
2.09164
3.16883
2.83972
2.53004
2.25123
1.9949
1.78873
1.72612
1.90114
2.1818
2.10112
3.22486
2.91455
2.61391
2.33553
2.0796
1.84112
1.73214
1.8016
2.10965
2.07785
3.27615
2.98198
2.69006
2.41374
2.15844
1.90551
1.75028
1.73677
2.01706
2.05398
3.32184
3.04287
2.75978
2.48658
2.23088
1.97389
1.77484
1.70243
1.91838
2.0243
3.36167
3.09755
2.82332
2.55349
2.29789
2.04261
1.80869
1.69233
1.82012
1.98828
3.3952
3.14635
2.88155
2.6153
2.35921
2.10652
1.84777
1.69311
1.73245
1.93632
3.42641
3.19052
2.93468
2.67219
2.41524
2.16385
1.8979
1.70055
1.66857
1.87161
3.4625
3.23197
2.98389
2.72446
2.46665
2.21572
1.94747
1.71114
1.62988
1.7996
3.50552
3.27339
3.03004
2.77292
2.51359
2.26149
1.99667
1.73145
1.61445
1.72411
3.54917
3.31401
3.07278
2.81774
2.55721
2.3021
2.04057
1.75948
1.61323
1.65254
3.57927
3.35134
3.11088
2.85834
2.59631
2.33812
2.0784
1.79283
1.62149
1.58649
3.59037
3.38143
3.14329
2.89311
2.63089
2.36912
2.11004
1.82716
1.62947
1.53276
3.59211
3.39924
3.16892
2.92123
2.65952
2.39564
2.13639
1.85876
1.63474
1.4936
3.58752
3.41095
3.18634
2.94177
2.6827
2.41797
2.158
1.88756
1.64036
1.46435
3.5801
3.41818
3.19782
2.95665
2.70071
2.43659
2.17618
1.91236
1.6466
1.44224
3.57152
3.42344
3.20534
2.96786
2.71456
2.45178
2.19116
1.93363
1.65477
1.42547
3.56216
3.42789
3.21004
2.97437
2.72485
2.46392
2.20338
1.95096
1.66281
1.41284
3.55419
3.43165
3.21187
2.97992
2.73213
2.47245
2.21221
1.96387
1.66992
1.40403
3.54981
3.43449
3.213
2.98317
2.73755
2.47857
2.21844
1.97307
1.67597
1.39814
3.54973
3.43895
3.21539
2.98611
2.74096
2.48216
2.22195
1.97844
1.6796
1.39481
3.75898
3.73936
3.72417
3.70044
3.67184
3.63506
3.58938
3.53206
3.46145
3.37628
3.79061
3.77147
3.75749
3.73436
3.70653
3.66992
3.62441
3.5688
3.50183
3.42097
3.81821
3.80156
3.79035
3.76782
3.73954
3.70222
3.65618
3.60147
3.53801
3.46167
3.84198
3.82929
3.8205
3.79771
3.76802
3.72872
3.68188
3.62824
3.56823
3.49692
3.87175
3.8557
3.84184
3.81698
3.78701
3.74787
3.70022
3.64483
3.58687
3.52385
3.90272
3.87576
3.85118
3.82173
3.79142
3.75837
3.71507
3.66161
3.60363
3.54438
3.87233
3.85977
3.84975
3.82746
3.7996
3.76845
3.73232
3.68467
3.62829
3.56884
3.77793
3.79456
3.82118
3.82958
3.8164
3.79369
3.76419
3.7219
3.67093
3.61053
3.66336
3.69452
3.76516
3.80824
3.82182
3.81613
3.79493
3.75705
3.71354
3.65955
3.57725
3.57737
3.63257
3.70245
3.76214
3.78618
3.78314
3.76173
3.72864
3.68989
3.55362
3.52875
3.53687
3.56648
3.62528
3.68947
3.73349
3.74008
3.71735
3.69187
3.55884
3.52461
3.51044
3.50297
3.52555
3.57846
3.64018
3.67818
3.68291
3.6785
3.56819
3.52955
3.50457
3.48379
3.47584
3.49763
3.55121
3.61174
3.64055
3.64556
3.57769
3.53655
3.50434
3.47677
3.45907
3.45272
3.47918
3.54095
3.59938
3.61753
3.59498
3.55209
3.51421
3.47637
3.4514
3.43449
3.43586
3.47366
3.54214
3.58725
3.62476
3.5804
3.53982
3.49262
3.45193
3.42771
3.41395
3.42918
3.48535
3.54819
3.64582
3.60494
3.56692
3.51685
3.46733
3.42942
3.40643
3.40486
3.44298
3.50971
3.64952
3.61222
3.58285
3.53542
3.48436
3.4381
3.40808
3.39409
3.4178
3.48048
3.65092
3.61537
3.58702
3.54295
3.49266
3.44404
3.41144
3.39228
3.4078
3.46498
3.6508
3.61614
3.58714
3.54482
3.49494
3.44623
3.41349
3.39374
3.40718
3.46185
1.40279
1.40874
1.41537
1.42281
1.43124
1.44058
1.45236
1.46146
1.69478
3.34589
1.40279
1.40873
1.41537
1.42281
1.43124
1.44058
1.45235
1.46151
1.64358
3.31111
1.40279
1.40873
1.41537
1.42281
1.43124
1.44058
1.45233
1.46159
1.59227
3.26322
1.40279
1.40873
1.41537
1.42281
1.43124
1.44059
1.4523
1.46173
1.54806
3.20764
1.40279
1.40873
1.41537
1.4228
1.43124
1.44058
1.45227
1.46192
1.51832
3.15404
1.40279
1.40873
1.41537
1.4228
1.43124
1.44058
1.45224
1.46215
1.50046
3.09451
1.40279
1.40873
1.41537
1.4228
1.43125
1.44058
1.45221
1.46244
1.49009
3.03602
1.40279
1.40873
1.41537
1.4228
1.43125
1.44057
1.45218
1.46274
1.48395
2.97639
1.40279
1.40873
1.41537
1.4228
1.43125
1.44058
1.45215
1.46306
1.48032
2.90817
1.40279
1.40873
1.41537
1.4228
1.43125
1.44058
1.4521
1.46335
1.4781
2.8721
1.40279
1.40873
1.41537
1.4228
1.43125
1.44059
1.45204
1.46363
1.47663
2.87031
1.40279
1.40873
1.41537
1.4228
1.43125
1.44061
1.45196
1.46389
1.4757
2.87377
1.40279
1.40873
1.41537
1.4228
1.43125
1.44062
1.45187
1.46412
1.47517
2.87797
1.40279
1.40873
1.41538
1.4228
1.43125
1.44063
1.45181
1.46434
1.47485
2.88362
1.40279
1.40873
1.41538
1.4228
1.43125
1.44063
1.45177
1.46455
1.47468
2.88709
1.40279
1.40873
1.41538
1.4228
1.43126
1.44063
1.45176
1.46475
1.47461
2.8855
1.40279
1.40873
1.41538
1.42279
1.43127
1.44062
1.45176
1.46493
1.47461
2.88162
1.40279
1.40873
1.41538
1.42279
1.43127
1.44061
1.45177
1.46511
1.47464
2.87898
1.40279
1.40873
1.41538
1.42279
1.43127
1.4406
1.45178
1.46521
1.47466
2.87655
1.40279
1.40873
1.41538
1.42279
1.43128
1.4406
1.45179
1.46532
1.47463
2.87453
1.40279
1.40873
1.41538
1.42279
1.43128
1.4406
1.45179
1.46532
1.47463
2.87495
1.40279
1.40873
1.41538
1.42279
1.43127
1.4406
1.45178
1.46521
1.47466
2.87693
1.40279
1.40873
1.41538
1.42279
1.43127
1.44061
1.45177
1.46511
1.47464
2.87932
1.40279
1.40873
1.41538
1.42279
1.43127
1.44062
1.45176
1.46493
1.47461
2.88189
1.40279
1.40873
1.41538
1.4228
1.43126
1.44063
1.45176
1.46475
1.47461
2.88567
1.40279
1.40873
1.41538
1.4228
1.43125
1.44063
1.45177
1.46455
1.47468
2.88709
1.40279
1.40873
1.41538
1.4228
1.43125
1.44063
1.45181
1.46434
1.47485
2.88344
1.40279
1.40873
1.41537
1.4228
1.43125
1.44062
1.45187
1.46412
1.47517
2.8777
1.40279
1.40873
1.41537
1.4228
1.43125
1.44061
1.45196
1.46389
1.47571
2.87344
1.40279
1.40873
1.41537
1.4228
1.43125
1.44059
1.45204
1.46363
1.47663
2.86995
1.40279
1.40873
1.41537
1.4228
1.43125
1.44058
1.4521
1.46335
1.47811
2.87183
1.40279
1.40873
1.41537
1.4228
1.43125
1.44058
1.45215
1.46306
1.48033
2.908
1.40279
1.40873
1.41537
1.4228
1.43125
1.44057
1.45218
1.46274
1.48396
2.97629
1.40279
1.40873
1.41537
1.4228
1.43125
1.44058
1.45221
1.46243
1.4901
3.03588
1.40279
1.40873
1.41537
1.4228
1.43124
1.44058
1.45224
1.46215
1.50048
3.0943
1.40279
1.40873
1.41537
1.4228
1.43124
1.44058
1.45227
1.46192
1.51832
3.15386
1.40279
1.40873
1.41537
1.42281
1.43124
1.44059
1.4523
1.46173
1.54802
3.20752
1.40279
1.40873
1.41537
1.42281
1.43124
1.44058
1.45233
1.46159
1.59217
3.26317
1.40279
1.40873
1.41537
1.42281
1.43124
1.44058
1.45235
1.46151
1.64343
3.31113
1.40279
1.40874
1.41537
1.42281
1.43124
1.44058
1.45236
1.46146
1.6946
3.34597
3.65136
3.61672
3.58773
3.54537
3.49543
3.4466
3.41367
3.39363
3.40671
3.46088
3.65143
3.61588
3.58753
3.54341
3.49306
3.44432
3.41154
3.39211
3.40728
3.46401
3.64993
3.61263
3.58321
3.53572
3.48459
3.43824
3.40809
3.39387
3.4173
3.47961
3.64601
3.60508
3.56698
3.51691
3.46733
3.42938
3.40634
3.40456
3.44244
3.50894
3.62456
3.58022
3.53966
3.49244
3.45183
3.42759
3.41371
3.4288
3.48483
3.54757
3.59473
3.55178
3.514
3.47623
3.45124
3.43421
3.43552
3.47329
3.54169
3.58674
3.57749
3.53633
3.50411
3.47652
3.45871
3.45234
3.47886
3.54064
3.59901
3.61711
3.56779
3.52915
3.50415
3.4833
3.47539
3.4973
3.55094
3.61142
3.64024
3.64527
3.55827
3.52401
3.50987
3.50252
3.52525
3.57826
3.63989
3.67782
3.68264
3.67838
3.55317
3.52828
3.53652
3.56631
3.62519
3.68932
3.73314
3.73961
3.71711
3.69204
3.57709
3.57739
3.63273
3.70256
3.76187
3.78563
3.78259
3.76136
3.72864
3.69034
3.66362
3.69486
3.76526
3.80794
3.8213
3.81549
3.79435
3.75677
3.71379
3.66042
3.778
3.79446
3.82077
3.82891
3.81568
3.7931
3.76389
3.72207
3.67164
3.61184
3.87211
3.85942
3.84932
3.827
3.79925
3.76832
3.73259
3.68541
3.62949
3.57046
3.90262
3.87564
3.85109
3.82166
3.79156
3.75886
3.71587
3.66287
3.60532
3.54632
3.8715
3.85561
3.84189
3.81727
3.78759
3.74886
3.70155
3.64645
3.58876
3.52584
3.84182
3.82941
3.82085
3.79838
3.769
3.73005
3.68353
3.63004
3.57012
3.49874
3.81829
3.80202
3.79111
3.76889
3.74087
3.70378
3.65793
3.60327
3.53981
3.46333
3.79098
3.77227
3.75856
3.7357
3.70804
3.67155
3.62615
3.57057
3.50351
3.42232
3.75966
3.74038
3.72545
3.70195
3.67345
3.63673
3.59106
3.5338
3.46289
3.37705
)
;

boundaryField
{
    inlet
    {
        type            calculated;
        value           uniform 1.40001;
    }
    outlet
    {
        type            calculated;
        value           nonuniform List<scalar> 
100
(
2.10126
2.07804
2.05415
2.02443
1.98839
1.93646
1.8718
1.79984
1.72436
1.65276
1.58665
1.53288
1.49369
1.46442
1.4423
1.42552
1.41289
1.40408
1.39819
1.39485
2.20415
2.19331
2.18676
2.18378
2.18519
2.18515
2.18087
2.17725
2.1764
2.17547
2.17056
2.16339
2.15823
2.15385
2.15001
2.14664
2.13926
2.131
2.12294
2.11591
2.21545
2.19662
2.16705
2.15065
2.11273
2.04447
1.98757
1.94541
1.93108
1.91563
1.92066
1.93048
1.96112
2.00578
2.06337
2.11932
2.14752
2.16395
2.193
2.20784
2.10808
2.11782
2.12608
2.13446
2.14235
2.1493
2.15574
2.16221
2.16847
2.17567
2.18132
2.18454
2.18492
2.18762
2.19275
2.19755
2.19695
2.19643
2.20151
2.21342
1.39535
1.39903
1.4056
1.41537
1.42954
1.44791
1.47229
1.50396
1.5457
1.59915
1.65901
1.72086
1.78379
1.84568
1.90732
1.96384
2.0084
2.04221
2.06858
2.09187
)
;
    }
    triangle
    {
        type            calculated;
        value           nonuniform List<scalar> 
40
(
4.23015
4.07178
3.9643
3.86521
3.77559
3.69357
3.60378
3.5002
3.33718
3.13567
1.12512
1.10165
1.09084
1.09309
1.09609
1.09761
1.09544
1.10111
1.1076
1.1177
1.12714
1.13384
1.13727
1.13605
1.12935
1.12177
1.12501
1.13282
1.14506
1.16398
4.2306
4.07224
3.96481
3.86564
3.776
3.69372
3.60364
3.49884
3.334
3.13051
)
;
    }
    top
    {
        type            symmetryPlane;
    }
    bottom
    {
        type            symmetryPlane;
    }
    defaultFaces
    {
        type            empty;
    }
}


// ************************************************************************* //
