/*--------------------------------*- C++ -*----------------------------------*\
  =========                 |
  \\      /  F ield         | OpenFOAM: The Open Source CFD Toolbox
   \\    /   O peration     | Website:  https://openfoam.org
    \\  /    A nd           | Version:  8
     \\/     M anipulation  |
\*---------------------------------------------------------------------------*/
FoamFile
{
    version     2.0;
    format      ascii;
    class       volVectorField;
    location    "3.5";
    object      U;
}
// * * * * * * * * * * * * * * * * * * * * * * * * * * * * * * * * * * * * * //

dimensions      [0 1 -1 0 0 0 0];

internalField   nonuniform List<vector> 
2600
(
(0.765415 0.0742454 0)
(1.46308 0.236759 0)
(1.69953 0.465834 0)
(1.63761 0.36657 0)
(1.4554 0.135682 0)
(1.56022 0.06754 0)
(1.51951 0.106366 0)
(1.43469 0.0997721 0)
(1.42569 0.0653974 0)
(1.47312 -0.0038338 0)
(0.284729 -0.129547 0)
(1.09357 0.187604 0)
(1.59148 0.44649 0)
(1.61644 0.340177 0)
(1.43169 0.127135 0)
(1.52637 0.0626856 0)
(1.51287 0.0993337 0)
(1.42939 0.0963356 0)
(1.42125 0.0733893 0)
(1.46557 0.00105537 0)
(0.0699527 -0.154005 0)
(0.692126 0.0895783 0)
(1.39223 0.393402 0)
(1.56659 0.331233 0)
(1.36867 0.121942 0)
(1.43062 0.0203587 0)
(1.48977 0.0888178 0)
(1.42386 0.104327 0)
(1.41486 0.0783651 0)
(1.44796 0.0129117 0)
(-0.0077103 -0.19694 0)
(0.37189 0.00765462 0)
(1.12491 0.301499 0)
(1.46186 0.306407 0)
(1.22234 0.112849 0)
(1.23804 -0.00303947 0)
(1.42334 0.089547 0)
(1.41112 0.10698 0)
(1.40087 0.0729508 0)
(1.4116 0.00402656 0)
(-0.0704631 -0.190715 0)
(0.142025 -0.0402203 0)
(0.813901 0.227003 0)
(1.25179 0.280485 0)
(0.960271 0.106609 0)
(0.930344 0.00213157 0)
(1.28575 0.0687697 0)
(1.38401 0.0944466 0)
(1.37511 0.0639977 0)
(1.35339 -0.00203733 0)
(-0.124131 -0.193365 0)
(-0.0428794 -0.065792 0)
(0.484087 0.15227 0)
(0.907786 0.265465 0)
(0.58741 0.145364 0)
(0.568636 -0.0113918 0)
(1.07859 0.034232 0)
(1.33613 0.0788809 0)
(1.32708 0.0806378 0)
(1.27289 0.00837199 0)
(-0.173351 -0.181476 0)
(-0.209671 -0.0768699 0)
(0.134158 0.116062 0)
(0.459257 0.299911 0)
(0.197801 0.128938 0)
(0.292225 -0.0378555 0)
(0.839046 -0.0216035 0)
(1.24717 0.0890054 0)
(1.24421 0.0865272 0)
(1.18185 0.0160816 0)
(-0.21652 -0.167141 0)
(-0.352581 -0.0802495 0)
(-0.193101 0.0914257 0)
(0.0161771 0.279002 0)
(-0.0550493 0.154091 0)
(0.17058 -0.0711267 0)
(0.618716 -0.0584628 0)
(1.10349 0.0603642 0)
(1.12905 0.0825067 0)
(1.10111 0.014825 0)
(-0.240803 -0.132476 0)
(-0.453558 -0.0878535 0)
(-0.437679 0.0861808 0)
(-0.302675 0.265282 0)
(-0.131962 0.120305 0)
(0.162743 -0.128256 0)
(0.484543 -0.0888832 0)
(0.915372 0.0573987 0)
(1.01021 0.0878527 0)
(1.0503 0.029106 0)
(-0.258917 -0.0947888 0)
(-0.501208 -0.0821359 0)
(-0.556376 0.0662229 0)
(-0.427514 0.249303 0)
(-0.107687 0.0860649 0)
(0.26282 -0.172486 0)
(0.452454 -0.12992 0)
(0.746482 0.0165607 0)
(0.916234 0.0738695 0)
(1.0342 0.0152681 0)
(-0.262487 -0.0515649 0)
(-0.508429 -0.0531102 0)
(-0.574566 0.0778691 0)
(-0.424646 0.249244 0)
(0.052774 0.0842957 0)
(0.496991 -0.17234 0)
(0.47952 -0.160934 0)
(0.657463 0.017079 0)
(0.866928 0.0741973 0)
(1.04032 0.00478238 0)
(-0.253303 -0.0113949 0)
(-0.48657 -0.0184119 0)
(-0.555436 0.0954508 0)
(-0.352855 0.24557 0)
(0.376871 0.0389944 0)
(0.796531 -0.21139 0)
(0.592308 -0.139107 0)
(0.648473 -0.00453191 0)
(0.856881 0.0587153 0)
(1.07727 0.00590949 0)
(-0.242926 0.0286004 0)
(-0.420455 0.000600927 0)
(-0.486834 0.0953501 0)
(-0.153464 0.201901 0)
(0.780179 -0.0231415 0)
(1.06793 -0.198197 0)
(0.779237 -0.13353 0)
(0.688953 -0.0204758 0)
(0.876675 0.0361315 0)
(1.15274 -0.00222654 0)
(-0.217936 0.0624987 0)
(-0.309948 0.00563009 0)
(-0.322652 0.0808744 0)
(0.17036 0.111212 0)
(1.12853 -0.122112 0)
(1.25469 -0.208407 0)
(0.977831 -0.115995 0)
(0.794426 0.00613271 0)
(0.962981 0.0337796 0)
(1.25414 -0.00639495 0)
(-0.179471 0.0897822 0)
(-0.1807 0.00181021 0)
(-0.069804 0.044384 0)
(0.55419 -0.00904324 0)
(1.38038 -0.16703 0)
(1.36105 -0.215 0)
(1.13468 -0.0877055 0)
(0.955121 -0.0144835 0)
(1.10735 0.00436713 0)
(1.35325 -0.01766 0)
(-0.130236 0.105675 0)
(-0.0335412 -0.00378865 0)
(0.246933 0.00270192 0)
(0.942012 -0.085932 0)
(1.54873 -0.223097 0)
(1.40876 -0.226927 0)
(1.23509 -0.101319 0)
(1.12442 0.0102306 0)
(1.26023 0.000133545 0)
(1.42797 -0.0140165 0)
(-0.0755073 0.13215 0)
(0.166165 -0.0131911 0)
(0.616051 -0.0566065 0)
(1.27605 -0.151215 0)
(1.65556 -0.259081 0)
(1.42421 -0.219188 0)
(1.28822 -0.0960568 0)
(1.25864 -0.0160837 0)
(1.37261 -0.0143237 0)
(1.47281 -0.0273233 0)
(0.0214046 0.113212 0)
(0.465507 -0.0721521 0)
(1.02174 -0.1158 0)
(1.51719 -0.235221 0)
(1.7026 -0.293141 0)
(1.42597 -0.210973 0)
(1.31086 -0.0825308 0)
(1.33928 0.00269399 0)
(1.43442 -0.0178105 0)
(1.49642 -0.0312189 0)
(0.2539 0.111189 0)
(0.886371 -0.117836 0)
(1.38322 -0.158477 0)
(1.65146 -0.304981 0)
(1.71677 -0.322013 0)
(1.42539 -0.214365 0)
(1.32262 -0.0884955 0)
(1.38074 0.00595439 0)
(1.45755 -0.0135889 0)
(1.50659 -0.0192584 0)
(0.740345 -0.067149 0)
(1.29865 -0.185591 0)
(1.59962 -0.207865 0)
(1.7018 -0.351471 0)
(1.71575 -0.347631 0)
(1.43177 -0.216618 0)
(1.32789 -0.0983148 0)
(1.40061 -0.0139461 0)
(1.46283 -0.0248974 0)
(1.51126 -0.0153498 0)
(1.33156 -0.0119565 0)
(1.57224 -0.216381 0)
(1.683 -0.236483 0)
(1.71789 -0.372381 0)
(1.71701 -0.380681 0)
(1.45055 -0.227 0)
(1.33678 -0.103511 0)
(1.41222 -0.0244917 0)
(1.46504 -0.0334413 0)
(1.51563 -0.0174883 0)
(1.47542 0.119245 0)
(1.68236 -0.212148 0)
(1.70114 -0.241757 0)
(1.72321 -0.381986 0)
(1.71836 -0.414872 0)
(1.47008 -0.24318 0)
(1.34799 -0.105278 0)
(1.41947 -0.0312506 0)
(1.47019 -0.0362215 0)
(1.52123 -0.0203747 0)
(1.48753 0.142942 0)
(1.68732 -0.193993 0)
(1.70165 -0.25446 0)
(1.72102 -0.390647 0)
(1.72377 -0.434484 0)
(1.49052 -0.261267 0)
(1.36503 -0.106226 0)
(1.43131 -0.0358046 0)
(1.47764 -0.0357997 0)
(1.52595 -0.0210962 0)
(1.44792 0.178333 0)
(1.64905 -0.154239 0)
(1.70264 -0.248571 0)
(1.7202 -0.378567 0)
(1.72913 -0.440349 0)
(1.5133 -0.278707 0)
(1.3862 -0.11579 0)
(1.44522 -0.0444414 0)
(1.48633 -0.0350488 0)
(1.52973 -0.0181768 0)
(1.40812 0.189575 0)
(1.6091 -0.130061 0)
(1.69655 -0.258425 0)
(1.72204 -0.377242 0)
(1.72869 -0.446716 0)
(1.53947 -0.295742 0)
(1.40795 -0.127945 0)
(1.45847 -0.0528801 0)
(1.49459 -0.0358159 0)
(1.53342 -0.0146293 0)
(1.37447 0.195513 0)
(1.58157 -0.10386 0)
(1.68493 -0.254426 0)
(1.72344 -0.381328 0)
(1.72261 -0.452059 0)
(1.57036 -0.316672 0)
(1.43095 -0.13939 0)
(1.46756 -0.0608085 0)
(1.50136 -0.0357073 0)
(1.53608 -0.0120006 0)
(1.34784 0.199394 0)
(1.56247 -0.0740829 0)
(1.66732 -0.260843 0)
(1.72532 -0.393453 0)
(1.71303 -0.464066 0)
(1.5956 -0.339737 0)
(1.45395 -0.151067 0)
(1.47728 -0.064936 0)
(1.5063 -0.0338317 0)
(1.53797 -0.0113812 0)
(1.32802 0.198157 0)
(1.53891 -0.040303 0)
(1.65188 -0.242967 0)
(1.72609 -0.399615 0)
(1.702 -0.475341 0)
(1.61941 -0.367407 0)
(1.4742 -0.16771 0)
(1.48392 -0.0706768 0)
(1.50871 -0.031856 0)
(1.53799 -0.0103022 0)
(1.30976 0.198709 0)
(1.51814 -0.0219054 0)
(1.63325 -0.217529 0)
(1.71612 -0.393782 0)
(1.69953 -0.481856 0)
(1.63845 -0.395178 0)
(1.49115 -0.187455 0)
(1.48679 -0.076502 0)
(1.51 -0.0296681 0)
(1.53709 -0.00710889 0)
(1.29295 0.19618 0)
(1.49477 -0.00371643 0)
(1.61343 -0.195348 0)
(1.69987 -0.370038 0)
(1.69617 -0.483382 0)
(1.6538 -0.419205 0)
(1.51015 -0.208502 0)
(1.48649 -0.0819443 0)
(1.5104 -0.0299231 0)
(1.53539 -0.00413121 0)
(1.27708 0.193206 0)
(1.47222 0.0108003 0)
(1.59647 -0.182203 0)
(1.68328 -0.350146 0)
(1.69353 -0.473499 0)
(1.66367 -0.434512 0)
(1.53651 -0.231082 0)
(1.48512 -0.0877175 0)
(1.51104 -0.0321277 0)
(1.53508 -0.00333016 0)
(1.26205 0.187746 0)
(1.44909 0.0245532 0)
(1.57714 -0.160578 0)
(1.66683 -0.332131 0)
(1.68873 -0.459975 0)
(1.66738 -0.44227 0)
(1.56124 -0.252681 0)
(1.48377 -0.0926062 0)
(1.51369 -0.0353306 0)
(1.53651 -0.00372898 0)
(1.24822 0.182578 0)
(1.4284 0.0330701 0)
(1.55747 -0.140222 0)
(1.65072 -0.312997 0)
(1.68463 -0.448807 0)
(1.67211 -0.44077 0)
(1.58657 -0.276039 0)
(1.48515 -0.0974519 0)
(1.51742 -0.0378057 0)
(1.53858 -0.00261162 0)
(1.23531 0.176812 0)
(1.40839 0.0404435 0)
(1.53758 -0.121567 0)
(1.63389 -0.289473 0)
(1.68009 -0.434453 0)
(1.67227 -0.438692 0)
(1.60742 -0.299089 0)
(1.49297 -0.105219 0)
(1.5185 -0.0391539 0)
(1.54145 -0.000353738 0)
(1.22368 0.171307 0)
(1.39033 0.0453284 0)
(1.51906 -0.107538 0)
(1.61673 -0.267059 0)
(1.67482 -0.418303 0)
(1.66998 -0.436692 0)
(1.62447 -0.32124 0)
(1.50584 -0.115499 0)
(1.52004 -0.040752 0)
(1.54546 0.00224021 0)
(1.21309 0.165595 0)
(1.37338 0.0497804 0)
(1.50153 -0.095454 0)
(1.59951 -0.247652 0)
(1.66591 -0.396484 0)
(1.66877 -0.433788 0)
(1.63755 -0.339101 0)
(1.52143 -0.127155 0)
(1.52312 -0.0431147 0)
(1.54952 0.00509586 0)
(1.20361 0.16005 0)
(1.35779 0.052772 0)
(1.485 -0.0848384 0)
(1.58346 -0.231188 0)
(1.65518 -0.376554 0)
(1.66739 -0.429212 0)
(1.64849 -0.353042 0)
(1.5468 -0.142133 0)
(1.52836 -0.0444813 0)
(1.55263 0.00748515 0)
(1.1951 0.154763 0)
(1.34341 0.0549229 0)
(1.46841 -0.0741678 0)
(1.56856 -0.215822 0)
(1.64294 -0.357043 0)
(1.66462 -0.422933 0)
(1.6585 -0.363934 0)
(1.56828 -0.158306 0)
(1.53397 -0.0459549 0)
(1.55574 0.00945306 0)
(1.18724 0.149578 0)
(1.33003 0.0564086 0)
(1.45343 -0.0660155 0)
(1.55283 -0.199272 0)
(1.6322 -0.340481 0)
(1.66026 -0.416368 0)
(1.66848 -0.373685 0)
(1.59001 -0.178278 0)
(1.53978 -0.0480727 0)
(1.55846 0.0117904 0)
(1.18029 0.144805 0)
(1.31765 0.0577776 0)
(1.43875 -0.0576067 0)
(1.53873 -0.185835 0)
(1.61954 -0.319457 0)
(1.65595 -0.409808 0)
(1.67708 -0.383524 0)
(1.60575 -0.199145 0)
(1.54546 -0.0493738 0)
(1.56287 0.0154411 0)
(0.364073 0.0855355 0)
(0.457457 0.135625 0)
(0.507762 0.209601 0)
(0.56109 0.261843 0)
(0.605236 0.303131 0)
(0.649947 0.334397 0)
(0.698691 0.364428 0)
(0.760662 0.394456 0)
(0.845063 0.435822 0)
(0.999422 0.474526 0)
(0.397213 0.118713 0)
(0.465333 0.156183 0)
(0.497647 0.217548 0)
(0.547543 0.263773 0)
(0.592823 0.30346 0)
(0.64155 0.3342 0)
(0.694077 0.364637 0)
(0.759164 0.395201 0)
(0.848083 0.43639 0)
(0.997625 0.465551 0)
(0.459153 0.110351 0)
(0.504835 0.137033 0)
(0.520543 0.18482 0)
(0.560834 0.225113 0)
(0.600463 0.266033 0)
(0.649257 0.300088 0)
(0.703826 0.33486 0)
(0.772432 0.3679 0)
(0.86687 0.408835 0)
(1.02361 0.425421 0)
(0.515055 0.130737 0)
(0.54591 0.15516 0)
(0.555778 0.192742 0)
(0.592354 0.221523 0)
(0.625888 0.257017 0)
(0.672243 0.288429 0)
(0.724844 0.322149 0)
(0.793198 0.352097 0)
(0.886928 0.387128 0)
(1.03799 0.389847 0)
(0.566688 0.128464 0)
(0.590504 0.146842 0)
(0.599882 0.179379 0)
(0.632938 0.204908 0)
(0.658862 0.238118 0)
(0.699949 0.266607 0)
(0.747267 0.299293 0)
(0.812623 0.326645 0)
(0.90465 0.360745 0)
(1.05042 0.358765 0)
(0.624431 0.145463 0)
(0.643682 0.162739 0)
(0.650926 0.191454 0)
(0.678883 0.214043 0)
(0.700653 0.243088 0)
(0.738684 0.266531 0)
(0.782381 0.294512 0)
(0.844293 0.315967 0)
(0.930745 0.342088 0)
(1.06699 0.337113 0)
(0.680557 0.159243 0)
(0.696813 0.174198 0)
(0.703121 0.19814 0)
(0.727272 0.217033 0)
(0.746177 0.242791 0)
(0.78121 0.263421 0)
(0.821172 0.289005 0)
(0.87933 0.307308 0)
(0.958906 0.327279 0)
(1.0835 0.322147 0)
(0.729178 0.170739 0)
(0.742973 0.183698 0)
(0.748456 0.204432 0)
(0.769623 0.22208 0)
(0.786943 0.245671 0)
(0.819632 0.263319 0)
(0.856728 0.28542 0)
(0.91126 0.300128 0)
(0.984406 0.314562 0)
(1.09563 0.307373 0)
(0.770122 0.180422 0)
(0.781963 0.191422 0)
(0.786628 0.208842 0)
(0.805145 0.22393 0)
(0.821085 0.244291 0)
(0.8512 0.259166 0)
(0.885515 0.278555 0)
(0.936395 0.290569 0)
(1.00317 0.300828 0)
(1.10195 0.293223 0)
(0.804311 0.188349 0)
(0.81469 0.197691 0)
(0.818669 0.212287 0)
(0.834822 0.225439 0)
(0.849539 0.243131 0)
(0.87709 0.255525 0)
(0.908806 0.271642 0)
(0.9562 0.281497 0)
(1.01689 0.288254 0)
(1.10419 0.279558 0)
(0.832572 0.195152 0)
(0.841918 0.203017 0)
(0.845463 0.21514 0)
(0.859606 0.226201 0)
(0.873279 0.241053 0)
(0.898407 0.251178 0)
(0.927904 0.264631 0)
(0.971214 0.271517 0)
(1.02742 0.276602 0)
(1.10578 0.267275 0)
(0.856004 0.200514 0)
(0.864579 0.207033 0)
(0.867845 0.216933 0)
(0.880303 0.226056 0)
(0.893139 0.238417 0)
(0.91603 0.246223 0)
(0.943408 0.257096 0)
(0.983778 0.263103 0)
(1.03474 0.264583 0)
(1.1048 0.254628 0)
(0.875272 0.204807 0)
(0.883212 0.210145 0)
(0.88634 0.218119 0)
(0.897476 0.225352 0)
(0.909687 0.235231 0)
(0.93069 0.241453 0)
(0.956027 0.249533 0)
(0.993701 0.253934 0)
(1.04025 0.253375 0)
(1.10361 0.243245 0)
(0.890927 0.208041 0)
(0.89841 0.212093 0)
(0.901556 0.21818 0)
(0.911632 0.223572 0)
(0.923254 0.231394 0)
(0.942502 0.235749 0)
(0.966362 0.242269 0)
(1.00073 0.244127 0)
(1.04344 0.241928 0)
(1.10114 0.231892 0)
(0.903945 0.20998 0)
(0.911039 0.212831 0)
(0.914308 0.217179 0)
(0.923504 0.221132 0)
(0.934603 0.227095 0)
(0.952545 0.230538 0)
(0.974861 0.234279 0)
(1.0067 0.234804 0)
(1.04621 0.231503 0)
(1.099 0.221635 0)
(0.915431 0.211625 0)
(0.922116 0.213623 0)
(0.92575 0.216608 0)
(0.934116 0.21873 0)
(0.94469 0.222316 0)
(0.960835 0.223751 0)
(0.981531 0.225588 0)
(1.01105 0.225245 0)
(1.0478 0.221272 0)
(1.09622 0.211613 0)
(0.926172 0.212321 0)
(0.93241 0.212707 0)
(0.936222 0.214178 0)
(0.943701 0.215147 0)
(0.953568 0.216985 0)
(0.96836 0.21736 0)
(0.987651 0.217646 0)
(1.01496 0.216344 0)
(1.0493 0.211904 0)
(1.09404 0.202603 0)
(0.936148 0.211964 0)
(0.941977 0.210986 0)
(0.945204 0.211007 0)
(0.951912 0.210885 0)
(0.961216 0.211295 0)
(0.975029 0.210754 0)
(0.99314 0.209806 0)
(1.01846 0.207674 0)
(1.05034 0.202757 0)
(1.09169 0.193909 0)
(0.945397 0.211246 0)
(0.950999 0.209414 0)
(0.953485 0.208207 0)
(0.959441 0.206656 0)
(0.968118 0.20564 0)
(0.981088 0.204224 0)
(0.998261 0.202414 0)
(1.02188 0.199661 0)
(1.0517 0.194559 0)
(1.0898 0.186089 0)
(0.954206 0.209905 0)
(0.959457 0.207188 0)
(0.961213 0.204857 0)
(0.966695 0.202232 0)
(0.974459 0.199865 0)
(0.986503 0.197672 0)
(1.00271 0.195219 0)
(1.02481 0.192019 0)
(1.0528 0.186874 0)
(1.08801 0.178848 0)
(2.20396 1.35909e-07 0)
(2.19474 -5.17128e-07 0)
(2.18464 1.0943e-06 0)
(2.17351 -2.41716e-06 0)
(2.16122 3.93987e-06 0)
(2.14785 -9.07691e-06 0)
(2.13152 1.35197e-05 0)
(2.12063 -2.67137e-05 0)
(1.3747 0.0143436 0)
(0.409769 0.022533 0)
(2.20396 3.94097e-07 0)
(2.19474 -1.49742e-06 0)
(2.18464 3.17071e-06 0)
(2.17351 -6.87243e-06 0)
(2.16122 1.11881e-05 0)
(2.14785 -2.46767e-05 0)
(2.13152 4.08823e-05 0)
(2.12063 -9.92798e-05 0)
(1.37357 0.0457405 0)
(0.446059 0.0561384 0)
(2.20396 6.50803e-07 0)
(2.19474 -2.46496e-06 0)
(2.18464 5.23182e-06 0)
(2.17351 -1.12979e-05 0)
(2.16122 1.83984e-05 0)
(2.14785 -3.98082e-05 0)
(2.13153 6.37572e-05 0)
(2.12065 -0.000146501 0)
(1.39293 0.0796358 0)
(0.500355 0.0802589 0)
(2.20396 9.03052e-07 0)
(2.19474 -3.40236e-06 0)
(2.18464 7.23498e-06 0)
(2.17351 -1.55344e-05 0)
(2.16122 2.53557e-05 0)
(2.14785 -5.36717e-05 0)
(2.13154 8.633e-05 0)
(2.12063 -0.00024443 0)
(1.42979 0.106105 0)
(0.564313 0.104196 0)
(2.20396 1.14849e-06 0)
(2.19474 -4.2977e-06 0)
(2.18464 9.16063e-06 0)
(2.17351 -1.95357e-05 0)
(2.16122 3.19322e-05 0)
(2.14786 -6.54838e-05 0)
(2.13155 0.000103533 0)
(2.1205 -0.000370665 0)
(1.47451 0.12793 0)
(0.631392 0.12501 0)
(2.20396 1.38529e-06 0)
(2.19474 -5.14175e-06 0)
(2.18464 1.09892e-05 0)
(2.17351 -2.32589e-05 0)
(2.16121 3.81808e-05 0)
(2.14786 -7.72253e-05 0)
(2.13155 0.000121476 0)
(2.12027 -0.000383301 0)
(1.52313 0.144669 0)
(0.690642 0.145575 0)
(2.20396 1.61184e-06 0)
(2.19474 -5.9276e-06 0)
(2.18464 1.27041e-05 0)
(2.17351 -2.66464e-05 0)
(2.16121 4.38246e-05 0)
(2.14787 -8.68299e-05 0)
(2.13155 0.000141595 0)
(2.12008 -0.00045264 0)
(1.57049 0.154923 0)
(0.742683 0.162267 0)
(2.20396 1.82672e-06 0)
(2.19474 -6.65082e-06 0)
(2.18464 1.42965e-05 0)
(2.17352 -2.97114e-05 0)
(2.16121 4.90243e-05 0)
(2.14787 -9.52826e-05 0)
(2.13156 0.000159177 0)
(2.11997 -0.000472688 0)
(1.61381 0.16248 0)
(0.787392 0.176711 0)
(2.20396 2.02876e-06 0)
(2.19474 -7.30862e-06 0)
(2.18464 1.57558e-05 0)
(2.17352 -3.24294e-05 0)
(2.16121 5.37023e-05 0)
(2.14788 -0.00010294 0)
(2.13156 0.000177679 0)
(2.1199 -0.000487934 0)
(1.65335 0.166861 0)
(0.825322 0.188768 0)
(2.20396 2.21705e-06 0)
(2.19474 -7.90066e-06 0)
(2.18464 1.70807e-05 0)
(2.17352 -3.48199e-05 0)
(2.16121 5.78712e-05 0)
(2.14789 -0.000109225 0)
(2.13156 0.000193019 0)
(2.11985 -0.000494606 0)
(1.68969 0.169446 0)
(0.857358 0.198389 0)
(2.20396 2.39091e-06 0)
(2.19475 -8.42776e-06 0)
(2.18464 1.82703e-05 0)
(2.17352 -3.68991e-05 0)
(2.16121 6.16024e-05 0)
(2.14789 -0.000114949 0)
(2.13156 0.000206733 0)
(2.11982 -0.000487829 0)
(1.72367 0.170402 0)
(0.884236 0.206695 0)
(2.20396 2.54996e-06 0)
(2.19475 -8.89227e-06 0)
(2.18464 1.93276e-05 0)
(2.17352 -3.86834e-05 0)
(2.16121 6.48555e-05 0)
(2.1479 -0.000119523 0)
(2.13156 0.00021783 0)
(2.11979 -0.000482478 0)
(1.75619 0.16989 0)
(0.907366 0.213555 0)
(2.20396 2.69404e-06 0)
(2.19475 -9.29733e-06 0)
(2.18464 2.0259e-05 0)
(2.17352 -4.0206e-05 0)
(2.16121 6.77218e-05 0)
(2.1479 -0.000123399 0)
(2.13156 0.000226763 0)
(2.11976 -0.000473258 0)
(1.78842 0.168035 0)
(0.927701 0.219429 0)
(2.20396 2.82324e-06 0)
(2.19475 -9.64659e-06 0)
(2.18464 2.10705e-05 0)
(2.17353 -4.14852e-05 0)
(2.16121 7.01885e-05 0)
(2.1479 -0.000126429 0)
(2.13157 0.000233811 0)
(2.11973 -0.000463463 0)
(1.82267 0.165056 0)
(0.945558 0.224927 0)
(2.20396 2.93785e-06 0)
(2.19475 -9.94415e-06 0)
(2.18464 2.17712e-05 0)
(2.17353 -4.25519e-05 0)
(2.16121 7.23158e-05 0)
(2.14791 -0.000128811 0)
(2.13157 0.000239229 0)
(2.11969 -0.000452481 0)
(1.85881 0.161313 0)
(0.962194 0.229413 0)
(2.20396 3.0383e-06 0)
(2.19475 -1.0194e-05 0)
(2.18464 2.23689e-05 0)
(2.17353 -4.34266e-05 0)
(2.16121 7.41183e-05 0)
(2.14791 -0.000130604 0)
(2.13158 0.000243491 0)
(2.11966 -0.000440154 0)
(1.89641 0.156462 0)
(0.978585 0.233055 0)
(2.20396 3.12518e-06 0)
(2.19475 -1.04003e-05 0)
(2.18464 2.28725e-05 0)
(2.17353 -4.41341e-05 0)
(2.16121 7.56371e-05 0)
(2.14791 -0.000131924 0)
(2.13159 0.000246495 0)
(2.11962 -0.00042716 0)
(1.93518 0.15023 0)
(0.995274 0.236257 0)
(2.20396 3.19911e-06 0)
(2.19475 -1.05668e-05 0)
(2.18464 2.32899e-05 0)
(2.17353 -4.46943e-05 0)
(2.16121 7.69003e-05 0)
(2.14791 -0.000132967 0)
(2.13159 0.000249132 0)
(2.11958 -0.000412726 0)
(1.97453 0.142207 0)
(1.0126 0.238715 0)
(2.20396 3.26098e-06 0)
(2.19475 -1.06976e-05 0)
(2.18464 2.36296e-05 0)
(2.17353 -4.513e-05 0)
(2.16121 7.79431e-05 0)
(2.14791 -0.000133711 0)
(2.1316 0.000250584 0)
(2.11953 -0.000397732 0)
(2.01313 0.132087 0)
(1.03067 0.240802 0)
(2.20396 3.31115e-06 0)
(2.19475 -1.07952e-05 0)
(2.18464 2.38965e-05 0)
(2.17353 -4.54567e-05 0)
(2.16121 7.8817e-05 0)
(2.14791 -0.000134334 0)
(2.13161 0.000253291 0)
(2.11949 -0.000382159 0)
(2.05086 0.119201 0)
(1.04986 0.242425 0)
(2.20396 -3.31126e-06 0)
(2.19475 1.07952e-05 0)
(2.18464 -2.38966e-05 0)
(2.17353 4.54577e-05 0)
(2.16121 -7.88205e-05 0)
(2.14791 0.000134339 0)
(2.13161 -0.00025331 0)
(2.11949 0.000382018 0)
(2.05095 -0.119013 0)
(1.04982 -0.242501 0)
(2.20396 -3.2611e-06 0)
(2.19475 1.06977e-05 0)
(2.18464 -2.36299e-05 0)
(2.17353 4.51313e-05 0)
(2.16121 -7.79471e-05 0)
(2.14791 0.000133719 0)
(2.1316 -0.000250616 0)
(2.11953 0.000397575 0)
(2.01329 -0.131901 0)
(1.03063 -0.240887 0)
(2.20396 -3.19926e-06 0)
(2.19475 1.0567e-05 0)
(2.18464 -2.32906e-05 0)
(2.17353 4.46961e-05 0)
(2.16121 -7.69053e-05 0)
(2.14791 0.000132973 0)
(2.13159 -0.00024916 0)
(2.11958 0.000412555 0)
(1.97476 -0.142028 0)
(1.01254 -0.238805 0)
(2.20396 -3.12536e-06 0)
(2.19475 1.04006e-05 0)
(2.18464 -2.28737e-05 0)
(2.17353 4.41367e-05 0)
(2.16121 -7.56437e-05 0)
(2.14791 0.000131931 0)
(2.13159 -0.000246535 0)
(2.11962 0.000426973 0)
(1.93548 -0.150072 0)
(0.995209 -0.236346 0)
(2.20396 -3.03852e-06 0)
(2.19475 1.01945e-05 0)
(2.18464 -2.23706e-05 0)
(2.17353 4.34302e-05 0)
(2.16121 -7.41268e-05 0)
(2.14791 0.000130612 0)
(2.13158 -0.000243532 0)
(2.11965 0.000439965 0)
(1.89675 -0.156333 0)
(0.978509 -0.233141 0)
(2.20396 -2.93811e-06 0)
(2.19475 9.94479e-06 0)
(2.18464 -2.17736e-05 0)
(2.17353 4.25568e-05 0)
(2.16121 -7.23268e-05 0)
(2.14791 0.000128819 0)
(2.13157 -0.000239275 0)
(2.11969 0.000452296 0)
(1.85918 -0.161216 0)
(0.962107 -0.229496 0)
(2.20396 -2.82355e-06 0)
(2.19475 9.64745e-06 0)
(2.18464 -2.10736e-05 0)
(2.17353 4.14916e-05 0)
(2.16121 -7.02021e-05 0)
(2.1479 0.000126441 0)
(2.13157 -0.000233861 0)
(2.11973 0.000463286 0)
(1.82306 -0.164992 0)
(0.94546 -0.224998 0)
(2.20396 -2.69439e-06 0)
(2.19475 9.29843e-06 0)
(2.18464 -2.02628e-05 0)
(2.17352 4.02139e-05 0)
(2.16121 -6.77379e-05 0)
(2.1479 0.000123413 0)
(2.13156 -0.000226816 0)
(2.11976 0.000473107 0)
(1.78883 -0.167999 0)
(0.927587 -0.219497 0)
(2.20396 -2.55035e-06 0)
(2.19475 8.89362e-06 0)
(2.18464 -1.93322e-05 0)
(2.17352 3.86929e-05 0)
(2.16121 -6.48739e-05 0)
(2.1479 0.000119541 0)
(2.13156 -0.000217886 0)
(2.11979 0.000482347 0)
(1.7566 -0.169888 0)
(0.907247 -0.213612 0)
(2.20396 -2.39135e-06 0)
(2.19475 8.42937e-06 0)
(2.18464 -1.82755e-05 0)
(2.17352 3.69101e-05 0)
(2.16121 -6.16227e-05 0)
(2.14789 0.000114969 0)
(2.13156 -0.000206787 0)
(2.11982 0.000487708 0)
(1.72406 -0.17043 0)
(0.884114 -0.20674 0)
(2.20396 -2.21753e-06 0)
(2.19474 7.90252e-06 0)
(2.18464 -1.70866e-05 0)
(2.17352 3.48324e-05 0)
(2.16121 -5.78935e-05 0)
(2.14789 0.000109249 0)
(2.13156 -0.00019307 0)
(2.11985 0.00049454 0)
(1.69004 -0.1695 0)
(0.85723 -0.198423 0)
(2.20396 -2.02929e-06 0)
(2.19474 7.31074e-06 0)
(2.18464 -1.57623e-05 0)
(2.17352 3.24435e-05 0)
(2.16121 -5.37264e-05 0)
(2.14788 0.000102964 0)
(2.13156 -0.000177715 0)
(2.1199 0.000487856 0)
(1.65364 -0.166934 0)
(0.825187 -0.188791 0)
(2.20396 -1.82729e-06 0)
(2.19474 6.65321e-06 0)
(2.18464 -1.43035e-05 0)
(2.17352 2.97271e-05 0)
(2.16121 -4.90511e-05 0)
(2.14787 9.5316e-05 0)
(2.13156 -0.000159221 0)
(2.11997 0.000472629 0)
(1.61404 -0.162565 0)
(0.787252 -0.176721 0)
(2.20396 -1.61245e-06 0)
(2.19474 5.93026e-06 0)
(2.18464 -1.27118e-05 0)
(2.17351 2.6664e-05 0)
(2.16121 -4.38544e-05 0)
(2.14787 8.68634e-05 0)
(2.13155 -0.000141614 0)
(2.12008 0.000452537 0)
(1.57067 -0.155014 0)
(0.742537 -0.162268 0)
(2.20396 -1.38594e-06 0)
(2.19474 5.14465e-06 0)
(2.18464 -1.09974e-05 0)
(2.17351 2.32777e-05 0)
(2.16121 -3.82125e-05 0)
(2.14786 7.72707e-05 0)
(2.13155 -0.000121552 0)
(2.12027 0.000383164 0)
(1.52327 -0.144756 0)
(0.690493 -0.145556 0)
(2.20396 -1.14918e-06 0)
(2.19474 4.30083e-06 0)
(2.18464 -9.16932e-06 0)
(2.17351 1.95569e-05 0)
(2.16122 -3.19699e-05 0)
(2.14786 6.55398e-05 0)
(2.13155 -0.00010355 0)
(2.1205 0.000370647 0)
(1.47461 -0.128017 0)
(0.631232 -0.125 0)
(2.20396 -9.03771e-07 0)
(2.19474 3.40567e-06 0)
(2.18464 -7.24395e-06 0)
(2.17351 1.55559e-05 0)
(2.16122 -2.53899e-05 0)
(2.14785 5.37052e-05 0)
(2.13154 -8.6438e-05 0)
(2.12063 0.000244287 0)
(1.42985 -0.106187 0)
(0.564176 -0.104153 0)
(2.20396 -6.51545e-07 0)
(2.19474 2.46843e-06 0)
(2.18464 -5.24121e-06 0)
(2.17351 1.13217e-05 0)
(2.16122 -1.84453e-05 0)
(2.14785 3.99523e-05 0)
(2.13153 -6.39248e-05 0)
(2.12065 0.000146026 0)
(1.39296 -0.0797205 0)
(0.500229 -0.0802312 0)
(2.20396 -3.94853e-07 0)
(2.19474 1.50099e-06 0)
(2.18464 -3.18013e-06 0)
(2.17351 6.89515e-06 0)
(2.16122 -1.12205e-05 0)
(2.14785 2.46565e-05 0)
(2.13153 -4.06066e-05 0)
(2.12063 9.98285e-05 0)
(1.37358 -0.0458252 0)
(0.445958 -0.0560903 0)
(2.20396 -1.36676e-07 0)
(2.19474 5.20767e-07 0)
(2.18464 -1.10395e-06 0)
(2.17351 2.44131e-06 0)
(2.16122 -3.9827e-06 0)
(2.14785 9.21731e-06 0)
(2.13152 -1.40324e-05 0)
(2.12064 2.7968e-05 0)
(1.37474 -0.0144281 0)
(0.409725 -0.0224465 0)
(0.953988 -0.209964 0)
(0.959106 -0.207277 0)
(0.960796 -0.20498 0)
(0.966202 -0.202385 0)
(0.973928 -0.200039 0)
(0.985948 -0.197869 0)
(1.0021 -0.195397 0)
(1.02419 -0.192215 0)
(1.05223 -0.186954 0)
(1.0877 -0.178778 0)
(0.945136 -0.2113 0)
(0.950609 -0.209487 0)
(0.953041 -0.208311 0)
(0.958954 -0.206793 0)
(0.967595 -0.205791 0)
(0.980544 -0.204396 0)
(0.99767 -0.20254 0)
(1.02131 -0.199788 0)
(1.05123 -0.194566 0)
(1.08959 -0.18595 0)
(0.935851 -0.212011 0)
(0.941571 -0.21104 0)
(0.94476 -0.211085 0)
(0.95144 -0.210997 0)
(0.960703 -0.211421 0)
(0.974505 -0.210904 0)
(0.992585 -0.209879 0)
(1.01795 -0.207716 0)
(1.04996 -0.202677 0)
(1.09161 -0.19374 0)
(0.925852 -0.212351 0)
(0.932012 -0.212771 0)
(0.935778 -0.214252 0)
(0.943234 -0.215227 0)
(0.953067 -0.217062 0)
(0.967861 -0.217462 0)
(0.987152 -0.217666 0)
(1.01455 -0.216336 0)
(1.04905 -0.211795 0)
(1.0941 -0.202405 0)
(0.915113 -0.211637 0)
(0.921727 -0.213651 0)
(0.925312 -0.216639 0)
(0.933664 -0.218772 0)
(0.944231 -0.222369 0)
(0.960395 -0.223833 0)
(0.981114 -0.225574 0)
(1.01074 -0.225201 0)
(1.04762 -0.221074 0)
(1.09643 -0.211316 0)
(0.903618 -0.210002 0)
(0.910658 -0.212862 0)
(0.913896 -0.217218 0)
(0.92308 -0.221174 0)
(0.934181 -0.227131 0)
(0.952148 -0.230561 0)
(0.974509 -0.234187 0)
(1.00648 -0.234715 0)
(1.04616 -0.231226 0)
(1.09945 -0.221233 0)
(0.890593 -0.208043 0)
(0.898042 -0.212095 0)
(0.901169 -0.218171 0)
(0.911231 -0.223552 0)
(0.922859 -0.231353 0)
(0.942151 -0.235758 0)
(0.966115 -0.242163 0)
(1.00063 -0.244046 0)
(1.04355 -0.241521 0)
(1.10178 -0.23127 0)
(0.874936 -0.204804 0)
(0.882858 -0.210138 0)
(0.885982 -0.218103 0)
(0.897113 -0.225319 0)
(0.909343 -0.235175 0)
(0.930383 -0.241405 0)
(0.955819 -0.249374 0)
(0.993708 -0.253788 0)
(1.04057 -0.25283 0)
(1.10454 -0.242465 0)
(0.855676 -0.2005 0)
(0.864247 -0.207011 0)
(0.867517 -0.216898 0)
(0.879979 -0.225999 0)
(0.892844 -0.238337 0)
(0.915783 -0.246141 0)
(0.943269 -0.256863 0)
(0.983994 -0.263071 0)
(1.03534 -0.263969 0)
(1.106 -0.253645 0)
(0.832261 -0.195129 0)
(0.841609 -0.202983 0)
(0.845166 -0.215093 0)
(0.85932 -0.22613 0)
(0.873031 -0.240955 0)
(0.898222 -0.251061 0)
(0.927907 -0.264399 0)
(0.971515 -0.271222 0)
(1.02826 -0.27581 0)
(1.10739 -0.266105 0)
(0.804017 -0.18832 0)
(0.814404 -0.197648 0)
(0.818399 -0.212229 0)
(0.834568 -0.225358 0)
(0.849335 -0.243025 0)
(0.87697 -0.255407 0)
(0.90893 -0.27134 0)
(0.956703 -0.281213 0)
(1.01815 -0.287658 0)
(1.10631 -0.278378 0)
(0.769846 -0.180387 0)
(0.781694 -0.191371 0)
(0.786378 -0.208777 0)
(0.804919 -0.22384 0)
(0.820925 -0.244173 0)
(0.85114 -0.259023 0)
(0.88575 -0.278226 0)
(0.937116 -0.290355 0)
(1.00453 -0.299954 0)
(1.10424 -0.291856 0)
(0.728917 -0.170701 0)
(0.742716 -0.183643 0)
(0.748221 -0.204362 0)
(0.769422 -0.221976 0)
(0.786825 -0.245535 0)
(0.819635 -0.263173 0)
(0.857081 -0.285139 0)
(0.912113 -0.299862 0)
(0.98608 -0.313774 0)
(1.09837 -0.306118 0)
(0.680307 -0.159204 0)
(0.696564 -0.174147 0)
(0.7029 -0.198081 0)
(0.727094 -0.21694 0)
(0.746103 -0.242666 0)
(0.781265 -0.263302 0)
(0.821613 -0.288746 0)
(0.880304 -0.307166 0)
(0.960788 -0.326609 0)
(1.0864 -0.320828 0)
(0.624204 -0.145418 0)
(0.643455 -0.162682 0)
(0.650726 -0.191389 0)
(0.678727 -0.213948 0)
(0.700617 -0.242963 0)
(0.738779 -0.266441 0)
(0.78287 -0.294321 0)
(0.845308 -0.315905 0)
(0.932776 -0.341672 0)
(1.06992 -0.335702 0)
(0.566504 -0.128464 0)
(0.590308 -0.146836 0)
(0.599692 -0.17936 0)
(0.632769 -0.204868 0)
(0.658819 -0.238039 0)
(0.700032 -0.266563 0)
(0.747738 -0.29915 0)
(0.813611 -0.326712 0)
(0.906627 -0.36047 0)
(1.05356 -0.357918 0)
(0.514889 -0.130665 0)
(0.545733 -0.155078 0)
(0.55559 -0.192646 0)
(0.592165 -0.221422 0)
(0.625802 -0.256879 0)
(0.672267 -0.288364 0)
(0.725232 -0.322067 0)
(0.794092 -0.352221 0)
(0.888945 -0.387336 0)
(1.04111 -0.389567 0)
(0.458997 -0.110286 0)
(0.504669 -0.136954 0)
(0.520378 -0.184735 0)
(0.560657 -0.225051 0)
(0.600374 -0.265943 0)
(0.64926 -0.300071 0)
(0.704125 -0.334832 0)
(0.773175 -0.368129 0)
(0.868497 -0.409224 0)
(1.02682 -0.425542 0)
(0.397072 -0.118648 0)
(0.465173 -0.156115 0)
(0.497502 -0.217471 0)
(0.547388 -0.263711 0)
(0.592732 -0.303372 0)
(0.641531 -0.334172 0)
(0.694296 -0.364607 0)
(0.759771 -0.395412 0)
(0.849578 -0.436784 0)
(1.00074 -0.465849 0)
(0.363948 -0.0854789 0)
(0.457306 -0.135568 0)
(0.507625 -0.209528 0)
(0.56093 -0.261783 0)
(0.605135 -0.30304 0)
(0.649905 -0.334361 0)
(0.698869 -0.364377 0)
(0.761192 -0.394643 0)
(0.846457 -0.436052 0)
(1.00308 -0.475775 0)
(1.181 -0.14413 0)
(1.32089 -0.0541933 0)
(1.44045 0.0641568 0)
(1.53253 0.189089 0)
(1.60561 0.305389 0)
(1.66648 0.405274 0)
(1.6901 0.393158 0)
(1.6254 0.232182 0)
(1.53685 0.0669831 0)
(1.55176 -0.0124433 0)
(1.18817 -0.148941 0)
(1.33384 -0.0525595 0)
(1.45547 0.0735711 0)
(1.54568 0.204352 0)
(1.61664 0.32704 0)
(1.66846 0.408537 0)
(1.68784 0.384732 0)
(1.60988 0.202375 0)
(1.53056 0.0620725 0)
(1.54895 -0.0113742 0)
(1.19619 -0.153911 0)
(1.34792 -0.0504302 0)
(1.47116 0.0836118 0)
(1.56013 0.222757 0)
(1.62649 0.34818 0)
(1.67327 0.416058 0)
(1.68093 0.369446 0)
(1.59251 0.176538 0)
(1.52522 0.0598001 0)
(1.54653 -0.00952246 0)
(1.20492 -0.158881 0)
(1.3631 -0.0471924 0)
(1.48819 0.0960517 0)
(1.57452 0.242181 0)
(1.63397 0.364 0)
(1.6764 0.415959 0)
(1.67129 0.348533 0)
(1.57253 0.153777 0)
(1.51856 0.0576328 0)
(1.54261 -0.00803806 0)
(1.21466 -0.164075 0)
(1.37954 -0.0431509 0)
(1.50604 0.110573 0)
(1.58894 0.26035 0)
(1.64231 0.385884 0)
(1.67763 0.41426 0)
(1.66093 0.323975 0)
(1.5523 0.134355 0)
(1.51131 0.0563197 0)
(1.53709 -0.0065742 0)
(1.2255 -0.169625 0)
(1.39775 -0.0375299 0)
(1.52426 0.125237 0)
(1.60427 0.280755 0)
(1.64613 0.400118 0)
(1.67897 0.409258 0)
(1.64996 0.2943 0)
(1.53548 0.120034 0)
(1.50304 0.0560826 0)
(1.53107 -0.0055789 0)
(1.23735 -0.175133 0)
(1.41686 -0.0325349 0)
(1.54428 0.141411 0)
(1.6201 0.308766 0)
(1.65404 0.403599 0)
(1.67228 0.401763 0)
(1.64226 0.26641 0)
(1.51384 0.10838 0)
(1.49542 0.0551779 0)
(1.52567 -0.00417086 0)
(1.25043 -0.180985 0)
(1.43796 -0.025649 0)
(1.56675 0.162288 0)
(1.62932 0.332622 0)
(1.66141 0.402986 0)
(1.66856 0.389857 0)
(1.63492 0.23959 0)
(1.49973 0.101665 0)
(1.49151 0.0545824 0)
(1.52124 -0.00273929 0)
(1.26431 -0.186058 0)
(1.4596 -0.0179148 0)
(1.59109 0.188814 0)
(1.63465 0.347057 0)
(1.66544 0.402132 0)
(1.66425 0.376097 0)
(1.62862 0.217744 0)
(1.48965 0.0981327 0)
(1.48925 0.0538734 0)
(1.51871 -0.00191856 0)
(1.27918 -0.191302 0)
(1.48413 -0.00393668 0)
(1.61384 0.211962 0)