/*--------------------------------*- C++ -*----------------------------------*\
  =========                 |
  \\      /  F ield         | OpenFOAM: The Open Source CFD Toolbox
   \\    /   O peration     | Website:  https://openfoam.org
    \\  /    A nd           | Version:  8
     \\/     M anipulation  |
\*---------------------------------------------------------------------------*/
FoamFile
{
    version     2.0;
    format      ascii;
    class       volScalarField;
    location    "1.5";
    object      rho;
}
// * * * * * * * * * * * * * * * * * * * * * * * * * * * * * * * * * * * * * //

dimensions      [1 -3 0 0 0 0 0];

internalField   nonuniform List<scalar> 
2600
(
0.989914
0.861369
0.818061
0.916006
1.08215
1.3439
1.51062
1.5817
1.65463
1.65098
0.973657
0.83756
0.787103
0.892326
1.08045
1.34447
1.51283
1.57225
1.64916
1.65287
0.973405
0.830152
0.773405
0.873287
1.06767
1.32589
1.50202
1.56394
1.65134
1.64736
0.970526
0.824071
0.769436
0.855217
1.05205
1.30135
1.45521
1.52603
1.63093
1.61982
0.966499
0.816878
0.765427
0.829717
1.02399
1.2646
1.40336
1.46147
1.56714
1.59148
0.963744
0.808622
0.757795
0.80292
0.980658
1.20316
1.34548
1.40416
1.5136
1.56071
0.961631
0.804261
0.748203
0.78212
0.950925
1.15749
1.29062
1.35736
1.47252
1.52436
0.963912
0.807773
0.742165
0.776033
0.94379
1.14154
1.26992
1.33714
1.44184
1.48716
0.96424
0.814273
0.747869
0.785473
0.953354
1.14394
1.26779
1.33468
1.43587
1.46076
0.967569
0.822124
0.755316
0.795782
0.957877
1.14246
1.26604
1.33328
1.43274
1.46382
0.967517
0.821686
0.755152
0.795747
0.957751
1.14239
1.26559
1.33399
1.42852
1.47243
0.964151
0.813911
0.747723
0.78586
0.953133
1.14415
1.26749
1.33484
1.43197
1.48609
0.963942
0.807803
0.7419
0.775353
0.943652
1.14159
1.26974
1.33687
1.44132
1.48885
0.961916
0.804491
0.747702
0.781375
0.951186
1.15762
1.29065
1.35735
1.46922
1.51205
0.964222
0.808865
0.757684
0.802661
0.98101
1.20313
1.34523
1.4012
1.51633
1.55119
0.966997
0.816678
0.764976
0.829676
1.02451
1.26527
1.40173
1.46386
1.57448
1.59287
0.970561
0.82352
0.769359
0.855118
1.05225
1.30197
1.45584
1.52729
1.62712
1.63892
0.97303
0.829903
0.77359
0.872951
1.06755
1.3259
1.50296
1.55647
1.64476
1.64718
0.973602
0.837838
0.787356
0.892039
1.08029
1.34468
1.51199
1.57117
1.65052
1.64136
0.99032
0.861754
0.818236
0.916061
1.08212
1.34428
1.50959
1.587
1.66163
1.64302
1.1571
0.90739
0.876226
0.941999
1.07588
1.32731
1.50549
1.59275
1.67055
1.65256
1.34778
0.998356
0.957607
0.971357
1.06652
1.29555
1.49866
1.58976
1.66677
1.65613
1.50685
1.10164
1.02824
0.998911
1.0612
1.26019
1.48668
1.58285
1.65788
1.64824
1.62555
1.19403
1.08895
1.03116
1.06537
1.22434
1.46495
1.57724
1.64934
1.63696
1.72124
1.28135
1.14624
1.06955
1.07299
1.18749
1.43145
1.57281
1.64542
1.62988
1.79152
1.36386
1.1933
1.10732
1.07876
1.15581
1.3897
1.56488
1.64598
1.62655
1.84475
1.43441
1.23742
1.14162
1.0898
1.13206
1.34601
1.55275
1.6431
1.62827
1.88682
1.49255
1.28215
1.17465
1.10651
1.13135
1.3049
1.53504
1.63524
1.62413
1.92268
1.54331
1.32465
1.20653
1.12979
1.13663
1.26617
1.5102
1.62634
1.61712
1.95452
1.59083
1.36528
1.23819
1.15076
1.14692
1.23294
1.47945
1.62047
1.61157
1.98377
1.63635
1.40533
1.27146
1.17375
1.1573
1.2097
1.44481
1.61593
1.60693
2.01226
1.67865
1.44582
1.30472
1.19986
1.16866
1.19677
1.40829
1.61156
1.60403
2.04049
1.71879
1.48467
1.33827
1.2251
1.1828
1.1892
1.37063
1.60347
1.60169
2.06804
1.75712
1.52164
1.36982
1.24988
1.19707
1.18703
1.33491
1.59052
1.59432
2.09382
1.79394
1.55686
1.39934
1.27278
1.21028
1.18544
1.3016
1.57116
1.58607
2.1174
1.82805
1.59108
1.42722
1.2949
1.22111
1.18604
1.27164
1.54716
1.5789
2.13839
1.85924
1.62328
1.45418
1.31629
1.23035
1.18836
1.2471
1.52112
1.57321
2.15613
1.88731
1.65349
1.47887
1.33749
1.23963
1.19091
1.22821
1.49381
1.56659
2.17024
1.91256
1.68137
1.50189
1.35706
1.2485
1.19114
1.21335
1.46554
1.55718
2.18172
1.93484
1.70762
1.5235
1.37498
1.25606
1.19116
1.20082
1.4371
1.54775
3.15073
3.03325
2.95035
2.87314
2.80137
2.73521
2.66771
2.59655
2.48948
2.35053
3.00293
2.89207
2.83961
2.78548
2.73339
2.6793
2.61818
2.54281
2.42966
2.26346
2.95733
2.8795
2.84264
2.79505
2.74882
2.69745
2.63552
2.55589
2.43902
2.28156
2.90106
2.84613
2.81902
2.77741
2.73715
2.68638
2.62385
2.54227
2.4259
2.26855
2.85825
2.81934
2.79852
2.75944
2.72045
2.66928
2.60826
2.52779
2.41439
2.25661
2.822
2.7926
2.77381
2.73684
2.69983
2.6496
2.59091
2.51164
2.40203
2.24594
2.79303
2.7692
2.7509
2.71581
2.68033
2.63124
2.57481
2.49639
2.3907
2.23986
2.76682
2.74595
2.72797
2.69599
2.66326
2.61634
2.56175
2.48364
2.38135
2.23867
2.74289
2.72425
2.70791
2.6805
2.65125
2.60645
2.55278
2.4745
2.37511
2.24086
2.72206
2.70594
2.69219
2.66943
2.64339
2.60063
2.54759
2.46959
2.37251
2.24555
2.70744
2.69412
2.68267
2.66279
2.63835
2.597
2.5448
2.46785
2.37345
2.2533
2.70134
2.68994
2.67926
2.65972
2.63474
2.59391
2.54271
2.46825
2.3774
2.26431
2.69625
2.68647
2.67628
2.65666
2.63097
2.59033
2.54058
2.46942
2.38313
2.27703
2.68191
2.6741
2.66631
2.64904
2.62481
2.58546
2.53763
2.47062
2.38921
2.29025
2.66428
2.65806
2.6522
2.63681
2.61469
2.57818
2.53337
2.47118
2.39482
2.30279
2.64643
2.64149
2.63608
2.62132
2.60096
2.56815
2.52758
2.4706
2.3996
2.31391
2.63119
2.627
2.621
2.60627
2.587
2.55713
2.5204
2.46833
2.40326
2.32335
2.61895
2.61558
2.60807
2.59288
2.57437
2.54668
2.51303
2.46523
2.40572
2.33069
2.60885
2.60599
2.59697
2.58149
2.56326
2.53695
2.50528
2.46092
2.40548
2.33471
2.60223
2.59867
2.58789
2.57198
2.55358
2.52768
2.49668
2.45454
2.40223
2.33636
1.40746
1.42479
1.44528
1.47353
1.54133
1.66442
1.70847
1.78376
2.43874
2.74248
1.40746
1.42479
1.44528
1.47353
1.54132
1.66445
1.70837
1.78349
2.43548
2.7337
1.40746
1.42479
1.44528
1.47353
1.54132
1.66451
1.70816
1.7829
2.42979
2.7214
1.40746
1.42479
1.44528
1.47352
1.54132
1.66459
1.70789
1.78194
2.42192
2.70649
1.40746
1.42479
1.44528
1.47352
1.54132
1.66469
1.70761
1.78049
2.41268
2.69146
1.40746
1.42479
1.44529
1.47351
1.54133
1.66482
1.70733
1.77849
2.40272
2.67714
1.40746
1.42479
1.44529
1.47351
1.54134
1.66496
1.70706
1.77592
2.39231
2.6648
1.40746
1.42478
1.44529
1.4735
1.54135
1.66512
1.70682
1.7728
2.38135
2.65361
1.40746
1.42478
1.44529
1.47349
1.54138
1.66529
1.70661
1.76916
2.36948
2.64321
1.40746
1.42478
1.4453
1.47347
1.54141
1.66546
1.70646
1.76506
2.3564
2.63338
1.40746
1.42478
1.4453
1.47346
1.54145
1.66564
1.70635
1.76058
2.34208
2.62365
1.40746
1.42478
1.4453
1.47345
1.5415
1.66582
1.70632
1.75586
2.32674
2.61344
1.40746
1.42478
1.4453
1.47344
1.54154
1.66599
1.70634
1.75066
2.31124
2.60087
1.40746
1.42478
1.44531
1.47343
1.54158
1.66616
1.70641
1.74573
2.2964
2.58932
1.40746
1.42478
1.44531
1.47342
1.5416
1.66633
1.70649
1.74081
2.28227
2.57865
1.40746
1.42478
1.44531
1.47341
1.54162
1.66648
1.70651
1.73609
2.26834
2.56919
1.40746
1.42478
1.44531
1.47341
1.54162
1.66662
1.70665
1.7317
2.25417
2.56002
1.40746
1.42477
1.44531
1.4734
1.54162
1.66673
1.70664
1.72788
2.23894
2.55362
1.40746
1.42477
1.44532
1.4734
1.54162
1.66682
1.70659
1.7246
2.22274
2.54973
1.40746
1.42477
1.44532
1.4734
1.5416
1.66689
1.70656
1.72179
2.20571
2.54821
1.40746
1.42477
1.44532
1.4734
1.5416
1.66689
1.70656
1.72179
2.20571
2.54821
1.40746
1.42477
1.44532
1.4734
1.54162
1.66682
1.70659
1.7246
2.22274
2.54973
1.40746
1.42477
1.44531
1.4734
1.54162
1.66673
1.70664
1.72788
2.23894
2.55362
1.40746
1.42478
1.44531
1.47341
1.54162
1.66662
1.70665
1.7317
2.25417
2.56002
1.40746
1.42478
1.44531
1.47341
1.54162
1.66648
1.70651
1.73609
2.26834
2.56919
1.40746
1.42478
1.44531
1.47342
1.5416
1.66633
1.70649
1.74081
2.28227
2.57865
1.40746
1.42478
1.44531
1.47343
1.54158
1.66616
1.70641
1.74573
2.2964
2.58932
1.40746
1.42478
1.4453
1.47344
1.54154
1.66599
1.70634
1.75066
2.31124
2.60087
1.40746
1.42478
1.4453
1.47345
1.5415
1.66582
1.70632
1.75586
2.32674
2.61344
1.40746
1.42478
1.4453
1.47346
1.54145
1.66564
1.70635
1.76058
2.34208
2.62365
1.40746
1.42478
1.4453
1.47347
1.54141
1.66546
1.70646
1.76506
2.3564
2.63338
1.40746
1.42478
1.44529
1.47349
1.54138
1.66529
1.70661
1.76916
2.36948
2.64321
1.40746
1.42478
1.44529
1.4735
1.54135
1.66512
1.70682
1.7728
2.38135
2.65361
1.40746
1.42479
1.44529
1.47351
1.54134
1.66496
1.70706
1.77592
2.39231
2.6648
1.40746
1.42479
1.44529
1.47351
1.54133
1.66482
1.70733
1.77849
2.40272
2.67714
1.40746
1.42479
1.44528
1.47352
1.54132
1.66469
1.70761
1.78049
2.41268
2.69146
1.40746
1.42479
1.44528
1.47352
1.54132
1.66459
1.70789
1.78194
2.42192
2.70649
1.40746
1.42479
1.44528
1.47353
1.54132
1.66451
1.70816
1.7829
2.42979
2.7214
1.40746
1.42479
1.44528
1.47353
1.54132
1.66445
1.70837
1.78349
2.43548
2.7337
1.40746
1.42479
1.44528
1.47353
1.54133
1.66442
1.70847
1.78376
2.43874
2.74248
2.60223
2.59867
2.58789
2.57198
2.55358
2.52768
2.49668
2.45454
2.40223
2.33636
2.60885
2.60599
2.59697
2.58149
2.56326
2.53695
2.50528
2.46092
2.40548
2.33471
2.61895
2.61558
2.60807
2.59288
2.57437
2.54668
2.51303
2.46523
2.40572
2.33068
2.63119
2.627
2.621
2.60627
2.587
2.55713
2.52041
2.46834
2.40327
2.32334
2.64643
2.64149
2.63608
2.62132
2.60096
2.56815
2.52758
2.47061
2.3996
2.3139
2.66428
2.65806
2.6522
2.63681
2.61469
2.57818
2.53337
2.47118
2.39482
2.30278
2.68191
2.6741
2.66631
2.64903
2.62482
2.58546
2.53763
2.47062
2.3892
2.29024
2.69624
2.68647
2.67628
2.65666
2.63097
2.59034
2.54059
2.46942
2.38312
2.27702
2.70134
2.68994
2.67926
2.65972
2.63474
2.59391
2.54271
2.46825
2.37739
2.2643
2.70744
2.69411
2.68267
2.66279
2.63835
2.597
2.5448
2.46784
2.37345
2.25328
2.72206
2.70594
2.69219
2.66943
2.64339
2.60063
2.54759
2.46959
2.37251
2.24553
2.74288
2.72425
2.70791
2.6805
2.65125
2.60645
2.55278
2.4745
2.37511
2.24084
2.76682
2.74595
2.72797
2.69599
2.66326
2.61634
2.56176
2.48364
2.38134
2.23867
2.79303
2.7692
2.7509
2.71581
2.68033
2.63124
2.57481
2.49639
2.39069
2.23987
2.82199
2.7926
2.77381
2.73684
2.69983
2.6496
2.59091
2.51164
2.40202
2.24593
2.85825
2.81934
2.79852
2.75944
2.72045
2.66928
2.60826
2.52779
2.41439
2.25657
2.90106
2.84613
2.81901
2.7774
2.73715
2.68638
2.62385
2.54227
2.4259
2.26852
2.95733
2.8795
2.84264
2.79505
2.74882
2.69745
2.63552
2.55589
2.43902
2.28155
3.00293
2.89207
2.83961
2.78548
2.73339
2.6793
2.61818
2.54281
2.42965
2.26346
3.15073
3.03325
2.95035
2.87314
2.80137
2.73521
2.66771
2.59655
2.48948
2.35053
2.1817
1.93479
1.70761
1.52337
1.37496
1.25606
1.19119
1.20078
1.43617
1.54769
2.17022
1.91251
1.68134
1.50177
1.35705
1.24847
1.19113
1.21347
1.46536
1.55669
2.15611
1.8873
1.65337
1.47888
1.33746
1.23954
1.19091
1.22852
1.49481
1.56525
2.13837
1.85926
1.62311
1.45438
1.31617
1.23021
1.18832
1.24723
1.52224
1.57254
2.11737
1.82803
1.59098
1.42747
1.29469
1.22096
1.18601
1.27142
1.54706
1.58005
2.09379
1.79384
1.55692
1.39937
1.27261
1.21016
1.18545
1.30177
1.56976
1.58757
2.068
1.75701
1.52177
1.36958
1.24986
1.19712
1.1871
1.33611
1.58939
1.59488
2.04048
1.71877
1.48467
1.33799
1.22523
1.18294
1.18929
1.37196
1.60357
1.59825
2.01228
1.67871
1.4457
1.30466
1.20007
1.16876
1.19685
1.4084
1.61196
1.60251
1.98378
1.63636
1.40534
1.27163
1.17382
1.15729
1.20971
1.44405
1.61668
1.6077
1.95446
1.59072
1.36552
1.23834
1.15069
1.14679
1.23297
1.47948
1.62019
1.61333
1.92256
1.54312
1.32488
1.20643
1.12968
1.1365
1.26619
1.51139
1.62593
1.61868
1.88679
1.49241
1.28201
1.17454
1.10661
1.13125
1.3046
1.53613
1.63541
1.62285
1.84485
1.43444
1.23698
1.14187
1.09025
1.13191
1.34548
1.55278
1.64358
1.62443
1.7916
1.36392
1.19305
1.10809
1.07882
1.1555
1.38958
1.56411
1.64441
1.62663
1.72118
1.28135
1.14658
1.07018
1.07255
1.1871
1.43195
1.57195
1.64415
1.63214
1.62539
1.19394
1.0898
1.03124
1.0648
1.22393
1.46511
1.57788
1.64998
1.64091
1.50677
1.10148
1.0289
0.998787
1.0608
1.25981
1.48595
1.58509
1.65955
1.649
1.34777
0.998551
0.957737
0.971362
1.0664
1.29513
1.49769
1.59095
1.66785
1.65015
1.15676
0.907594
0.876227
0.942011
1.07585
1.32679
1.50539
1.59104
1.66691
1.65011
2.36259
2.25224
2.11256
1.96185
1.79705
1.62479
1.46172
1.28896
1.03253
1.00259
2.36139
2.25141
2.11074
1.9599
1.79505
1.62271
1.45977
1.28624
1.03299
1.00797
2.36002
2.25003
2.10895
1.9574
1.79154
1.61909
1.45626
1.28154
1.0348
1.01034
2.35801
2.24704
2.1064
1.95313
1.78649
1.61388
1.45114
1.27464
1.03802
1.01559
2.35544
2.24293
2.10247
1.94767
1.77999
1.60728
1.44449
1.26549
1.04029
1.02359
2.35211
2.23761
2.09646
1.9398
1.77097
1.59817
1.43523
1.25418
1.04252
1.03464
2.34795
2.231
2.08812
1.92977
1.76008
1.5873
1.42419
1.24051
1.04569
1.04975
2.343
2.22315
2.07751
1.9171
1.7467
1.57438
1.41068
1.22503
1.04272
1.07256
2.33778
2.21416
2.065
1.902
1.73077
1.55912
1.39458
1.20828
1.03618
1.10229
2.33261
2.20432
2.05079
1.88462
1.71231
1.54139
1.37544
1.18995
1.03099
1.13636
2.32842
2.19397
2.03501
1.86481
1.691
1.52103
1.35281
1.17074
1.02837
1.17411
2.32516
2.18285
2.01734
1.84211
1.66676
1.49724
1.32627
1.15327
1.02904
1.21547
2.32086
2.16937
1.99653
1.81608
1.63915
1.47042
1.2962
1.13707
1.03591
1.26097
2.31357
2.1522
1.97192
1.78648
1.60844
1.44008
1.263
1.12483
1.05316
1.30824
2.3006
2.13043
1.94308
1.75336
1.57505
1.40586
1.23121
1.12022
1.08612
1.35678
2.282
2.10323
1.9096
1.71724
1.53916
1.37189
1.20251
1.11471
1.133
1.40436
2.26165
2.07328
1.87307
1.679
1.50297
1.33732
1.18331
1.11692
1.19693
1.44608
2.23923
2.0398
1.83294
1.63954
1.46689
1.30706
1.18046
1.13201
1.26854
1.47885
2.21762
2.00384
1.79049
1.59836
1.43206
1.28487
1.18128
1.15299
1.33566
1.50659
2.19738
1.96589
1.74486
1.55577
1.39979
1.2668
1.1878
1.18176
1.3936
1.53393
2.19739
1.96591
1.74488
1.55586
1.3998
1.26677
1.18772
1.18176
1.39392
1.53375
2.21762
2.00386
1.79051
1.59836
1.43208
1.28485
1.18125
1.15297
1.3352
1.50659
2.23923
2.03981
1.83295
1.63952
1.46688
1.30706
1.18048
1.13203
1.26839
1.47885
2.26165
2.07329
1.87308
1.67902
1.50299
1.33735
1.18329
1.11693
1.19696
1.44602
2.282
2.10326
1.90962
1.71725
1.53919
1.37194
1.20255
1.11471
1.13298
1.40426
2.3006
2.13042
1.94309
1.75338
1.57506
1.40589
1.23124
1.12021
1.08607
1.35661
2.31357
2.1522
1.97193
1.78649
1.60846
1.44009
1.26299
1.1248
1.0531
1.30806
2.32086
2.16938
1.99654
1.81608
1.63915
1.47042
1.29621
1.13705
1.03587
1.26083
2.32516
2.18285
2.01734
1.84212
1.66676
1.49724
1.32628
1.15326
1.02902
1.21539
2.32842
2.19397
2.03501
1.86481
1.69101
1.52104
1.35282
1.17075
1.02836
1.17407
2.33261
2.20432
2.05079
1.88462
1.71232
1.5414
1.37545
1.18997
1.031
1.13633
2.33778
2.21416
2.06501
1.90201
1.73078
1.55913
1.39459
1.2083
1.03619
1.10229
2.343
2.22315
2.07751
1.9171
1.74671
1.57439
1.41069
1.22504
1.04272
1.07256
2.34794
2.231
2.08812
1.92977
1.76008
1.5873
1.42419
1.24051
1.0457
1.04975
2.35211
2.23761
2.09646
1.9398
1.77098
1.59817
1.43523
1.25417
1.04252
1.03463
2.35544
2.24293
2.10247
1.94767
1.77998
1.60728
1.44449
1.26549
1.04029
1.02357
2.35801
2.24704
2.1064
1.95313
1.78649
1.61387
1.45114
1.27463
1.03802
1.01558
2.36003
2.25003
2.10895
1.9574
1.79153
1.61909
1.45626
1.28153
1.03479
1.01034
2.36139
2.25141
2.11074
1.9599
1.79505
1.62271
1.45977
1.28623
1.03298
1.00799
2.36259
2.25225
2.11256
1.96185
1.79705
1.62479
1.46172
1.28895
1.03252
1.0026
2.59517
2.58783
2.57518
2.55882
2.54005
2.515
2.4857
2.44742
2.39973
2.3407
2.57788
2.5687
2.55816
2.54362
2.52678
2.5044
2.47731
2.44269
2.39993
2.34758
2.57539
2.56377
2.55382
2.54045
2.52459
2.50354
2.47783
2.44565
2.40672
2.35974
2.58397
2.57195
2.56261
2.54973
2.53409
2.51378
2.48845
2.45701
2.41931
2.37464
2.58038
2.57087
2.56428
2.55367
2.54036
2.52278
2.50031
2.47132
2.43538
2.39119
2.57676
2.56814
2.56256
2.5532
2.54187
2.52673
2.50723
2.48116
2.44806
2.40501
2.57673
2.56788
2.56297
2.5539
2.5429
2.52823
2.50963
2.48452
2.45243
2.41141
2.5779
2.56795
2.5621
2.55175
2.53975
2.52423
2.50469
2.47968
2.44866
2.41062
2.55711
2.54757
2.54341
2.53491
2.52429
2.50974
2.49099
2.46769
2.43977
2.40689
2.54708
2.53078
2.52272
2.51427
2.50528
2.49335
2.47749
2.45773
2.43319
2.40439
2.55066
2.53079
2.51933
2.50876
2.49853
2.48672
2.47178
2.45372
2.43094
2.40447
2.55324
2.53345
2.52289
2.51188
2.50031
2.48736
2.47182
2.4539
2.43194
2.40651
2.55397
2.53592
2.52628
2.51509
2.50293
2.48941
2.47357
2.45565
2.43421
2.4093
2.5539
2.53678
2.52752
2.51636
2.50429
2.49086
2.47523
2.45746
2.43652
2.4122
2.55317
2.53612
2.52709
2.51611
2.50442
2.49139
2.47641
2.45905
2.43874
2.41499
2.55187
2.53477
2.52598
2.51524
2.50394
2.4913
2.47704
2.46032
2.44081
2.41766
2.55069
2.5334
2.52476
2.51421
2.50332
2.49114
2.47752
2.4614
2.44265
2.41999
2.54985
2.53236
2.52387
2.51351
2.50301
2.49122
2.47812
2.46248
2.44428
2.42202
2.54911
2.53149
2.52314
2.51295
2.50278
2.49129
2.4786
2.46328
2.44537
2.42339
2.54872
2.53107
2.52282
2.51271
2.50273
2.49141
2.47898
2.46391
2.44617
2.4244
1.40746
1.42477
1.44532
1.4734
1.54158
1.66694
1.70666
1.71887
2.1835
2.55382
1.40746
1.42477
1.44532
1.4734
1.54155
1.66697
1.70695
1.71607
2.15708
2.55929
1.40746
1.42477
1.44532
1.47341
1.54151
1.66695
1.70729
1.714
2.13017
2.55557
1.40746
1.42477
1.44532
1.47341
1.54147
1.66689
1.70772
1.71267
2.1029
2.54669
1.40746
1.42477
1.44531
1.47342
1.54142
1.66679
1.70819
1.71169
2.0769
2.5368
1.40746
1.42477
1.44531
1.47343
1.54138
1.66665
1.70867
1.71084
2.05287
2.53105
1.40746
1.42478
1.44531
1.47344
1.54133
1.66649
1.70913
1.71012
2.0306
2.52883
1.40746
1.42478
1.44531
1.47345
1.54131
1.66631
1.70954
1.70954
2.01069
2.53209
1.40746
1.42478
1.4453
1.47346
1.54129
1.66614
1.7099
1.70909
1.99415
2.54642
1.40746
1.42478
1.4453
1.47346
1.5413
1.66596
1.71021
1.70876
1.97925
2.56015
1.40746
1.42478
1.4453
1.47346
1.54131
1.6658
1.71047
1.70853
1.96536
2.5641
1.40746
1.42478
1.4453
1.47347
1.54134
1.66565
1.71067
1.70836
1.95322
2.562
1.40746
1.42478
1.4453
1.47347
1.54137
1.66553
1.71083
1.70827
1.94282
2.55781
1.40746
1.42478
1.4453
1.47347
1.54141
1.66542
1.71094
1.70823
1.93392
2.55354
1.40746
1.42479
1.4453
1.47346
1.54145
1.66534
1.71101
1.70823
1.92599
2.54983
1.40746
1.42479
1.44529
1.47346
1.54149
1.66527
1.71106
1.70824
1.91942
2.54679
1.40746
1.42479
1.44529
1.47346
1.54153
1.66522
1.71108
1.70826
1.91424
2.54443
1.40746
1.42479
1.44529
1.47345
1.54155
1.66518
1.71108
1.70829
1.91043
2.54278
1.40746
1.42479
1.44529
1.47345
1.54157
1.66516
1.71109
1.70831
1.90783
2.54154
1.40746
1.42479
1.44529
1.47345
1.54158
1.66515
1.7111
1.70833
1.90647
2.54095
1.40746
1.42479
1.44529
1.47345
1.54158
1.66515
1.7111
1.70833
1.90647
2.54095
1.40746
1.42479
1.44529
1.47345
1.54157
1.66516
1.71109
1.70831
1.90783
2.54154
1.40746
1.42479
1.44529
1.47345
1.54155
1.66518
1.71108
1.70829
1.91043
2.54277
1.40746
1.42479
1.44529
1.47346
1.54153
1.66522
1.71108
1.70826
1.91424
2.54443
1.40746
1.42479
1.44529
1.47346
1.54149
1.66527
1.71106
1.70824
1.91942
2.54679
1.40746
1.42479
1.4453
1.47346
1.54145
1.66534
1.71101
1.70823
1.92599
2.54983
1.40746
1.42478
1.4453
1.47347
1.54141
1.66542
1.71094
1.70823
1.93392
2.55354
1.40746
1.42478
1.4453
1.47347
1.54137
1.66553
1.71083
1.70827
1.94282
2.55781
1.40746
1.42478
1.4453
1.47347
1.54134
1.66565
1.71067
1.70836
1.95322
2.562
1.40746
1.42478
1.4453
1.47346
1.54131
1.6658
1.71047
1.70853
1.96536
2.5641
1.40746
1.42478
1.4453
1.47346
1.5413
1.66596
1.71021
1.70876
1.97925
2.56015
1.40746
1.42478
1.4453
1.47346
1.54129
1.66614
1.7099
1.70909
1.99415
2.54642
1.40746
1.42478
1.44531
1.47345
1.54131
1.66631
1.70954
1.70954
2.01069
2.53209
1.40746
1.42478
1.44531
1.47344
1.54133
1.66649
1.70913
1.71012
2.0306
2.52883
1.40746
1.42477
1.44531
1.47343
1.54138
1.66665
1.70867
1.71084
2.05287
2.53105
1.40746
1.42477
1.44531
1.47342
1.54142
1.66679
1.70819
1.71169
2.0769
2.5368
1.40746
1.42477
1.44532
1.47341
1.54147
1.66689
1.70772
1.71267
2.1029
2.54669
1.40746
1.42477
1.44532
1.47341
1.54151
1.66695
1.70729
1.714
2.13017
2.55557
1.40746
1.42477
1.44532
1.4734
1.54155
1.66697
1.70695
1.71607
2.15708
2.55929
1.40746
1.42477
1.44532
1.4734
1.54158
1.66694
1.70666
1.71887
2.1835
2.55382
2.54872
2.53107
2.52282
2.51271
2.50273
2.49141
2.47897
2.46391
2.44616
2.4244
2.54911
2.53149
2.52314
2.51295
2.50278
2.49129
2.47859
2.46328
2.44537
2.42338
2.54985
2.53236
2.52387
2.51351
2.50301
2.49122
2.47812
2.46247
2.44428
2.42202
2.55069
2.5334
2.52476
2.51421
2.50332
2.49114
2.47751
2.4614
2.44265
2.41999
2.55187
2.53477
2.52598
2.51524
2.50394
2.4913
2.47704
2.46032
2.44081
2.41766
2.55317
2.53612
2.52709
2.51611
2.50441
2.49139
2.47641
2.45905
2.43874
2.41499
2.5539
2.53678
2.52752
2.51636
2.50429
2.49086
2.47523
2.45746
2.43652
2.4122
2.55397
2.53591
2.52627
2.51509
2.50293
2.48941
2.47357
2.45565
2.43421
2.4093
2.55323
2.53345
2.52289
2.51188
2.50031
2.48736
2.47182
2.4539
2.43194
2.40651
2.55066
2.53079
2.51933
2.50876
2.49853
2.48672
2.47178
2.45372
2.43094
2.40447
2.54707
2.53078
2.52272
2.51426
2.50528
2.49335
2.47749
2.45773
2.43319
2.40439
2.55711
2.54757
2.54341
2.53491
2.52429
2.50974
2.49099
2.46769
2.43977
2.40689
2.5779
2.56795
2.5621
2.55175
2.53975
2.52423
2.50469
2.47968
2.44866
2.41062
2.57673
2.56788
2.56297
2.5539
2.5429
2.52823
2.50963
2.48452
2.45243
2.41141
2.57676
2.56814
2.56256
2.5532
2.54187
2.52673
2.50723
2.48116
2.44806
2.40501
2.58038
2.57087
2.56428
2.55367
2.54036
2.52278
2.50031
2.47132
2.43538
2.39119
2.58397
2.57195
2.56261
2.54973
2.53409
2.51378
2.48845
2.45701
2.41931
2.37464
2.57539
2.56377
2.55382
2.54045
2.52459
2.50354
2.47783
2.44565
2.40672
2.35974
2.57789
2.5687
2.55817
2.54362
2.52679
2.5044
2.47731
2.44269
2.39993
2.34758
2.59517
2.58783
2.57518
2.55882
2.54005
2.515
2.4857
2.44742
2.39973
2.3407
)
;

boundaryField
{
    inlet
    {
        type            calculated;
        value           uniform 1.40001;
    }
    outlet
    {
        type            calculated;
        value           nonuniform List<scalar> 
100
(
1.53371
1.50652
1.47878
1.44595
1.40418
1.35652
1.30796
1.26074
1.2153
1.17398
1.13625
1.1022
1.07248
1.04968
1.03456
1.0235
1.01552
1.0103
1.00797
1.00258
1.65194
1.65622
1.64846
1.63723
1.62994
1.62624
1.62817
1.6243
1.61731
1.61163
1.60684
1.60379
1.60169
1.59444
1.58614
1.57882
1.57306
1.56652
1.55721
1.54778
1.6512
1.65325
1.64727
1.61956
1.59208
1.56116
1.52421
1.48745
1.46043
1.46332
1.47301
1.48667
1.48905
1.51249
1.55134
1.59206
1.63902
1.64832
1.64173
1.6427
1.5477
1.55669
1.5652
1.57246
1.58001
1.58756
1.5949
1.59818
1.60243
1.60767
1.61339
1.61879
1.62286
1.62431
1.62667
1.63224
1.641
1.64896
1.65
1.65006
1.00256
1.00795
1.0103
1.01553
1.02351
1.03456
1.04968
1.07248
1.1022
1.13627
1.17403
1.21538
1.26088
1.30814
1.35669
1.40429
1.44601
1.47878
1.50651
1.53389
)
;
    }
    triangle
    {
        type            calculated;
        value           nonuniform List<scalar> 
40
(
3.15073
3.03325
2.95035
2.87314
2.80137
2.73521
2.66771
2.59655
2.48948
2.35053
0.989914
0.973657
0.973405
0.970526
0.966499
0.963744
0.961631
0.963912
0.96424
0.967569
0.967517
0.964151
0.963942
0.961916
0.964222
0.966997
0.970561
0.97303
0.973602
0.99032
3.15073
3.03325
2.95035
2.87314
2.80137
2.73521
2.66771
2.59655
2.48948
2.35053
)
;
    }
    top
    {
        type            symmetryPlane;
    }
    bottom
    {
        type            symmetryPlane;
    }
    defaultFaces
    {
        type            empty;
    }
}


// ************************************************************************* //
