/*--------------------------------*- C++ -*----------------------------------*\
  =========                 |
  \\      /  F ield         | OpenFOAM: The Open Source CFD Toolbox
   \\    /   O peration     | Website:  https://openfoam.org
    \\  /    A nd           | Version:  8
     \\/     M anipulation  |
\*---------------------------------------------------------------------------*/
FoamFile
{
    version     2.0;
    format      ascii;
    class       volScalarField;
    location    "1.5";
    object      T;
}
// * * * * * * * * * * * * * * * * * * * * * * * * * * * * * * * * * * * * * //

dimensions      [0 0 0 1 0 0 0];

internalField   nonuniform List<scalar> 
2600
(
1.23517
1.15715
1.05099
0.96678
0.976119
1.02608
1.06448
1.08043
1.09875
1.09983
1.24672
1.1649
1.07983
1.00123
1.0079
1.04808
1.08006
1.0882
1.10264
1.10696
1.24435
1.16391
1.09877
1.03979
1.04342
1.07358
1.10135
1.10624
1.11582
1.11755
1.24104
1.16299
1.1132
1.08057
1.08829
1.11328
1.12857
1.13389
1.13734
1.13135
1.23957
1.16397
1.12737
1.11976
1.14161
1.1706
1.17852
1.17608
1.16529
1.15746
1.24028
1.16663
1.13826
1.15337
1.19752
1.23524
1.24305
1.23399
1.21064
1.19327
1.24151
1.17036
1.14171
1.17199
1.24257
1.29102
1.29402
1.27977
1.25582
1.22774
1.24424
1.17541
1.14076
1.17907
1.25981
1.31293
1.31656
1.29879
1.28127
1.25024
1.24519
1.17948
1.14359
1.18364
1.26181
1.31278
1.31852
1.3009
1.29201
1.26012
1.24719
1.18348
1.14715
1.18624
1.25964
1.30926
1.31676
1.29959
1.29416
1.2673
1.24718
1.18321
1.14701
1.1862
1.25958
1.30927
1.31668
1.2999
1.29271
1.26946
1.24513
1.1792
1.14344
1.18407
1.26171
1.31295
1.31858
1.30103
1.29061
1.26815
1.24419
1.17533
1.1406
1.17895
1.2598
1.31307
1.31672
1.29873
1.2808
1.25113
1.24155
1.17041
1.14144
1.17165
1.24283
1.29139
1.29449
1.27992
1.25476
1.2236
1.2404
1.16673
1.13836
1.15325
1.1978
1.23573
1.24356
1.23321
1.21215
1.18963
1.23971
1.16387
1.1273
1.11977
1.14191
1.17127
1.17861
1.17684
1.16789
1.15681
1.24092
1.16268
1.11325
1.08055
1.08838
1.11369
1.12928
1.13399
1.13581
1.13649
1.24404
1.1638
1.09892
1.03961
1.04337
1.07362
1.10195
1.10381
1.11329
1.11744
1.24665
1.16508
1.07996
1.00108
1.00783
1.04818
1.07998
1.08758
1.10258
1.10333
1.23547
1.15739
1.05102
0.966768
0.976106
1.02622
1.06434
1.08184
1.10032
1.09779
1.18272
1.11209
1.01358
0.935748
0.948928
1.00666
1.05347
1.07743
1.09971
1.09722
1.12659
1.05367
0.979941
0.914412
0.928693
0.988742
1.04547
1.07283
1.09718
1.09641
1.10486
1.0155
0.95832
0.906715
0.917132
0.973476
1.03976
1.0692
1.09434
1.09364
1.10274
1.00176
0.950695
0.906213
0.912859
0.960223
1.03343
1.06676
1.09187
1.0907
1.10841
1.00141
0.95063
0.912833
0.912246
0.948051
1.0242
1.06457
1.0904
1.08876
1.1183
1.0088
0.954145
0.923121
0.912458
0.937872
1.01177
1.0609
1.08983
1.08767
1.12966
1.02243
0.963735
0.933656
0.916642
0.929919
0.997408
1.05556
1.0879
1.08776
1.14055
1.03779
0.977359
0.944435
0.9228
0.929438
0.982825
1.04876
1.08404
1.08618
1.15021
1.05245
0.991045
0.954644
0.930377
0.929438
0.968755
1.04068
1.07953
1.08389
1.15821
1.06584
1.00343
0.964125
0.936442
0.929843
0.956652
1.03159
1.07552
1.08218
1.16448
1.07769
1.01455
0.973307
0.941912
0.931432
0.94778
1.02149
1.07166
1.08093
1.16929
1.08756
1.02471
0.981684
0.94796
0.933272
0.942465
1.01074
1.06786
1.08033
1.17289
1.09581
1.03347
0.989458
0.953644
0.93534
0.939554
0.999484
1.06359
1.07993
1.17567
1.10281
1.04104
0.996215
0.959051
0.937268
0.93912
0.988213
1.05914
1.0779
1.17804
1.10907
1.04783
1.00227
0.963796
0.93984
0.938867
0.977319
1.05453
1.0752
1.18045
1.11483
1.05446
1.00806
0.968473
0.942861
0.938778
0.967638
1.05006
1.0727
1.18322
1.1205
1.06105
1.01405
0.973401
0.94581
0.93938
0.959837
1.04578
1.07085
1.18654
1.12641
1.06792
1.02007
0.978918
0.949042
0.940256
0.953915
1.0411
1.06921
1.19053
1.13277
1.07511
1.02636
0.98461
0.952455
0.940551
0.949359
1.03538
1.06724
1.19507
1.1393
1.08264
1.03288
0.990347
0.955723
0.94081
0.94568
1.02825
1.06531
1.4321
1.41173
1.39843
1.38505
1.37145
1.35816
1.34429
1.32902
1.3048
1.29194
1.39995
1.37953
1.3707
1.36089
1.35099
1.34044
1.32827
1.31268
1.28802
1.25857
1.38375
1.36846
1.36038
1.35079
1.3422
1.33284
1.32123
1.3054
1.28094
1.24691
1.36694
1.35609
1.34971
1.34083
1.33285
1.32306
1.31099
1.29475
1.27077
1.23617
1.35417
1.34663
1.34231
1.33434
1.32637
1.31597
1.30362
1.28723
1.26377
1.22992
1.34391
1.33824
1.33472
1.32768
1.32056
1.31066
1.29883
1.2825
1.25959
1.22663
1.33572
1.33109
1.32774
1.32131
1.31504
1.30606
1.2953
1.27951
1.25746
1.22556
1.32802
1.3239
1.32053
1.3147
1.30928
1.30139
1.29188
1.27699
1.25609
1.22582
1.32028
1.31653
1.3133
1.30816
1.30341
1.2963
1.28781
1.27399
1.25456
1.22625
1.31229
1.30893
1.30604
1.3016
1.29729
1.2906
1.28275
1.26998
1.25215
1.22607
1.3034
1.30061
1.29842
1.29486
1.29098
1.28454
1.27696
1.26492
1.24875
1.22518
1.29308
1.29141
1.29037
1.2879
1.28456
1.2785
1.27108
1.25963
1.24485
1.22365
1.28597
1.28426
1.28341
1.28132
1.27837
1.27275
1.26569
1.25484
1.24105
1.22182
1.28412
1.28159
1.27972
1.27674
1.27339
1.2678
1.26105
1.25086
1.23782
1.22023
1.28395
1.28144
1.27902
1.2751
1.27074
1.26453
1.25758
1.24779
1.23533
1.21926
1.2843
1.28193
1.27936
1.27501
1.26999
1.26314
1.25569
1.24584
1.23384
1.21899
1.28492
1.28277
1.28004
1.2754
1.2701
1.26296
1.25514
1.24514
1.2335
1.21944
1.28531
1.28336
1.28032
1.27556
1.27023
1.26316
1.25538
1.2455
1.2343
1.22086
1.28462
1.28273
1.27943
1.27501
1.27012
1.26358
1.25617
1.24677
1.23614
1.22327
1.28264
1.28107
1.27819
1.27459
1.27055
1.26483
1.25803
1.24925
1.23894
1.22654
1.00213
1.00704
1.0128
1.02065
1.03911
1.07199
1.08313
1.10328
1.25145
1.33693
1.00213
1.00704
1.0128
1.02065
1.03911
1.072
1.08311
1.10324
1.25091
1.33364
1.00213
1.00704
1.0128
1.02065
1.03911
1.07202
1.08305
1.10314
1.25028
1.32808
1.00213
1.00704
1.01281
1.02065
1.03911
1.07204
1.08299
1.10297
1.24957
1.32175
1.00213
1.00704
1.01281
1.02065
1.0391
1.07207
1.08291
1.10267
1.24866
1.31604
1.00213
1.00704
1.01281
1.02065
1.0391
1.07211
1.08284
1.1022
1.24746
1.31124
1.00213
1.00704
1.01281
1.02064
1.03911
1.07215
1.08278
1.10156
1.24594
1.30728
1.00213
1.00704
1.01281
1.02064
1.03911
1.07219
1.08272
1.10073
1.24414
1.30357
1.00213
1.00704
1.01281
1.02064
1.03912
1.07224
1.08267
1.09975
1.24221
1.29973
1.00213
1.00704
1.01281
1.02063
1.03912
1.07228
1.08263
1.09862
1.24029
1.2957
1.00213
1.00704
1.01281
1.02063
1.03913
1.07233
1.08261
1.09737
1.23842
1.29196
1.00213
1.00704
1.01281
1.02063
1.03914
1.07238
1.08261
1.09604
1.23653
1.28955
1.00213
1.00704
1.01281
1.02063
1.03916
1.07242
1.08262
1.09455
1.23432
1.28845
1.00213
1.00704
1.01281
1.02062
1.03917
1.07246
1.08266
1.09312
1.23148
1.28832
1.00213
1.00704
1.01281
1.02062
1.03917
1.07249
1.08271
1.09169
1.22792
1.28856
1.00213
1.00703
1.01281
1.02062
1.03918
1.07252
1.08275
1.09034
1.22374
1.28936
1.00213
1.00703
1.01281
1.02062
1.03918
1.07254
1.08282
1.08914
1.21923
1.2902
1.00213
1.00703
1.01281
1.02062
1.03918
1.07257
1.08283
1.08815
1.21471
1.29069
1.00213
1.00703
1.01281
1.02061
1.03918
1.07259
1.08282
1.08733
1.21045
1.29022
1.00213
1.00703
1.01281
1.02061
1.03917
1.07261
1.08282
1.08663
1.20648
1.28816
1.00213
1.00703
1.01281
1.02061
1.03917
1.07261
1.08282
1.08663
1.20648
1.28816
1.00213
1.00703
1.01281
1.02061
1.03918
1.07259
1.08282
1.08733
1.21045
1.29022
1.00213
1.00703
1.01281
1.02062
1.03918
1.07257
1.08283
1.08815
1.21471
1.29069
1.00213
1.00703
1.01281
1.02062
1.03918
1.07254
1.08282
1.08914
1.21923
1.2902
1.00213
1.00703
1.01281
1.02062
1.03918
1.07252
1.08275
1.09034
1.22374
1.28936
1.00213
1.00704
1.01281
1.02062
1.03917
1.07249
1.08271
1.09169
1.22792
1.28856
1.00213
1.00704
1.01281
1.02062
1.03917
1.07246
1.08266
1.09312
1.23148
1.28832
1.00213
1.00704
1.01281
1.02063
1.03916
1.07242
1.08262
1.09455
1.23432
1.28845
1.00213
1.00704
1.01281
1.02063
1.03914
1.07238
1.08261
1.09604
1.23653
1.28955
1.00213
1.00704
1.01281
1.02063
1.03913
1.07233
1.08261
1.09737
1.23842
1.29196
1.00213
1.00704
1.01281
1.02063
1.03912
1.07228
1.08263
1.09862
1.24029
1.2957
1.00213
1.00704
1.01281
1.02064
1.03912
1.07224
1.08267
1.09975
1.24221
1.29973
1.00213
1.00704
1.01281
1.02064
1.03911
1.07219
1.08272
1.10073
1.24414
1.30357
1.00213
1.00704
1.01281
1.02064
1.03911
1.07215
1.08278
1.10156
1.24594
1.30728
1.00213
1.00704
1.01281
1.02065
1.0391
1.07211
1.08284
1.1022
1.24746
1.31124
1.00213
1.00704
1.01281
1.02065
1.0391
1.07207
1.08291
1.10267
1.24866
1.31604
1.00213
1.00704
1.01281
1.02065
1.03911
1.07204
1.08299
1.10297
1.24957
1.32175
1.00213
1.00704
1.0128
1.02065
1.03911
1.07202
1.08305
1.10314
1.25028
1.32808
1.00213
1.00704
1.0128
1.02065
1.03911
1.072
1.08311
1.10324
1.25091
1.33364
1.00213
1.00704
1.0128
1.02065
1.03911
1.07199
1.08313
1.10328
1.25145
1.33693
1.28264
1.28107
1.27819
1.27459
1.27055
1.26483
1.25803
1.24924
1.23894
1.22654
1.28462
1.28273
1.27943
1.27501
1.27012
1.26358
1.25617
1.24677
1.23614
1.22327
1.28531
1.28336
1.28032
1.27556
1.27023
1.26316
1.25538
1.2455
1.2343
1.22086
1.28492
1.28277
1.28004
1.2754
1.2701
1.26296
1.25514
1.24514
1.2335
1.21944
1.2843
1.28192
1.27936
1.27501
1.26999
1.26314
1.25569
1.24584
1.23384
1.21898
1.28395
1.28144
1.27902
1.2751
1.27074
1.26453
1.25758
1.24779
1.23533
1.21926
1.28412
1.28159
1.27972
1.27674
1.27339
1.2678
1.26105
1.25086
1.23782
1.22023
1.28597
1.28426
1.28341
1.28132
1.27837
1.27275
1.26569
1.25484
1.24105
1.22181
1.29308
1.29141
1.29037
1.2879
1.28456
1.2785
1.27108
1.25963
1.24485
1.22365
1.3034
1.30061
1.29842
1.29486
1.29098
1.28454
1.27696
1.26492
1.24875
1.22517
1.31229
1.30893
1.30604
1.3016
1.29729
1.2906
1.28275
1.26998
1.25215
1.22606
1.32028
1.31653
1.3133
1.30816
1.30342
1.2963
1.28781
1.27399
1.25456
1.22624
1.32802
1.3239
1.32053
1.3147
1.30928
1.30139
1.29188
1.27699
1.25609
1.22582
1.33572
1.33109
1.32774
1.32131
1.31504
1.30606
1.2953
1.27951
1.25746
1.22556
1.34391
1.33824
1.33472
1.32768
1.32056
1.31066
1.29883
1.2825
1.25959
1.22662
1.35417
1.34663
1.34231
1.33434
1.32637
1.31597
1.30362
1.28723
1.26377
1.22991
1.36694
1.35609
1.34971
1.34083
1.33285
1.32306
1.31099
1.29475
1.27077
1.23616
1.38375
1.36846
1.36038
1.35079
1.3422
1.33284
1.32123
1.3054
1.28094
1.24691
1.39995
1.37953
1.3707
1.36089
1.35099
1.34044
1.32827
1.31268
1.28802
1.25857
1.4321
1.41173
1.39843
1.38505
1.37145
1.35816
1.34429
1.32902
1.3048
1.29193
1.19507
1.13929
1.08263
1.03285
0.990341
0.955723
0.940815
0.94567
1.028
1.06528
1.19053
1.13276
1.0751
1.02633
0.984608
0.952445
0.94055
0.949395
1.03536
1.06709
1.18654
1.12641
1.06789
1.02007
0.97891
0.949015
0.940259
0.95401
1.04142
1.06886
1.18321
1.12051
1.061
1.0141
0.973366
0.945767
0.939371
0.959879
1.04609
1.0707
1.18045
1.11482
1.05443
1.00813
0.968412
0.942812
0.93877
0.967573
1.05
1.07306
1.17803
1.10905
1.04785
1.00228
0.963744
0.939807
0.938868
0.97737
1.05412
1.07564
1.17566
1.10278
1.04107
0.996143
0.95904
0.937289
0.939146
0.988583
1.05878
1.07801
1.17289
1.09581
1.03347
0.989373
0.95368
0.93539
0.939587
0.999905
1.06353
1.07896
1.16929
1.08758
1.02468
0.981662
0.948027
0.93331
0.942494
1.01081
1.06791
1.07991
1.16448
1.07769
1.01455
0.973359
0.941934
0.931434
0.947785
1.02131
1.07183
1.08114
1.15819
1.06581
1.0035
0.964176
0.936414
0.929804
0.956667
1.03162
1.07541
1.08269
1.15018
1.0524
0.991119
0.95462
0.930333
0.929396
0.96877
1.04101
1.07935
1.08439
1.14054
1.03775
0.97732
0.944415
0.922824
0.929408
0.982741
1.04904
1.08405
1.08593
1.12969
1.02245
0.963603
0.933759
0.916773
0.929865
0.99726
1.05553
1.08813
1.08679
1.11832
1.00883
0.954079
0.923398
0.912462
0.937758
1.01176
1.06065
1.08954
1.08779
1.10839
1.0014
0.950761
0.913079
0.912105
0.947939
1.02436
1.06432
1.09003
1.08942
1.1027
1.0017
0.950998
0.906285
0.912725
0.960088
1.03347
1.06693
1.09199
1.09156
1.10485
1.01545
0.958569
0.90674
0.916969
0.97334
1.03954
1.06975
1.09479
1.09363
1.1266
1.05376
0.980054
0.914429
0.928643
0.988613
1.04517
1.07331
1.09784
1.09462
1.18251
1.11214
1.01366
0.935774
0.948914
1.00651
1.05333
1.07711
1.09919
1.09636
1.2446
1.21863
1.18744
1.15368
1.11493
1.07113
1.0255
0.97206
0.889922
0.8781
1.24427
1.21837
1.18692
1.1531
1.11431
1.07045
1.02484
0.971176
0.889948
0.879945
1.24376
1.21779
1.18617
1.15211
1.113
1.06907
1.02349
0.969559
0.890171
0.880775
1.24295
1.21662
1.185
1.1504
1.11096
1.06691
1.0214
0.967133
0.89079
0.882689
1.24189
1.21504
1.18331
1.14813
1.10822
1.06409
1.01866
0.963926
0.891181
0.885663
1.24063
1.21318
1.18109
1.14516
1.10467
1.06042
1.01508
0.960041
0.891838
0.889961
1.23926
1.21115
1.1784
1.14166
1.10059
1.05625
1.01102
0.955509
0.893166
0.895967
1.23787
1.20896
1.17527
1.13759
1.09595
1.05162
1.00634
0.95053
0.892355
0.90534
1.23639
1.20647
1.17167
1.13302
1.09085
1.04655
1.00108
0.945245
0.890422
0.917557
1.23443
1.20337
1.16746
1.12799
1.08543
1.04114
0.995124
0.939531
0.888969
0.93173
1.23158
1.19944
1.16262
1.12259
1.07976
1.03546
0.988383
0.933593
0.888279
0.947678
1.22762
1.19484
1.15733
1.11686
1.07389
1.0293
0.980749
0.928224
0.888628
0.964993
1.22292
1.19
1.15183
1.11087
1.06765
1.02268
0.972332
0.923138
0.891223
0.982542
1.21881
1.18551
1.14642
1.10454
1.06081
1.01519
0.963175
0.919123
0.897538
0.998392
1.21615
1.18155
1.14096
1.09757
1.05302
1.00632
0.954453
0.917927
0.909272
1.01192
1.21481
1.17763
1.13486
1.08955
1.04385
0.99689
0.946372
0.917214
0.924852
1.02333
1.21418
1.17341
1.12769
1.08014
1.03351
0.986436
0.940538
0.918622
0.946221
1.03337
1.21232
1.16759
1.11852
1.06921
1.02209
0.976403
0.938822
0.924473
0.970857
1.04332
1.20819
1.15937
1.1072
1.05671
1.01024
0.968164
0.938045
0.931697
0.994553
1.05309
1.20151
1.1487
1.0938
1.04317
0.99889
0.960658
0.93984
0.940362
1.01461
1.06174
1.20151
1.1487
1.0938
1.04319
0.998893
0.960649
0.939825
0.94036
1.01468
1.0617
1.2082
1.15938
1.10721
1.05672
1.01024
0.968156
0.938037
0.93169
0.994406
1.05309
1.21232
1.16759
1.11852
1.06921
1.02208
0.976402
0.938824
0.92448
0.970814
1.04332
1.21418
1.17341
1.12769
1.08014
1.03351
0.986444
0.94053
0.918625
0.946233
1.03335
1.21481
1.17763
1.13487
1.08955
1.04385
0.996905
0.946387
0.917215
0.924846
1.02329
1.21616
1.18155
1.14096
1.09757
1.05303
1.00633
0.954462
0.917927
0.909254
1.01186
1.21881
1.18551
1.14642
1.10454
1.06081
1.01519
0.963171
0.919114
0.897517
0.998334
1.22292
1.19
1.15183
1.11087
1.06765
1.02268
0.972333
0.92313
0.891208
0.982496
1.22762
1.19484
1.15733
1.11686
1.07389
1.0293
0.98075
0.928222
0.888621
0.964964
1.23158
1.19944
1.16262
1.12259
1.07976
1.03546
0.988387
0.933596
0.888277
0.947661
1.23443
1.20337
1.16746
1.128
1.08543
1.04115
0.995128
0.939537
0.888972
0.931721
1.23639
1.20647
1.17167
1.13302
1.09085
1.04655
1.00108
0.945251
0.890427
0.917556
1.23787
1.20896
1.17527
1.13759
1.09595
1.05162
1.00634
0.950532
0.892359
0.905343
1.23926
1.21115
1.1784
1.14166
1.10059
1.05625
1.01102
0.95551
0.893168
0.895969
1.24063
1.21318
1.18109
1.14516
1.10467
1.06042
1.01508
0.960039
0.891837
0.889958
1.24189
1.21504
1.18331
1.14813
1.10822
1.06409
1.01866
0.963925
0.89118
0.885658
1.24295
1.21662
1.185
1.1504
1.11096
1.06691
1.0214
0.967131
0.890789
0.882684
1.24376
1.21779
1.18617
1.15211
1.113
1.06907
1.02349
0.969558
0.890168
0.880776
1.24427
1.21837
1.18692
1.1531
1.11431
1.07045
1.02484
0.971174
0.889944
0.87995
1.2446
1.21863
1.18744
1.15368
1.11493
1.07113
1.0255
0.972059
0.889919
0.878105
1.28098
1.2802
1.27865
1.2761
1.2726
1.26743
1.26121
1.25328
1.24349
1.2317
1.28845
1.28515
1.28186
1.27834
1.27446
1.26935
1.26336
1.25603
1.24711
1.23636
1.28564
1.28218
1.27909
1.27569
1.27202
1.2674
1.26202
1.25554
1.24791
1.23837
1.27726
1.27509
1.27335
1.2706
1.26715
1.26284
1.25786
1.25212
1.24546
1.23723
1.27763
1.27436
1.2715
1.26772
1.26338
1.25828
1.25274
1.24701
1.24127
1.23481
1.27828
1.27478
1.27159
1.26742
1.26262
1.25693
1.25079
1.24477
1.23944
1.23378
1.27782
1.27452
1.27168
1.26774
1.26315
1.25772
1.25197
1.24627
1.24107
1.23556
1.27777
1.276
1.27418
1.27077
1.26657
1.26168
1.25661
1.25149
1.24625
1.24033
1.29735
1.29207
1.28709
1.28152
1.27606
1.27061
1.26528
1.25975
1.2536
1.24642
1.30842
1.30449
1.2999
1.29377
1.28711
1.28045
1.27385
1.26704
1.25948
1.25112
1.31041
1.30724
1.30379
1.29859
1.2923
1.28545
1.27817
1.27059
1.26235
1.25369
1.31156
1.3079
1.30422
1.29915
1.29318
1.2866
1.27938
1.27176
1.2636
1.25506
1.31223
1.30793
1.3039
1.29886
1.29311
1.28676
1.27973
1.27226
1.26428
1.25591
1.31198
1.30747
1.30348
1.2986
1.29306
1.28686
1.27999
1.27267
1.26492
1.25676
1.31156
1.30709
1.30319
1.2984
1.29299
1.28694
1.28028
1.27315
1.26565
1.25773
1.31141
1.30691
1.30302
1.29824
1.29289
1.28694
1.28049
1.27358
1.26636
1.25869
1.31141
1.30684
1.30292
1.29811
1.29281
1.28694
1.28064
1.27392
1.26696
1.25951
1.31149
1.30685
1.30288
1.29805
1.29278
1.28697
1.2808
1.27424
1.26747
1.26019
1.31154
1.30684
1.30284
1.29799
1.29274
1.28697
1.2809
1.27444
1.26778
1.26062
1.31155
1.30683
1.30281
1.29794
1.29272
1.28698
1.28097
1.27457
1.26797
1.26088
1.00213
1.00703
1.01281
1.02061
1.03916
1.07263
1.08284
1.0859
1.20155
1.28365
1.00213
1.00703
1.01281
1.02062
1.03915
1.07265
1.08291
1.0852
1.19548
1.27793
1.00213
1.00703
1.01281
1.02062
1.03914
1.07264
1.083
1.08468
1.18972
1.27712
1.00213
1.00703
1.01281
1.02062
1.03913
1.07263
1.08311
1.08434
1.18411
1.28035
1.00213
1.00703
1.01281
1.02062
1.03912
1.0726
1.08323
1.08409
1.1783
1.28361
1.00213
1.00703
1.01281
1.02062
1.03911
1.07257
1.08336
1.08388
1.17267
1.28482
1.00213
1.00703
1.01281
1.02063
1.0391
1.07252
1.08347
1.0837
1.16735
1.28431
1.00213
1.00704
1.01281
1.02063
1.03909
1.07248
1.08357
1.08355
1.16221
1.28096
1.00213
1.00704
1.01281
1.02063
1.03909
1.07243
1.08367
1.08344
1.15697
1.27146
1.00213
1.00704
1.01281
1.02063
1.03909
1.07238
1.08375
1.08335
1.15231
1.26308
1.00213
1.00704
1.01281
1.02063
1.03909
1.07234
1.08381
1.0833
1.14856
1.2597
1.00213
1.00704
1.01281
1.02063
1.0391
1.0723
1.08387
1.08326
1.14562
1.25879
1.00213
1.00704
1.01281
1.02063
1.03911
1.07226
1.08391
1.08323
1.14318
1.25857
1.00213
1.00704
1.01281
1.02063
1.03912
1.07223
1.08394
1.08322
1.1411
1.25848
1.00212
1.00704
1.01281
1.02063
1.03913
1.07221
1.08396
1.08322
1.13925
1.25838
1.00212
1.00704
1.01281
1.02063
1.03914
1.07219
1.08397
1.08322
1.13772
1.2583
1.00212
1.00704
1.01281
1.02063
1.03915
1.07218
1.08398
1.08323
1.13653
1.25831
1.00212
1.00704
1.01281
1.02063
1.03916
1.07217
1.08398
1.08324
1.13565
1.25839
1.00212
1.00704
1.01281
1.02063
1.03916
1.07217
1.08398
1.08324
1.13507
1.25845
1.00212
1.00704
1.01281
1.02063
1.03916
1.07217
1.08398
1.08325
1.13476
1.25846
1.00212
1.00704
1.01281
1.02063
1.03916
1.07217
1.08398
1.08325
1.13476
1.25846
1.00212
1.00704
1.01281
1.02063
1.03916
1.07217
1.08398
1.08324
1.13507
1.25845
1.00212
1.00704
1.01281
1.02063
1.03916
1.07217
1.08398
1.08324
1.13565
1.25839
1.00212
1.00704
1.01281
1.02063
1.03915
1.07218
1.08398
1.08323
1.13653
1.2583
1.00212
1.00704
1.01281
1.02063
1.03914
1.07219
1.08397
1.08322
1.13772
1.2583
1.00212
1.00704
1.01281
1.02063
1.03913
1.07221
1.08396
1.08322
1.13925
1.25838
1.00213
1.00704
1.01281
1.02063
1.03912
1.07223
1.08394
1.08322
1.1411
1.25848
1.00213
1.00704
1.01281
1.02063
1.03911
1.07226
1.08391
1.08323
1.14318
1.25857
1.00213
1.00704
1.01281
1.02063
1.0391
1.0723
1.08387
1.08326
1.14562
1.25879
1.00213
1.00704
1.01281
1.02063
1.03909
1.07234
1.08381
1.0833
1.14856
1.2597
1.00213
1.00704
1.01281
1.02063
1.03909
1.07238
1.08375
1.08335
1.15231
1.26308
1.00213
1.00704
1.01281
1.02063
1.03909
1.07243
1.08367
1.08344
1.15697
1.27146
1.00213
1.00704
1.01281
1.02063
1.03909
1.07248
1.08357
1.08355
1.16221
1.28096
1.00213
1.00703
1.01281
1.02063
1.0391
1.07252
1.08347
1.0837
1.16735
1.28431
1.00213
1.00703
1.01281
1.02062
1.03911
1.07257
1.08336
1.08388
1.17267
1.28482
1.00213
1.00703
1.01281
1.02062
1.03912
1.0726
1.08323
1.08409
1.1783
1.28361
1.00213
1.00703
1.01281
1.02062
1.03913
1.07263
1.08311
1.08434
1.18411
1.28035
1.00213
1.00703
1.01281
1.02062
1.03914
1.07264
1.083
1.08468
1.18972
1.27712
1.00213
1.00703
1.01281
1.02062
1.03915
1.07265
1.08291
1.0852
1.19548
1.27793
1.00213
1.00703
1.01281
1.02061
1.03916
1.07263
1.08284
1.0859
1.20155
1.28365
1.31155
1.30683
1.30281
1.29794
1.29272
1.28698
1.28097
1.27457
1.26797
1.26088
1.31154
1.30684
1.30284
1.29799
1.29274
1.28697
1.2809
1.27444
1.26778
1.26062
1.31149
1.30685
1.30288
1.29805
1.29278
1.28697
1.2808
1.27424
1.26747
1.26019
1.31141
1.30684
1.30292
1.29811
1.29281
1.28694
1.28064
1.27392
1.26696
1.25951
1.31141
1.30691
1.30302
1.29824
1.29289
1.28694
1.28049
1.27357
1.26636
1.25869
1.31156
1.30709
1.30319
1.2984
1.29299
1.28694
1.28028
1.27315
1.26565
1.25773
1.31198
1.30747
1.30348
1.2986
1.29306
1.28686
1.27999
1.27267
1.26492
1.25676
1.31223
1.30793
1.3039
1.29886
1.29311
1.28676
1.27973
1.27226
1.26428
1.25591
1.31156
1.3079
1.30422
1.29915
1.29318
1.2866
1.27938
1.27176
1.2636
1.25506
1.31041
1.30724
1.30379
1.29859
1.2923
1.28545
1.27817
1.27059
1.26235
1.25369
1.30842
1.30449
1.2999
1.29377
1.28711
1.28045
1.27385
1.26704
1.25948
1.25112
1.29735
1.29207
1.28709
1.28152
1.27606
1.27061
1.26528
1.25975
1.2536
1.24642
1.27777
1.276
1.27418
1.27077
1.26657
1.26168
1.25661
1.25149
1.24625
1.24033
1.27782
1.27452
1.27168
1.26774
1.26315
1.25772
1.25197
1.24626
1.24107
1.23556
1.27828
1.27478
1.27159
1.26742
1.26262
1.25693
1.25079
1.24477
1.23944
1.23378
1.27763
1.27436
1.2715
1.26772
1.26338
1.25828
1.25274
1.24701
1.24127
1.23481
1.27726
1.27509
1.27335
1.2706
1.26715
1.26284
1.25786
1.25212
1.24546
1.23723
1.28564
1.28217
1.27909
1.27569
1.27202
1.2674
1.26201
1.25554
1.24791
1.23837
1.28845
1.28515
1.28186
1.27834
1.27446
1.26935
1.26336
1.25603
1.24711
1.23636
1.28098
1.2802
1.27865
1.27609
1.2726
1.26742
1.26121
1.25328
1.24349
1.2317
)
;

boundaryField
{
    inlet
    {
        type            fixedValue;
        value           uniform 1;
    }
    outlet
    {
        type            inletOutlet;
        inletValue      uniform 1;
        value           nonuniform List<scalar> 
100
(
1.06173
1.05315
1.04337
1.03339
1.02334
1.01193
0.998409
0.982571
0.965036
0.94773
0.93179
0.917629
0.905411
0.896031
0.890023
0.885719
0.882738
0.880812
0.879968
0.87813
1.09763
1.09635
1.09349
1.09051
1.08872
1.08788
1.08783
1.08606
1.08376
1.08214
1.08099
1.08049
1.07993
1.07782
1.07515
1.07275
1.07096
1.06926
1.06722
1.06529
1.09968
1.1067
1.11761
1.13153
1.15702
1.19292
1.22785
1.24999
1.2604
1.26773
1.26897
1.26766
1.25096
1.22325
1.18951
1.1574
1.13642
1.11666
1.10308
1.098
1.06528
1.06709
1.06889
1.07075
1.07308
1.07565
1.078
1.07901
1.07997
1.08116
1.08265
1.08432
1.08592
1.08687
1.08777
1.08935
1.0915
1.09365
1.09472
1.09639
0.878125
0.879962
0.880811
0.882743
0.885725
0.890026
0.89603
0.905408
0.91763
0.931798
0.947746
0.965064
0.982616
0.998466
1.01198
1.02338
1.03342
1.04337
1.05315
1.06177
)
;
    }
    triangle
    {
        type            zeroGradient;
    }
    top
    {
        type            symmetryPlane;
    }
    bottom
    {
        type            symmetryPlane;
    }
    defaultFaces
    {
        type            empty;
    }
}


// ************************************************************************* //
