/*--------------------------------*- C++ -*----------------------------------*\
  =========                 |
  \\      /  F ield         | OpenFOAM: The Open Source CFD Toolbox
   \\    /   O peration     | Website:  https://openfoam.org
    \\  /    A nd           | Version:  8
     \\/     M anipulation  |
\*---------------------------------------------------------------------------*/
FoamFile
{
    version     2.0;
    format      ascii;
    class       volVectorField;
    location    "1.5";
    object      U;
}
// * * * * * * * * * * * * * * * * * * * * * * * * * * * * * * * * * * * * * //

dimensions      [0 1 -1 0 0 0 0];

internalField   nonuniform List<vector> 
2600
(
(0.427823 -0.0505239 0)
(0.832843 0.070886 0)
(1.25948 0.227451 0)
(1.48956 0.346352 0)
(1.52597 0.326798 0)
(1.42621 0.192602 0)
(1.34405 0.0999652 0)
(1.31251 0.0602935 0)
(1.24003 0.0567371 0)
(1.20769 0.00603131 0)
(0.0679754 -0.158535 0)
(0.476125 0.0206503 0)
(1.00772 0.193099 0)
(1.38363 0.318307 0)
(1.49062 0.296256 0)
(1.41099 0.169255 0)
(1.3407 0.0874823 0)
(1.31055 0.0609769 0)
(1.23566 0.0598079 0)
(1.20259 0.0040546 0)
(-0.0673972 -0.159454 0)
(0.211833 -0.0215649 0)
(0.713416 0.131701 0)
(1.19817 0.276107 0)
(1.40778 0.270283 0)
(1.37434 0.163006 0)
(1.32666 0.0764969 0)
(1.3045 0.049391 0)
(1.22765 0.0497567 0)
(1.19256 0.00162558 0)
(-0.123156 -0.179642 0)
(0.0376824 -0.06408 0)
(0.40856 0.0924883 0)
(0.935449 0.21383 0)
(1.25874 0.22995 0)
(1.29986 0.147611 0)
(1.28786 0.0841905 0)
(1.27823 0.046763 0)
(1.21133 0.0405866 0)
(1.17044 0.0129343 0)
(-0.170331 -0.171805 0)
(-0.111302 -0.0746375 0)
(0.10498 0.048369 0)
(0.60233 0.153689 0)
(1.02268 0.175306 0)
(1.15864 0.116854 0)
(1.19038 0.0809948 0)
(1.20093 0.0578487 0)
(1.16809 0.0606743 0)
(1.11765 0.0140387 0)
(-0.218728 -0.169976 0)
(-0.262617 -0.0843262 0)
(-0.201744 0.0330128 0)
(0.210224 0.0981739 0)
(0.677644 0.134656 0)
(0.909474 0.101942 0)
(0.990759 0.0558245 0)
(1.02872 0.0409703 0)
(1.05711 0.0551426 0)
(1.0222 0.00651904 0)
(-0.263271 -0.147632 0)
(-0.418812 -0.0723192 0)
(-0.482997 0.00766484 0)
(-0.199172 0.0436888 0)
(0.242092 0.0912013 0)
(0.53905 0.0852883 0)
(0.673839 0.0600518 0)
(0.756603 0.0444316 0)
(0.864451 0.0508074 0)
(0.892504 0.0120199 0)
(-0.306267 -0.118472 0)
(-0.551215 -0.0659423 0)
(-0.698782 0.000569986 0)
(-0.544302 0.0170797 0)
(-0.17864 0.0636776 0)
(0.140222 0.062145 0)
(0.326289 0.0400691 0)
(0.461902 0.0313375 0)
(0.639808 0.0333892 0)
(0.760428 0.0106373 0)
(-0.33067 -0.0726801 0)
(-0.631392 -0.0443488 0)
(-0.818544 -0.00386426 0)
(-0.749991 0.00470249 0)
(-0.45538 0.0423876 0)
(-0.136382 0.0468659 0)
(0.0869494 0.0324261 0)
(0.259 0.0251101 0)
(0.474003 0.0328331 0)
(0.670194 0.00258682 0)
(-0.35172 -0.02562 0)
(-0.662664 -0.0142251 0)
(-0.854435 0.00169772 0)
(-0.815046 0.00499423 0)
(-0.555861 0.0191339 0)
(-0.239927 0.0204062 0)
(0.000263426 0.0143626 0)
(0.186488 0.0106949 0)
(0.409163 0.0168273 0)
(0.638609 0.00960349 0)
(-0.351442 0.0254214 0)
(-0.662547 0.0148367 0)
(-0.854677 -0.000351847 0)
(-0.815199 -0.00491856 0)
(-0.555992 -0.0197522 0)
(-0.240201 -0.0199288 0)
(3.00269e-05 -0.0131703 0)
(0.186747 -0.0111287 0)
(0.409632 -0.0117475 0)
(0.637495 0.00273249 0)
(-0.329978 0.072012 0)
(-0.631113 0.0443315 0)
(-0.818793 0.00447975 0)
(-0.75066 -0.00577465 0)
(-0.455986 -0.0431099 0)
(-0.137682 -0.0471085 0)
(0.0858209 -0.0314731 0)
(0.259931 -0.0251009 0)
(0.475171 -0.0326811 0)
(0.669832 -0.0118861 0)
(-0.306 0.117926 0)
(-0.551044 0.065759 0)
(-0.699006 -0.00173285 0)
(-0.54472 -0.018243 0)
(-0.179829 -0.0638304 0)
(0.13777 -0.0617211 0)
(0.324262 -0.0388577 0)
(0.463084 -0.0302991 0)
(0.641727 -0.0440905 0)
(0.760908 -0.0125964 0)
(-0.263383 0.147531 0)
(-0.419236 0.0722978 0)
(-0.483712 -0.00754721 0)
(-0.199001 -0.0434544 0)
(0.240772 -0.0919204 0)
(0.536215 -0.0855426 0)
(0.67163 -0.0588639 0)
(0.757952 -0.0441447 0)
(0.865574 -0.0543191 0)
(0.893129 -0.00751335 0)
(-0.219131 0.169713 0)
(-0.26362 0.0842402 0)
(-0.202935 -0.0337243 0)
(0.210221 -0.0999636 0)
(0.67678 -0.134793 0)
(0.907537 -0.101723 0)
(0.989552 -0.0544948 0)
(1.03032 -0.0448325 0)
(1.05648 -0.0519867 0)
(1.02293 -0.0209629 0)
(-0.171103 0.171038 0)
(-0.112422 0.0741447 0)
(0.104069 -0.0480877 0)
(0.602504 -0.152762 0)
(1.02216 -0.174963 0)
(1.15777 -0.116257 0)
(1.1904 -0.0821193 0)
(1.20172 -0.0535987 0)
(1.16626 -0.0549378 0)
(1.11708 -0.0129634 0)
(-0.124115 0.178931 0)
(0.0367696 0.0642038 0)
(0.408298 -0.0918486 0)
(0.935552 -0.214207 0)
(1.25822 -0.229765 0)
(1.29954 -0.147413 0)
(1.28808 -0.0821063 0)
(1.27887 -0.0462402 0)
(1.21123 -0.0448755 0)
(1.16919 0.00567213 0)
(-0.0679926 0.159643 0)
(0.211172 0.0220183 0)
(0.713311 -0.132193 0)
(1.19856 -0.275921 0)
(1.40735 -0.269903 0)
(1.37435 -0.163385 0)
(1.32674 -0.0752059 0)
(1.30434 -0.0571978 0)
(1.22707 -0.0558499 0)
(1.19361 -0.0037847 0)
(0.0674923 0.158997 0)
(0.475687 -0.0200717 0)
(1.00795 -0.192704 0)
(1.38379 -0.318908 0)
(1.49018 -0.295913 0)
(1.4111 -0.169001 0)
(1.34018 -0.0884366 0)
(1.31174 -0.0604809 0)
(1.23591 -0.0597769 0)
(1.20289 -0.0122154 0)
(0.427673 0.0506856 0)
(0.832603 -0.0707024 0)
(1.25956 -0.228033 0)
(1.4898 -0.346101 0)
(1.52567 -0.326282 0)
(1.42628 -0.19213 0)
(1.34377 -0.100322 0)
(1.31302 -0.0555673 0)
(1.24041 -0.0525778 0)
(1.20714 -0.0107415 0)
(1.00129 0.087366 0)
(1.19141 -0.0856996 0)
(1.44232 -0.254924 0)
(1.54077 -0.366981 0)
(1.54045 -0.354907 0)
(1.43977 -0.21609 0)
(1.34321 -0.109049 0)
(1.31501 -0.0557013 0)
(1.24458 -0.0471257 0)
(1.2112 -0.00181667 0)
(1.21887 0.205668 0)
(1.40463 -0.067862 0)
(1.54927 -0.256444 0)
(1.55921 -0.370574 0)
(1.54505 -0.377349 0)
(1.45669 -0.245455 0)
(1.34348 -0.114703 0)
(1.31914 -0.0588733 0)
(1.2498 -0.0451246 0)
(1.21533 0.003862 0)
(1.2763 0.207358 0)
(1.47805 -0.0713908 0)
(1.56956 -0.251597 0)
(1.55988 -0.363594 0)
(1.54469 -0.389328 0)
(1.4709 -0.273445 0)
(1.3553 -0.124915 0)
(1.32658 -0.0628118 0)
(1.25698 -0.0450253 0)
(1.22017 0.00542492 0)
(1.26098 0.230957 0)
(1.48673 -0.0396291 0)
(1.55722 -0.233328 0)
(1.55355 -0.345445 0)
(1.54202 -0.393956 0)
(1.48465 -0.300663 0)
(1.36724 -0.138863 0)
(1.33534 -0.0652961 0)
(1.26275 -0.0448083 0)
(1.22443 0.00415183 0)
(1.24196 0.225289 0)
(1.47059 -0.015486 0)
(1.54082 -0.207536 0)
(1.55001 -0.337999 0)
(1.53588 -0.39098 0)
(1.4973 -0.326635 0)
(1.38707 -0.161638 0)
(1.34495 -0.0689402 0)
(1.2669 -0.0427698 0)
(1.22612 0.00445021 0)
(1.22096 0.223224 0)
(1.44412 0.00655058 0)
(1.52606 -0.182421 0)
(1.54477 -0.318085 0)
(1.53123 -0.383082 0)
(1.50915 -0.35133 0)
(1.40533 -0.184554 0)
(1.35435 -0.0740341 0)
(1.27004 -0.0393763 0)
(1.22772 0.00831849 0)
(1.20153 0.218552 0)
(1.41989 0.0172323 0)
(1.50838 -0.155373 0)
(1.53813 -0.301951 0)
(1.53455 -0.38039 0)
(1.51591 -0.370332 0)
(1.42436 -0.209866 0)
(1.36381 -0.0804107 0)
(1.27245 -0.0349211 0)
(1.22853 0.0130286 0)
(1.18399 0.213848 0)
(1.39453 0.0332597 0)
(1.49521 -0.141181 0)
(1.52884 -0.278485 0)
(1.53717 -0.373919 0)
(1.52 -0.373804 0)
(1.44442 -0.236222 0)
(1.37326 -0.087766 0)
(1.27486 -0.0341048 0)
(1.22939 0.0152979 0)
(1.16825 0.207868 0)
(1.37255 0.0429888 0)
(1.47903 -0.121975 0)
(1.52022 -0.26126 0)
(1.53929 -0.365687 0)
(1.51831 -0.373029 0)
(1.46302 -0.263435 0)
(1.38312 -0.0968216 0)
(1.27711 -0.0337804 0)
(1.23104 0.0146082 0)
(1.15428 0.201929 0)
(1.34972 0.0532704 0)
(1.46381 -0.108245 0)
(1.50715 -0.237976 0)
(1.53933 -0.351862 0)
(1.51364 -0.369145 0)
(1.47752 -0.286916 0)
(1.39435 -0.110381 0)
(1.28035 -0.0326123 0)
(1.23342 0.0154385 0)
(1.14147 0.19594 0)
(1.33035 0.0574264 0)
(1.44568 -0.0924953 0)
(1.4973 -0.224356 0)
(1.53228 -0.329451 0)
(1.51261 -0.364265 0)
(1.48782 -0.303501 0)
(1.4076 -0.128488 0)
(1.28477 -0.0313596 0)
(1.23702 0.0176735 0)
(1.13022 0.189976 0)
(1.31126 0.0631124 0)
(1.42937 -0.0833369 0)
(1.48404 -0.206867 0)
(1.52627 -0.314957 0)
(1.51031 -0.355935 0)
(1.49479 -0.312863 0)
(1.42318 -0.148526 0)
(1.29017 -0.030731 0)
(1.24148 0.021334 0)
(1.12016 0.184209 0)
(1.29395 0.0664574 0)
(1.41156 -0.0715267 0)
(1.47243 -0.196317 0)
(1.51718 -0.297033 0)
(1.50566 -0.349966 0)
(1.49945 -0.31793 0)
(1.43996 -0.168818 0)
(1.29778 -0.031869 0)
(1.24605 0.024752 0)
(1.11058 0.178357 0)
(1.27674 0.0701985 0)
(1.39467 -0.06252 0)
(1.45913 -0.182632 0)
(1.50858 -0.284269 0)
(1.49968 -0.342064 0)
(1.50656 -0.318799 0)
(1.455 -0.186969 0)
(1.30723 -0.0346731 0)
(1.25049 0.0265708 0)
(1.10109 0.172586 0)
(1.26039 0.0718437 0)
(1.37635 -0.0520232 0)
(1.44682 -0.17288 0)
(1.49764 -0.269808 0)
(1.49645 -0.333942 0)
(1.51388 -0.317105 0)
(1.4679 -0.204384 0)
(1.31852 -0.0393313 0)
(1.25339 0.0269713 0)
(1.09177 0.166952 0)
(1.24416 0.0737244 0)
(1.35964 -0.0449323 0)
(1.43324 -0.161432 0)
(1.48703 -0.258128 0)
(1.49716 -0.326659 0)
(1.51731 -0.313079 0)
(1.47747 -0.2188 0)
(1.33088 -0.0448794 0)
(1.25484 0.0291795 0)
(1.08235 0.161252 0)
(1.22907 0.0748075 0)
(1.34276 -0.0369761 0)
(1.42119 -0.153427 0)
(1.47607 -0.246916 0)
(1.49812 -0.317819 0)
(1.51859 -0.310142 0)
(1.48494 -0.230678 0)
(1.34445 -0.0509428 0)
(1.255 0.0324452 0)
(1.0743 0.155706 0)
(1.21556 0.0756815 0)
(1.32811 -0.0309415 0)
(1.40886 -0.143503 0)
(1.46646 -0.238108 0)
(1.49889 -0.31037 0)
(1.51864 -0.307129 0)
(1.49061 -0.238341 0)
(1.3599 -0.0573426 0)
(1.25519 0.0355899 0)
(1.06761 0.149967 0)
(1.20387 0.0758841 0)
(1.31426 -0.0244418 0)
(1.39805 -0.134845 0)
(1.45775 -0.229844 0)
(1.49862 -0.303756 0)
(1.51835 -0.305906 0)
(1.49537 -0.243749 0)
(1.37816 -0.0642616 0)
(1.25785 0.0368677 0)
(1.05985 0.144466 0)
(1.1929 0.0757964 0)
(1.30205 -0.0192159 0)
(1.38729 -0.125617 0)
(1.44972 -0.221357 0)
(1.49695 -0.298663 0)
(1.51631 -0.306649 0)
(1.50064 -0.247956 0)
(1.40065 -0.0730346 0)
(1.26419 0.0384944 0)
(0.391622 0.138561 0)
(0.462536 0.171429 0)
(0.503115 0.224548 0)
(0.546392 0.263885 0)
(0.584584 0.296389 0)
(0.622642 0.322594 0)
(0.662944 0.348141 0)
(0.711481 0.372926 0)
(0.775898 0.406793 0)
(0.892652 0.439644 0)
(0.419255 0.168295 0)
(0.472341 0.190028 0)
(0.501526 0.229697 0)
(0.541433 0.262841 0)
(0.57901 0.293491 0)
(0.618309 0.318579 0)
(0.659242 0.342458 0)
(0.708946 0.366423 0)
(0.775428 0.398299 0)
(0.890503 0.425986 0)
(0.472573 0.166486 0)
(0.511077 0.179831 0)
(0.527549 0.208932 0)
(0.558691 0.237398 0)
(0.589893 0.268093 0)
(0.628188 0.294649 0)
(0.671256 0.321715 0)
(0.724311 0.347299 0)
(0.795003 0.37916 0)
(0.915459 0.396131 0)
(0.523837 0.177656 0)
(0.553836 0.192901 0)
(0.563613 0.218018 0)
(0.590847 0.236949 0)
(0.616568 0.260241 0)
(0.650426 0.281724 0)
(0.688873 0.306328 0)
(0.738682 0.329555 0)
(0.808416 0.357636 0)
(0.926915 0.366562 0)
(0.567385 0.177557 0)
(0.591379 0.191148 0)
(0.599788 0.213848 0)
(0.625295 0.230808 0)
(0.647335 0.253738 0)
(0.678813 0.274632 0)
(0.714926 0.298048 0)
(0.763806 0.318321 0)
(0.833504 0.342217 0)
(0.948498 0.343949 0)
(0.603956 0.178135 0)
(0.623504 0.190622 0)
(0.631176 0.211422 0)
(0.65499 0.22705 0)
(0.674789 0.248501 0)
(0.704791 0.267364 0)
(0.739309 0.288944 0)
(0.787144 0.305999 0)
(0.85528 0.32581 0)
(0.963072 0.323078 0)
(0.635493 0.175721 0)
(0.651925 0.187316 0)
(0.658956 0.206169 0)
(0.68055 0.220843 0)
(0.697958 0.240857 0)
(0.726063 0.257783 0)
(0.758928 0.277465 0)
(0.805679 0.291975 0)
(0.871231 0.30843 0)
(0.971956 0.304587 0)
(0.663527 0.17401 0)
(0.677891 0.185331 0)
(0.684666 0.202936 0)
(0.704062 0.216915 0)
(0.719482 0.23514 0)
(0.745419 0.249233 0)
(0.776153 0.266141 0)
(0.821016 0.277997 0)
(0.882793 0.291209 0)
(0.976263 0.287721 0)
(0.688683 0.171849 0)
(0.701325 0.182641 0)
(0.707676 0.198727 0)
(0.724789 0.211733 0)
(0.738718 0.228435 0)
(0.762959 0.240689 0)
(0.79216 0.255628 0)
(0.835416 0.26552 0)
(0.893989 0.276098 0)
(0.979719 0.272528 0)
(0.711161 0.170127 0)
(0.722163 0.180129 0)
(0.727855 0.194424 0)
(0.742797 0.2061 0)
(0.755851 0.221446 0)
(0.778911 0.232403 0)
(0.806724 0.245618 0)
(0.847745 0.253707 0)
(0.902396 0.261774 0)
(0.981485 0.258557 0)
(0.729778 0.16665 0)
(0.739174 0.175513 0)
(0.744137 0.188088 0)
(0.757502 0.198751 0)
(0.770481 0.213292 0)
(0.793461 0.224245 0)
(0.820911 0.237249 0)
(0.859817 0.243851 0)
(0.910438 0.249576 0)
(0.982084 0.245912 0)
(0.744006 0.162917 0)
(0.752536 0.170722 0)
(0.757397 0.181836 0)
(0.769842 0.191215 0)
(0.782674 0.204361 0)
(0.805584 0.214761 0)
(0.833141 0.228131 0)
(0.871562 0.235757 0)
(0.918994 0.239412 0)
(0.983865 0.235139 0)
(0.754922 0.155121 0)
(0.762618 0.162088 0)
(0.767744 0.172912 0)
(0.780205 0.182647 0)
(0.793303 0.195509 0)
(0.815734 0.205268 0)
(0.842534 0.217675 0)
(0.880568 0.226433 0)
(0.925821 0.229862 0)
(0.98517 0.225549 0)
(0.766553 0.15007 0)
(0.772777 0.15555 0)
(0.77706 0.164714 0)
(0.788986 0.173615 0)
(0.802376 0.186147 0)
(0.824504 0.196077 0)
(0.850309 0.207529 0)
(0.886688 0.216241 0)
(0.930134 0.220024 0)
(0.984771 0.215994 0)
(0.779132 0.146724 0)
(0.784313 0.151511 0)
(0.7877 0.159121 0)
(0.798196 0.166159 0)
(0.810603 0.1771 0)
(0.831624 0.186562 0)
(0.85644 0.197328 0)
(0.890868 0.205504 0)
(0.933102 0.210305 0)
(0.983597 0.20688 0)
(0.790259 0.142035 0)
(0.794609 0.146223 0)
(0.797946 0.153487 0)
(0.808087 0.16017 0)
(0.819684 0.169702 0)
(0.838814 0.177889 0)
(0.861824 0.18747 0)
(0.893822 0.194528 0)
(0.934127 0.200009 0)
(0.981766 0.198067 0)
(0.801859 0.138857 0)
(0.80522 0.142512 0)
(0.808567 0.149048 0)
(0.818209 0.155078 0)
(0.828791 0.163557 0)
(0.845868 0.17042 0)
(0.866551 0.178482 0)
(0.895565 0.184361 0)
(0.932683 0.189655 0)
(0.978332 0.189235 0)
(0.811355 0.136374 0)
(0.813726 0.1393 0)
(0.817315 0.144845 0)
(0.826182 0.150255 0)
(0.835845 0.157732 0)
(0.851444 0.163597 0)
(0.870412 0.170555 0)
(0.896796 0.175514 0)
(0.930582 0.179726 0)
(0.974577 0.180526 0)
(0.818675 0.132746 0)
(0.820224 0.13564 0)
(0.824228 0.140864 0)
(0.832183 0.145767 0)
(0.841187 0.15218 0)
(0.855984 0.157029 0)
(0.874488 0.162971 0)
(0.899699 0.167389 0)
(0.930829 0.169546 0)
(0.972107 0.171347 0)
(0.825875 0.13104 0)
(0.827266 0.133524 0)
(0.831693 0.137695 0)
(0.839256 0.14201 0)
(0.848133 0.147234 0)
(0.861784 0.150703 0)
(0.878305 0.155379 0)
(0.900716 0.159442 0)
(0.928202 0.161147 0)
(0.965982 0.163328 0)
(1.56673 -2.06942e-08 0)
(1.54818 -1.82062e-07 0)
(1.5271 1.10716e-06 0)
(1.50058 -6.72961e-06 0)
(1.44618 4.04138e-05 0)
(1.35887 -5.22719e-05 0)
(1.32137 -9.92654e-05 0)
(1.26322 0.000389958 0)
(0.866233 0.00469633 0)
(0.501383 0.0147531 0)
(1.56673 -8.43526e-08 0)
(1.54818 -4.2647e-07 0)
(1.5271 3.07366e-06 0)
(1.50058 -1.94025e-05 0)
(1.44619 0.000121372 0)
(1.35886 -0.000168119 0)
(1.32128 -0.000214849 0)
(1.2631 0.00124501 0)
(0.869759 0.0143 0)
(0.524284 0.0446441 0)
(1.56673 -1.47597e-07 0)
(1.54818 -6.89571e-07 0)
(1.5271 5.03497e-06 0)
(1.50058 -3.17975e-05 0)
(1.44621 0.000199041 0)
(1.35879 -0.000277612 0)
(1.32116 -0.000320694 0)
(1.26332 0.0021864 0)
(0.875397 0.022519 0)
(0.557571 0.0667823 0)
(1.56673 -2.09312e-07 0)
(1.54818 -9.28185e-07 0)
(1.5271 6.94138e-06 0)
(1.50059 -4.3733e-05 0)
(1.44625 0.000272087 0)
(1.35868 -0.000373048 0)
(1.32099 -0.000436764 0)
(1.26376 0.0031946 0)
(0.880597 0.030449 0)
(0.588452 0.0877225 0)
(1.56673 -2.7182e-07 0)
(1.54818 -1.14974e-06 0)
(1.5271 8.75177e-06 0)
(1.50059 -5.48959e-05 0)
(1.44629 0.000338454 0)
(1.35855 -0.000455006 0)
(1.32081 -0.000550466 0)
(1.26445 0.00429124 0)
(0.886762 0.0376006 0)
(0.617879 0.101935 0)
(1.56673 -3.3556e-07 0)
(1.54818 -1.33841e-06 0)
(1.52709 1.04195e-05 0)
(1.50059 -6.49967e-05 0)
(1.44633 0.000396802 0)
(1.35842 -0.000520782 0)
(1.32064 -0.000660136 0)
(1.26554 0.00546636 0)
(0.893262 0.0441766 0)
(0.643245 0.113905 0)
(1.56673 -4.0058e-07 0)
(1.54818 -1.49039e-06 0)
(1.52709 1.1885e-05 0)
(1.5006 -7.37346e-05 0)
(1.44638 0.000444937 0)
(1.35827 -0.000570571 0)
(1.32049 -0.000764599 0)
(1.26706 0.00666237 0)
(0.900249 0.0501262 0)
(0.666546 0.121506 0)
(1.56673 -4.67544e-07 0)
(1.54818 -1.58583e-06 0)
(1.52709 1.30924e-05 0)
(1.5006 -8.08525e-05 0)
(1.44642 0.000482545 0)
(1.35813 -0.000604606 0)
(1.32037 -0.000851748 0)
(1.26905 0.00781647 0)
(0.907711 0.0554925 0)
(0.687736 0.127472 0)
(1.56673 -5.37028e-07 0)
(1.54818 -1.6159e-06 0)
(1.52709 1.39949e-05 0)
(1.5006 -8.62282e-05 0)
(1.44645 0.000510185 0)
(1.35799 -0.000624068 0)
(1.32026 -0.000934051 0)
(1.27149 0.00885003 0)
(0.915726 0.0603488 0)
(0.707439 0.131522 0)
(1.56673 -6.10133e-07 0)
(1.54818 -1.5678e-06 0)
(1.52709 1.45419e-05 0)
(1.50061 -8.96197e-05 0)
(1.44648 0.000527245 0)
(1.35785 -0.00063319 0)
(1.32014 -0.000991274 0)
(1.27439 0.0097052 0)
(0.924399 0.0647305 0)
(0.725515 0.1351 0)
(1.56673 -6.87536e-07 0)
(1.54818 -1.43949e-06 0)
(1.52708 1.4703e-05 0)
(1.50061 -9.10885e-05 0)
(1.4465 0.000535778 0)
(1.35772 -0.000629787 0)
(1.32001 -0.00107368 0)
(1.27751 0.0102995 0)
(0.9337 0.0686991 0)
(0.742091 0.137142 0)
(1.56673 -7.69901e-07 0)
(1.54818 -1.22317e-06 0)
(1.52708 1.44415e-05 0)
(1.50062 -9.06616e-05 0)
(1.44652 0.000537803 0)
(1.35759 -0.000613946 0)
(1.31984 -0.00111235 0)
(1.281 0.0106654 0)
(0.943518 0.0721481 0)
(0.757175 0.139083 0)
(1.56673 -8.57284e-07 0)
(1.54819 -9.17847e-07 0)
(1.52708 1.37478e-05 0)
(1.50062 -8.81057e-05 0)
(1.44653 0.000533541 0)
(1.35747 -0.000593528 0)
(1.31969 -0.00118487 0)
(1.28459 0.0107084 0)
(0.953401 0.0751978 0)
(0.771003 0.139646 0)
(1.56673 -9.49229e-07 0)
(1.54819 -5.26968e-07 0)
(1.52708 1.26111e-05 0)
(1.50063 -8.30122e-05 0)
(1.44654 0.000514993 0)
(1.35736 -0.000564799 0)
(1.31951 -0.00124305 0)
(1.28818 0.0103879 0)
(0.963186 0.0776183 0)
(0.783653 0.141367 0)
(1.56673 -1.04487e-06 0)
(1.54819 -6.04784e-08 0)
(1.52708 1.10654e-05 0)
(1.50063 -7.56085e-05 0)
(1.44656 0.000483111 0)
(1.35724 -0.000529014 0)
(1.31937 -0.00132113 0)
(1.29151 0.0098486 0)
(0.972687 0.0797039 0)
(0.795679 0.140068 0)
(1.56673 -1.14329e-06 0)
(1.54819 4.70199e-07 0)
(1.52708 9.15259e-06 0)
(1.50063 -6.60405e-05 0)
(1.44659 0.000437769 0)
(1.35713 -0.000486601 0)
(1.31925 -0.00137726 0)
(1.29495 0.00892209 0)
(0.982043 0.0812112 0)
(0.80787 0.140717 0)
(1.56673 -1.24368e-06 0)
(1.54819 1.05286e-06 0)
(1.52707 6.9308e-06 0)
(1.50063 -5.45476e-05 0)
(1.44662 0.000377024 0)
(1.35702 -0.000435651 0)
(1.31931 -0.00146937 0)
(1.29757 0.00772624 0)
(0.991272 0.0825808 0)
(0.818782 0.138034 0)
(1.56673 -1.34521e-06 0)
(1.54819 1.67491e-06 0)
(1.52707 4.46919e-06 0)
(1.50063 -4.1631e-05 0)
(1.44665 0.000306766 0)
(1.35691 -0.000374658 0)
(1.31962 -0.00160163 0)
(1.29895 0.00660599 0)
(1.00052 0.0832495 0)
(0.828608 0.137553 0)
(1.56673 -1.44694e-06 0)
(1.54819 2.32451e-06 0)
(1.52707 1.837e-06 0)
(1.50063 -2.76723e-05 0)
(1.44668 0.00022773 0)
(1.35681 -0.000301972 0)
(1.32005 -0.00162848 0)
(1.29961 0.00567985 0)
(1.00984 0.0836741 0)
(0.834473 0.133728 0)
(1.56673 -1.54441e-06 0)
(1.54819 2.97857e-06 0)
(1.52707 -8.69361e-07 0)
(1.50063 -1.31682e-05 0)
(1.44671 0.000140559 0)
(1.35673 -0.000216499 0)
(1.32036 -0.00167505 0)
(1.30012 0.00477857 0)
(1.01931 0.0837907 0)
(0.840362 0.132183 0)
(1.56673 1.54438e-06 0)
(1.54819 -2.97854e-06 0)
(1.52707 8.6931e-07 0)
(1.50063 1.31686e-05 0)
(1.44671 -0.000140562 0)
(1.35673 0.000216502 0)
(1.32036 0.00167505 0)
(1.30012 -0.00477856 0)
(1.01931 -0.0837907 0)
(0.840362 -0.132183 0)
(1.56673 1.44692e-06 0)
(1.54819 -2.32447e-06 0)
(1.52707 -1.83707e-06 0)
(1.50063 2.76728e-05 0)
(1.44668 -0.000227733 0)
(1.35681 0.000301974 0)
(1.32005 0.00162848 0)
(1.29961 -0.00567984 0)
(1.00984 -0.0836741 0)
(0.834473 -0.133728 0)
(1.56673 1.34518e-06 0)
(1.54819 -1.67486e-06 0)
(1.52707 -4.46927e-06 0)
(1.50063 4.16315e-05 0)
(1.44665 -0.000306769 0)
(1.35691 0.000374661 0)
(1.31962 0.00160163 0)
(1.29895 -0.00660598 0)
(1.00052 -0.0832496 0)
(0.828608 -0.137553 0)
(1.56673 1.24365e-06 0)
(1.54819 -1.0528e-06 0)
(1.52707 -6.9309e-06 0)
(1.50063 5.45481e-05 0)
(1.44662 -0.000377027 0)
(1.35702 0.000435654 0)
(1.31931 0.00146937 0)
(1.29757 -0.00772624 0)
(0.991272 -0.0825809 0)
(0.818782 -0.138034 0)
(1.56673 1.14325e-06 0)
(1.54819 -4.70123e-07 0)
(1.52708 -9.15271e-06 0)
(1.50063 6.60411e-05 0)
(1.44659 -0.000437772 0)
(1.35713 0.000486604 0)
(1.31925 0.00137726 0)
(1.29495 -0.00892208 0)
(0.982043 -0.0812113 0)
(0.80787 -0.140717 0)
(1.56673 1.04483e-06 0)
(1.54819 6.05668e-08 0)
(1.52708 -1.10656e-05 0)
(1.50063 7.56091e-05 0)
(1.44656 -0.000483114 0)
(1.35724 0.000529016 0)
(1.31937 0.00132113 0)
(1.29151 -0.00984859 0)
(0.972687 -0.079704 0)
(0.795679 -0.140068 0)
(1.56673 9.49182e-07 0)
(1.54819 5.27071e-07 0)
(1.52708 -1.26112e-05 0)
(1.50063 8.30127e-05 0)
(1.44654 -0.000514995 0)
(1.35736 0.000564801 0)
(1.31951 0.00124305 0)
(1.28818 -0.0103879 0)
(0.963186 -0.0776184 0)
(0.783653 -0.141367 0)
(1.56673 8.57231e-07 0)
(1.54819 9.17966e-07 0)
(1.52708 -1.3748e-05 0)
(1.50062 8.81062e-05 0)
(1.44653 -0.000533543 0)
(1.35747 0.000593529 0)
(1.31969 0.00118487 0)
(1.28459 -0.0107084 0)
(0.953401 -0.0751978 0)
(0.771003 -0.139646 0)
(1.56673 7.69841e-07 0)
(1.54818 1.2233e-06 0)
(1.52708 -1.44417e-05 0)
(1.50062 9.06622e-05 0)
(1.44652 -0.000537805 0)
(1.35759 0.000613946 0)
(1.31984 0.00111236 0)
(1.281 -0.0106654 0)
(0.943518 -0.0721482 0)
(0.757175 -0.139083 0)
(1.56673 6.87469e-07 0)
(1.54818 1.43964e-06 0)
(1.52708 -1.47032e-05 0)
(1.50061 9.10891e-05 0)
(1.4465 -0.00053578 0)
(1.35772 0.000629787 0)
(1.32001 0.00107368 0)
(1.27751 -0.0102995 0)
(0.9337 -0.0686991 0)
(0.742091 -0.137142 0)
(1.56673 6.10057e-07 0)
(1.54818 1.56798e-06 0)
(1.52709 -1.45421e-05 0)
(1.50061 8.96203e-05 0)
(1.44648 -0.000527246 0)
(1.35785 0.000633189 0)
(1.32014 0.000991276 0)
(1.27439 -0.0097052 0)
(0.924399 -0.0647306 0)
(0.725516 -0.1351 0)
(1.56673 5.36945e-07 0)
(1.54818 1.6161e-06 0)
(1.52709 -1.39952e-05 0)
(1.5006 8.62288e-05 0)
(1.44645 -0.000510185 0)
(1.35799 0.000624066 0)
(1.32026 0.000934053 0)
(1.27149 -0.00885003 0)
(0.915725 -0.0603488 0)
(0.707439 -0.131522 0)
(1.56673 4.67453e-07 0)
(1.54818 1.58605e-06 0)
(1.52709 -1.30927e-05 0)
(1.5006 8.08531e-05 0)
(1.44642 -0.000482545 0)
(1.35813 0.000604604 0)
(1.32037 0.000851749 0)
(1.26905 -0.00781646 0)
(0.907711 -0.0554925 0)
(0.687736 -0.127472 0)
(1.56673 4.00482e-07 0)
(1.54818 1.49063e-06 0)
(1.52709 -1.18853e-05 0)
(1.5006 7.37351e-05 0)
(1.44638 -0.000444936 0)
(1.35827 0.000570568 0)
(1.32049 0.0007646 0)
(1.26706 -0.00666237 0)
(0.900249 -0.0501262 0)
(0.666546 -0.121506 0)
(1.56673 3.35455e-07 0)
(1.54818 1.33867e-06 0)
(1.52709 -1.04198e-05 0)
(1.50059 6.49971e-05 0)
(1.44633 -0.000396802 0)
(1.35842 0.000520779 0)
(1.32064 0.000660135 0)
(1.26554 -0.00546636 0)
(0.893262 -0.0441766 0)
(0.643245 -0.113905 0)
(1.56673 2.7171e-07 0)
(1.54818 1.15001e-06 0)
(1.5271 -8.75212e-06 0)
(1.50059 5.48964e-05 0)
(1.44629 -0.000338453 0)
(1.35855 0.000455002 0)
(1.32081 0.000550465 0)
(1.26445 -0.00429124 0)
(0.886762 -0.0376006 0)
(0.617879 -0.101935 0)
(1.56673 2.09197e-07 0)
(1.54818 9.28468e-07 0)
(1.5271 -6.94174e-06 0)
(1.50059 4.37335e-05 0)
(1.44625 -0.000272086 0)
(1.35868 0.000373045 0)
(1.32099 0.000436763 0)
(1.26376 -0.00319462 0)
(0.880597 -0.030449 0)
(0.588452 -0.0877224 0)
(1.56673 1.47478e-07 0)
(1.54818 6.89864e-07 0)
(1.5271 -5.03534e-06 0)
(1.50058 3.17979e-05 0)
(1.44621 -0.00019904 0)
(1.35879 0.000277608 0)
(1.32116 0.000320694 0)
(1.26332 -0.00218642 0)
(0.875397 -0.022519 0)
(0.557571 -0.0667823 0)
(1.56673 8.42301e-08 0)
(1.54818 4.2677e-07 0)
(1.5271 -3.07404e-06 0)
(1.50058 1.94029e-05 0)
(1.44619 -0.000121371 0)
(1.35886 0.000168115 0)
(1.32128 0.000214847 0)
(1.2631 -0.00124503 0)
(0.869759 -0.0143 0)
(0.524284 -0.044644 0)
(1.56673 2.05699e-08 0)
(1.54818 1.82368e-07 0)
(1.5271 -1.10755e-06 0)
(1.50058 6.73006e-06 0)
(1.44618 -4.04128e-05 0)
(1.35887 5.22684e-05 0)
(1.32137 9.92657e-05 0)
(1.26322 -0.000389983 0)
(0.866233 -0.00469634 0)
(0.501383 -0.014753 0)
(0.825875 -0.13104 0)
(0.827266 -0.133524 0)
(0.831693 -0.137695 0)
(0.839256 -0.14201 0)
(0.848133 -0.147234 0)
(0.861784 -0.150703 0)
(0.878304 -0.155379 0)
(0.900716 -0.159442 0)
(0.9282 -0.161148 0)
(0.965984 -0.163329 0)
(0.818675 -0.132746 0)
(0.820224 -0.13564 0)
(0.824228 -0.140864 0)
(0.832184 -0.145766 0)
(0.841187 -0.15218 0)
(0.855984 -0.157029 0)
(0.874487 -0.162972 0)
(0.899698 -0.16739 0)
(0.930828 -0.169547 0)
(0.972109 -0.171346 0)
(0.811355 -0.136374 0)
(0.813726 -0.1393 0)
(0.817315 -0.144845 0)
(0.826183 -0.150255 0)
(0.835845 -0.157732 0)
(0.851444 -0.163596 0)
(0.870411 -0.170555 0)
(0.896794 -0.175516 0)
(0.930582 -0.179727 0)
(0.974579 -0.180525 0)
(0.801859 -0.138857 0)
(0.80522 -0.142512 0)
(0.808567 -0.149048 0)
(0.818209 -0.155078 0)
(0.828791 -0.163557 0)
(0.845868 -0.17042 0)
(0.86655 -0.178482 0)
(0.895563 -0.184363 0)
(0.932684 -0.189656 0)
(0.978334 -0.189233 0)
(0.790259 -0.142035 0)
(0.794609 -0.146223 0)
(0.797947 -0.153487 0)
(0.808088 -0.16017 0)
(0.819685 -0.169702 0)
(0.838813 -0.177889 0)
(0.861823 -0.18747 0)
(0.893821 -0.194529 0)
(0.934129 -0.20001 0)
(0.981769 -0.198065 0)
(0.779132 -0.146724 0)
(0.784314 -0.151511 0)
(0.787701 -0.159121 0)
(0.798196 -0.166159 0)
(0.810603 -0.177101 0)
(0.831624 -0.186562 0)
(0.856439 -0.197328 0)
(0.890868 -0.205505 0)
(0.933104 -0.210306 0)
(0.983601 -0.206879 0)
(0.766553 -0.15007 0)
(0.772777 -0.15555 0)
(0.777061 -0.164714 0)
(0.788987 -0.173615 0)
(0.802375 -0.186147 0)
(0.824504 -0.196078 0)
(0.850308 -0.20753 0)
(0.886688 -0.216241 0)
(0.930136 -0.220023 0)
(0.984776 -0.215993 0)
(0.754923 -0.155121 0)
(0.762619 -0.162088 0)
(0.767744 -0.172912 0)
(0.780205 -0.182647 0)
(0.793303 -0.19551 0)
(0.815733 -0.205269 0)
(0.842533 -0.217675 0)
(0.880569 -0.226433 0)
(0.925823 -0.22986 0)
(0.985175 -0.225549 0)
(0.744006 -0.162917 0)
(0.752536 -0.170722 0)
(0.757397 -0.181836 0)
(0.769842 -0.191215 0)
(0.782673 -0.204361 0)
(0.805583 -0.214761 0)
(0.83314 -0.228131 0)
(0.871562 -0.235758 0)
(0.918996 -0.239411 0)
(0.983867 -0.235138 0)
(0.729778 -0.16665 0)
(0.739174 -0.175514 0)
(0.744137 -0.188089 0)
(0.757502 -0.198751 0)
(0.770481 -0.213293 0)
(0.79346 -0.224245 0)
(0.82091 -0.237248 0)
(0.859818 -0.243851 0)
(0.91044 -0.249576 0)
(0.982087 -0.245909 0)
(0.711162 -0.170127 0)
(0.722164 -0.180129 0)
(0.727855 -0.194424 0)
(0.742797 -0.2061 0)
(0.755851 -0.221446 0)
(0.77891 -0.232403 0)
(0.806724 -0.245617 0)
(0.847746 -0.253707 0)
(0.902398 -0.261775 0)
(0.981494 -0.258553 0)
(0.688683 -0.171849 0)
(0.701325 -0.182642 0)
(0.707676 -0.198727 0)
(0.724789 -0.211734 0)
(0.738717 -0.228435 0)
(0.762958 -0.240689 0)
(0.79216 -0.255627 0)
(0.835416 -0.265519 0)
(0.893993 -0.276099 0)
(0.979731 -0.272524 0)
(0.663527 -0.17401 0)
(0.677891 -0.185331 0)
(0.684666 -0.202936 0)
(0.704061 -0.216915 0)
(0.719482 -0.23514 0)
(0.745419 -0.249233 0)
(0.776153 -0.266141 0)
(0.821017 -0.277996 0)
(0.882797 -0.291208 0)
(0.976272 -0.287721 0)
(0.635493 -0.175721 0)
(0.651925 -0.187316 0)
(0.658956 -0.206169 0)
(0.68055 -0.220843 0)
(0.697958 -0.240857 0)
(0.726062 -0.257783 0)
(0.758927 -0.277465 0)
(0.80568 -0.291976 0)
(0.871234 -0.308427 0)
(0.971954 -0.304597 0)
(0.603956 -0.178135 0)
(0.623504 -0.190622 0)
(0.631176 -0.211422 0)
(0.65499 -0.22705 0)
(0.674789 -0.248501 0)
(0.704791 -0.267364 0)
(0.739309 -0.288944 0)
(0.787145 -0.306 0)
(0.855281 -0.325807 0)
(0.963072 -0.323081 0)
(0.567385 -0.177557 0)
(0.591379 -0.191149 0)
(0.599788 -0.213848 0)
(0.625295 -0.230808 0)
(0.647335 -0.253739 0)
(0.678813 -0.274632 0)
(0.714926 -0.298047 0)
(0.763806 -0.318322 0)
(0.833507 -0.342217 0)
(0.948507 -0.343936 0)
(0.523837 -0.177656 0)
(0.553837 -0.192901 0)
(0.563613 -0.218018 0)
(0.590847 -0.236949 0)
(0.616569 -0.260241 0)
(0.650426 -0.281724 0)
(0.688873 -0.306328 0)
(0.738682 -0.329555 0)
(0.808421 -0.357638 0)
(0.926928 -0.366561 0)
(0.472573 -0.166486 0)
(0.511077 -0.179831 0)
(0.527549 -0.208932 0)
(0.558691 -0.237398 0)
(0.589894 -0.268093 0)
(0.628188 -0.29465 0)
(0.671256 -0.321716 0)
(0.724311 -0.347299 0)
(0.795004 -0.37916 0)
(0.915467 -0.396142 0)
(0.419255 -0.168295 0)
(0.472341 -0.190028 0)
(0.501526 -0.229697 0)
(0.541433 -0.262841 0)
(0.57901 -0.293491 0)
(0.61831 -0.318579 0)
(0.659242 -0.342458 0)
(0.708945 -0.366424 0)
(0.775428 -0.398298 0)
(0.890505 -0.426 0)
(0.391622 -0.138561 0)
(0.462536 -0.171429 0)
(0.503115 -0.224548 0)
(0.546392 -0.263885 0)
(0.584584 -0.296389 0)
(0.622642 -0.322594 0)
(0.662945 -0.348142 0)
(0.711481 -0.372926 0)
(0.775898 -0.406791 0)
(0.892655 -0.439661 0)
(1.05985 -0.144459 0)
(1.19291 -0.0757703 0)
(1.30206 0.0192564 0)
(1.3873 0.125609 0)
(1.44972 0.221475 0)
(1.4969 0.29868 0)
(1.51628 0.306642 0)
(1.50064 0.247954 0)
(1.40054 0.073903 0)
(1.26412 -0.0383974 0)
(1.06762 -0.149964 0)
(1.20389 -0.0758535 0)
(1.31427 0.024492 0)
(1.39807 0.134812 0)
(1.45775 0.229995 0)
(1.49858 0.303818 0)
(1.51833 0.3059 0)
(1.49538 0.243693 0)
(1.37809 0.0644907 0)
(1.25785 -0.0365565 0)
(1.07431 -0.155708 0)
(1.21558 -0.0756471 0)
(1.3281 0.0309254 0)
(1.40889 0.143546 0)
(1.46648 0.238201 0)
(1.49886 0.310443 0)
(1.51864 0.307125 0)
(1.4906 0.238185 0)
(1.35994 0.0565022 0)
(1.25529 -0.0351328 0)
(1.08236 -0.161253 0)
(1.22908 -0.0747967 0)
(1.34277 0.0369186 0)
(1.42122 0.153587 0)
(1.4761 0.246864 0)
(1.49809 0.317845 0)
(1.51859 0.310176 0)
(1.48489 0.230606 0)
(1.34446 0.0499911 0)
(1.25505 -0.0322002 0)
(1.09178 -0.166945 0)
(1.24417 -0.073732 0)
(1.35968 0.0448884 0)
(1.43327 0.161658 0)
(1.48708 0.257968 0)
(1.49713 0.326624 0)
(1.5173 0.313131 0)
(1.47743 0.218972 0)
(1.33078 0.0449002 0)
(1.25503 -0.0298672 0)
(1.10111 -0.17257 0)
(1.2604 -0.0718594 0)
(1.37641 0.0521351 0)
(1.44678 0.172925 0)
(1.49769 0.269674 0)
(1.49643 0.333861 0)
(1.51383 0.31713 0)
(1.46786 0.204198 0)
(1.31854 0.0404049 0)
(1.25368 -0.0280448 0)
(1.11059 -0.178344 0)
(1.27676 -0.0701553 0)
(1.39468 0.062644 0)
(1.4591 0.182455 0)
(1.50861 0.284217 0)
(1.49969 0.342109 0)
(1.50653 0.318811 0)
(1.45496 0.186161 0)
(1.30738 0.0356412 0)
(1.2506 -0.0259416 0)
(1.12017 -0.184215 0)
(1.29398 -0.0664151 0)
(1.41156 0.0715665 0)
(1.47246 0.196121 0)
(1.51719 0.297171 0)
(1.50564 0.350022 0)
(1.49941 0.317908 0)
(1.43985 0.167968 0)
(1.29791 0.0319692 0)
(1.24621 -0.0237113 0)
(1.13023 -0.189991 0)
(1.3113 -0.0631267 0)
(1.42938 0.083223 0)
(1.48406 0.206872 0)
(1.52625 0.315208 0)
(1.51032 0.356032 0)