/*--------------------------------*- C++ -*----------------------------------*\
  =========                 |
  \\      /  F ield         | OpenFOAM: The Open Source CFD Toolbox
   \\    /   O peration     | Website:  https://openfoam.org
    \\  /    A nd           | Version:  8
     \\/     M anipulation  |
\*---------------------------------------------------------------------------*/
FoamFile
{
    version     2.0;
    format      ascii;
    class       volScalarField;
    location    "0.2";
    object      p;
}
// * * * * * * * * * * * * * * * * * * * * * * * * * * * * * * * * * * * * * //

dimensions      [1 -1 -2 0 0 0 0];

internalField   nonuniform List<scalar> 
2600
(
0.262033
0.397763
0.75697
0.933721
0.902221
0.893583
0.938582
0.985567
0.998929
1.00211
0.268721
0.386734
0.742308
0.93496
0.909967
0.896025
0.938687
0.98508
0.998857
1.00211
0.255739
0.385756
0.738906
0.937476
0.912125
0.896959
0.938576
0.984634
0.998792
1.00211
0.251179
0.410143
0.725959
0.927329
0.913676
0.897326
0.938584
0.984225
0.998734
1.00211
0.241465
0.418374
0.728688
0.922128
0.913421
0.897111
0.93857
0.98392
0.998688
1.0021
0.232245
0.423115
0.739557
0.924759
0.913573
0.896931
0.938255
0.983691
0.998655
1.0021
0.224323
0.42172
0.748198
0.932666
0.912971
0.896227
0.937804
0.983496
0.998628
1.0021
0.21997
0.413331
0.747307
0.946039
0.913588
0.896999
0.937515
0.983379
0.998606
1.0021
0.217449
0.408493
0.734814
0.941484
0.906125
0.896574
0.937078
0.983281
0.998594
1.0021
0.214777
0.404996
0.733762
0.948433
0.907674
0.897667
0.937219
0.983221
0.998583
1.0021
0.214777
0.404996
0.733762
0.948433
0.907674
0.897667
0.937219
0.983221
0.998583
1.0021
0.217449
0.408493
0.734814
0.941484
0.906125
0.896574
0.937078
0.983281
0.998594
1.0021
0.21997
0.413331
0.747307
0.946039
0.913588
0.896999
0.937515
0.983379
0.998606
1.0021
0.224323
0.42172
0.748198
0.932666
0.912971
0.896227
0.937804
0.983496
0.998628
1.0021
0.232245
0.423115
0.739557
0.924759
0.913573
0.896931
0.938255
0.983691
0.998655
1.0021
0.241465
0.418374
0.728688
0.922128
0.913421
0.897111
0.93857
0.98392
0.998688
1.0021
0.251179
0.410143
0.725959
0.927329
0.913676
0.897326
0.938584
0.984225
0.998734
1.00211
0.255739
0.385756
0.738906
0.937476
0.912125
0.896959
0.938576
0.984634
0.998792
1.00211
0.268721
0.386734
0.742308
0.93496
0.909967
0.896025
0.938687
0.98508
0.998857
1.00211
0.262033
0.397763
0.75697
0.933721
0.902221
0.893583
0.938582
0.985567
0.998929
1.00211
0.387859
0.370295
0.71158
0.926088
0.892153
0.890135
0.938861
0.986269
0.999012
1.00212
0.531679
0.342929
0.631625
0.884523
0.880568
0.886923
0.939954
0.987158
0.999102
1.00212
0.660656
0.356119
0.50628
0.805173
0.865499
0.886287
0.942259
0.988113
0.999185
1.00212
0.764328
0.431263
0.484265
0.708915
0.845602
0.887093
0.945253
0.989087
0.999264
1.00213
0.846263
0.511898
0.500324
0.666109
0.825947
0.888245
0.948413
0.990062
0.99934
1.00213
0.914081
0.576144
0.548766
0.660117
0.815278
0.889291
0.951395
0.991025
0.999415
1.00213
0.969478
0.636194
0.593579
0.672793
0.80973
0.890563
0.954338
0.991976
0.999487
1.00213
1.01537
0.696061
0.637224
0.694127
0.80883
0.892857
0.957379
0.992912
0.999554
1.00214
1.0592
0.749868
0.679593
0.719794
0.815778
0.897412
0.960812
0.993835
0.999616
1.00214
1.10065
0.803859
0.718627
0.742211
0.823739
0.903317
0.964552
0.994733
0.999673
1.00214
1.13771
0.853934
0.755617
0.769703
0.837717
0.911302
0.968615
0.995593
0.999724
1.00214
1.17178
0.899351
0.788519
0.794349
0.852184
0.920374
0.972878
0.996406
0.99977
1.00214
1.20188
0.941051
0.821864
0.818864
0.867083
0.929507
0.977036
0.997146
0.999811
1.00214
1.22902
0.980112
0.852327
0.842615
0.882532
0.938887
0.981106
0.997817
0.999849
1.00214
1.25355
1.01655
0.882161
0.865703
0.897403
0.947709
0.984849
0.998401
0.999884
1.00214
1.27617
1.04902
0.911199
0.887458
0.913579
0.95696
0.988442
0.998911
0.999915
1.00213
1.29748
1.07953
0.939884
0.908075
0.930039
0.965678
0.991663
0.999333
0.999945
1.00212
1.31868
1.10887
0.968312
0.92936
0.946647
0.975216
0.994867
0.999686
0.999976
1.00211
1.33832
1.13765
0.996325
0.950141
0.963091
0.984876
0.997583
0.999923
0.999997
1.0021
1.3536
1.16216
1.02336
0.970464
0.978321
0.993911
1.00008
1.00013
1.00001
1.0021
2.2099
2.14258
2.09705
2.05763
2.01667
1.9694
1.90678
1.82746
1.6988
1.54984
2.10303
2.03678
2.00614
1.975
1.94238
1.90144
1.84442
1.76336
1.63273
1.4489
2.07018
2.03195
2.01186
1.98093
1.94773
1.90308
1.84289
1.75855
1.62762
1.44537
2.02108
1.99587
1.97973
1.95373
1.92311
1.87853
1.81859
1.73271
1.60571
1.4236
1.97831
1.9657
1.9498
1.92741
1.89612
1.85274
1.79475
1.70936
1.58728
1.40703
1.93151
1.93027
1.91509
1.8987
1.86685
1.82497
1.76787
1.6852
1.57039
1.39449
1.88026
1.89331
1.88127
1.8699
1.84017
1.80321
1.74714
1.66566
1.55642
1.38723
1.82195
1.85401
1.84719
1.83983
1.81517
1.78203
1.72704
1.64779
1.544
1.3856
1.75504
1.81364
1.81404
1.81108
1.79525
1.76309
1.71005
1.63349
1.53454
1.38805
1.67793
1.77001
1.77888
1.78406
1.77602
1.7444
1.69478
1.62413
1.52928
1.39403
1.58603
1.72419
1.75112
1.75899
1.757
1.72992
1.68087
1.61705
1.52575
1.40188
1.46628
1.67669
1.73474
1.74084
1.73947
1.71856
1.67278
1.61105
1.52361
1.41068
1.31003
1.58736
1.72109
1.73317
1.72911
1.70945
1.67037
1.60685
1.52357
1.42029
1.15464
1.39337
1.65558
1.7159
1.72464
1.70544
1.66944
1.60508
1.52428
1.43027
1.06978
1.15499
1.46774
1.66914
1.71485
1.70912
1.66652
1.60543
1.52829
1.44176
1.03498
1.04513
1.18152
1.5074
1.67943
1.70295
1.66442
1.60722
1.53439
1.45289
1.01789
1.01668
1.03316
1.21205
1.54237
1.67907
1.66713
1.61006
1.53997
1.46333
1.00705
1.00635
1.00573
1.03188
1.25506
1.56721
1.65288
1.61679
1.54924
1.47429
1.0018
1.00166
1.00109
1.00179
1.04371
1.30964
1.57902
1.61431
1.56159
1.48695
1.00017
1.00016
1.00011
1.00005
1.00183
1.06985
1.36759
1.57298
1.5724
1.50058
1.03037
1.03601
1.03183
1.02532
1.01819
1.01008
1.00316
1.00039
1.00076
1.41004
1.03037
1.03601
1.03183
1.02532
1.01819
1.01008
1.00316
1.00037
1.00065
1.39987
1.03037
1.03601
1.03183
1.02532
1.01819
1.01008
1.00316
1.00035
1.00036
1.38396
1.03037
1.03601
1.03183
1.02532
1.01819
1.01008
1.00316
1.00036
1.00015
1.36231
1.03037
1.03601
1.03183
1.02532
1.01819
1.01008
1.00316
1.00037
1.00003
1.33805
1.03037
1.03601
1.03183
1.02532
1.01819
1.01008
1.00316
1.00038
1.00001
1.3113
1.03037
1.03601
1.03183
1.02532
1.01819
1.01008
1.00316
1.00038
1.00001
1.28332
1.03037
1.03601
1.03183
1.02532
1.01819
1.01008
1.00316
1.00038
1.00001
1.25511
1.03037
1.03601
1.03183
1.02532
1.01819
1.01008
1.00316
1.00038
1.00001
1.22584
1.03037
1.03601
1.03183
1.02532
1.01819
1.01008
1.00316
1.00038
1.00001
1.19491
1.03037
1.03601
1.03183
1.02532
1.01819
1.01008
1.00316
1.00038
1.00001
1.16244
1.03037
1.03601
1.03183
1.02532
1.01819
1.01008
1.00316
1.00038
1.00001
1.12769
1.03037
1.03601
1.03183
1.02532
1.01819
1.01008
1.00316
1.00038
1.00001
1.09245
1.03037
1.03601
1.03183
1.02532
1.01819
1.01008
1.00316
1.00038
1.00001
1.06216
1.03037
1.03601
1.03183
1.02532
1.01819
1.01008
1.00316
1.00038
1.00001
1.03963
1.03037
1.03601
1.03183
1.02532
1.01819
1.01008
1.00316
1.00038
1.00001
1.02452
1.03037
1.03601
1.03183
1.02532
1.01819
1.01008
1.00316
1.00038
1.00001
1.0145
1.03037
1.03601
1.03183
1.02532
1.01819
1.01008
1.00316
1.00038
1.00001
1.00704
1.03037
1.03601
1.03183
1.02532
1.01819
1.01008
1.00316
1.00038
1.00001
1.002
1.03037
1.03601
1.03183
1.02532
1.01819
1.01008
1.00316
1.00038
1.00001
1.0002
1.03037
1.03601
1.03183
1.02532
1.01819
1.01008
1.00316
1.00038
1.00001
1.0002
1.03037
1.03601
1.03183
1.02532
1.01819
1.01008
1.00316
1.00038
1.00001
1.002
1.03037
1.03601
1.03183
1.02532
1.01819
1.01008
1.00316
1.00038
1.00001
1.00704
1.03037
1.03601
1.03183
1.02532
1.01819
1.01008
1.00316
1.00038
1.00001
1.0145
1.03037
1.03601
1.03183
1.02532
1.01819
1.01008
1.00316
1.00038
1.00001
1.02452
1.03037
1.03601
1.03183
1.02532
1.01819
1.01008
1.00316
1.00038
1.00001
1.03963
1.03037
1.03601
1.03183
1.02532
1.01819
1.01008
1.00316
1.00038
1.00001
1.06216
1.03037
1.03601
1.03183
1.02532
1.01819
1.01008
1.00316
1.00038
1.00001
1.09245
1.03037
1.03601
1.03183
1.02532
1.01819
1.01008
1.00316
1.00038
1.00001
1.12769
1.03037
1.03601
1.03183
1.02532
1.01819
1.01008
1.00316
1.00038
1.00001
1.16244
1.03037
1.03601
1.03183
1.02532
1.01819
1.01008
1.00316
1.00038
1.00001
1.19491
1.03037
1.03601
1.03183
1.02532
1.01819
1.01008
1.00316
1.00038
1.00001
1.22584
1.03037
1.03601
1.03183
1.02532
1.01819
1.01008
1.00316
1.00038
1.00001
1.25511
1.03037
1.03601
1.03183
1.02532
1.01819
1.01008
1.00316
1.00038
1.00001
1.28332
1.03037
1.03601
1.03183
1.02532
1.01819
1.01008
1.00316
1.00038
1.00001
1.3113
1.03037
1.03601
1.03183
1.02532
1.01819
1.01008
1.00316
1.00037
1.00003
1.33805
1.03037
1.03601
1.03183
1.02532
1.01819
1.01008
1.00316
1.00036
1.00015
1.36231
1.03037
1.03601
1.03183
1.02532
1.01819
1.01008
1.00316
1.00035
1.00036
1.38396
1.03037
1.03601
1.03183
1.02532
1.01819
1.01008
1.00316
1.00037
1.00065
1.39987
1.03037
1.03601
1.03183
1.02532
1.01819
1.01008
1.00316
1.00039
1.00076
1.41004
1.00017
1.00016
1.00011
1.00005
1.00183
1.06985
1.36759
1.57298
1.5724
1.50058
1.0018
1.00166
1.00109
1.00179
1.04371
1.30964
1.57902
1.61431
1.56159
1.48695
1.00705
1.00635
1.00573
1.03188
1.25506
1.56721
1.65288
1.61679
1.54924
1.47429
1.01789
1.01668
1.03316
1.21205
1.54237
1.67907
1.66713
1.61006
1.53997
1.46333
1.03498
1.04513
1.18152
1.5074
1.67943
1.70295
1.66442
1.60722
1.53439
1.45289
1.06978
1.15499
1.46774
1.66914
1.71485
1.70912
1.66652
1.60543
1.52829
1.44176
1.15464
1.39337
1.65558
1.7159
1.72464
1.70544
1.66944
1.60508
1.52428
1.43027
1.31003
1.58736
1.72109
1.73317
1.72911
1.70945
1.67037
1.60685
1.52357
1.42029
1.46628
1.67669
1.73474
1.74084
1.73947
1.71856
1.67278
1.61105
1.52361
1.41068
1.58603
1.72419
1.75112
1.75899
1.757
1.72992
1.68087
1.61705
1.52575
1.40188
1.67793
1.77001
1.77888
1.78406
1.77602
1.7444
1.69478
1.62413
1.52928
1.39403
1.75504
1.81364
1.81404
1.81108
1.79525
1.76309
1.71005
1.63349
1.53454
1.38805
1.82195
1.85401
1.84719
1.83983
1.81517
1.78203
1.72704
1.64779
1.544
1.3856
1.88026
1.89331
1.88127
1.8699
1.84017
1.80321
1.74714
1.66566
1.55642
1.38723
1.93151
1.93027
1.91509
1.8987
1.86685
1.82497
1.76787
1.6852
1.57039
1.39449
1.97831
1.9657
1.9498
1.92741
1.89612
1.85274
1.79475
1.70936
1.58728
1.40703
2.02108
1.99587
1.97973
1.95373
1.92311
1.87853
1.81859
1.73271
1.60571
1.4236
2.07018
2.03195
2.01186
1.98093
1.94773
1.90308
1.84289
1.75855
1.62762
1.44537
2.10303
2.03678
2.00614
1.975
1.94238
1.90144
1.84442
1.76336
1.63273
1.4489
2.2099
2.14258
2.09705
2.05763
2.01667
1.9694
1.90678
1.82746
1.6988
1.54984
1.3536
1.16216
1.02336
0.970464
0.978321
0.993911
1.00008
1.00013
1.00001
1.0021
1.33832
1.13765
0.996325
0.950141
0.963091
0.984876
0.997583
0.999923
0.999997
1.0021
1.31868
1.10887
0.968312
0.92936
0.946647
0.975216
0.994867
0.999686
0.999976
1.00211
1.29748
1.07953
0.939884
0.908075
0.930039
0.965678
0.991663
0.999333
0.999945
1.00212
1.27617
1.04902
0.911199
0.887458
0.913579
0.95696
0.988442
0.998911
0.999915
1.00213
1.25355
1.01655
0.882161
0.865703
0.897403
0.947709
0.984849
0.998401
0.999884
1.00214
1.22902
0.980112
0.852327
0.842615
0.882532
0.938887
0.981106
0.997817
0.999849
1.00214
1.20188
0.941051
0.821864
0.818864
0.867083
0.929507
0.977036
0.997146
0.999811
1.00214
1.17178
0.899351
0.788519
0.794349
0.852184
0.920374
0.972878
0.996406
0.99977
1.00214
1.13771
0.853934
0.755617
0.769703
0.837717
0.911302
0.968615
0.995593
0.999724
1.00214
1.10065
0.803859
0.718627
0.742211
0.823739
0.903317
0.964552
0.994733
0.999673
1.00214
1.0592
0.749868
0.679593
0.719794
0.815778
0.897412
0.960812
0.993835
0.999616
1.00214
1.01537
0.696061
0.637224
0.694127
0.80883
0.892857
0.957379
0.992912
0.999554
1.00214
0.969478
0.636194
0.593579
0.672793
0.80973
0.890563
0.954338
0.991976
0.999487
1.00213
0.914081
0.576144
0.548766
0.660117
0.815278
0.889291
0.951395
0.991025
0.999415
1.00213
0.846263
0.511898
0.500324
0.666109
0.825947
0.888245
0.948413
0.990062
0.99934
1.00213
0.764328
0.431263
0.484265
0.708915
0.845602
0.887093
0.945253
0.989087
0.999264
1.00213
0.660656
0.356119
0.50628
0.805173
0.865499
0.886287
0.942259
0.988113
0.999185
1.00212
0.531679
0.342929
0.631625
0.884523
0.880568
0.886923
0.939954
0.987158
0.999102
1.00212
0.387859
0.370295
0.71158
0.926088
0.892153
0.890135
0.938861
0.986269
0.999012
1.00212
1
1
1
1
1
1
1
1
1
1.0021
1
1
1
1
1
1
1
1
1
1.0021
1
1
1
1
1
1
1
1
1
1.0021
1
1
1
1
1
1
1
1
1
1.0021
1
1
1
1
1
1
1
1
1
1.0021
1
1
1
1
1
1
1
1
1
1.0021
1
1
1
1
1
1
1
1
1
1.0021
1
1
1
1
1
1
1
1
1
1.0021
1
1
1
1
1
1
1
1
1
1.0021
1
1
1
1
1
1
1
1
1
1.0021
1
1
1
1
1
1
1
1
1
1.0021
1
1
1
1
1
1
1
1
1
1.0021
1
1.00013
1.00032
1.00018
1.00002
1
1
1
1
1.0021
1.00015
1.00756
1.01349
1.00862
1.00142
1.00003
1
1
1
1.0021
1.00718
1.07304
1.0924
1.06366
1.0177
1.00104
1.00001
1
1
1.0021
1.06922
1.2019
1.19604
1.13738
1.05637
1.00764
1.0002
1
1
1.0021
1.21745
1.27868
1.22958
1.15866
1.08072
1.01952
1.00121
1.00002
1
1.0021
1.34603
1.2882
1.21525
1.14432
1.08247
1.02635
1.0031
1.00008
1
1.0021
1.39524
1.27105
1.13746
1.06485
1.04899
1.02656
1.00436
1.00021
1
1.0021
1.38233
1.20451
1.06515
0.999528
1.00057
1.00876
1.00413
1.00031
1.00001
1.0021
1.38233
1.20451
1.06515
0.999528
1.00057
1.00876
1.00413
1.00031
1.00001
1.0021
1.39524
1.27105
1.13746
1.06485
1.04899
1.02656
1.00436
1.00021
1
1.0021
1.34603
1.2882
1.21525
1.14432
1.08247
1.02635
1.0031
1.00008
1
1.0021
1.21745
1.27868
1.22958
1.15866
1.08072
1.01952
1.00121
1.00002
1
1.0021
1.06922
1.2019
1.19604
1.13738
1.05637
1.00764
1.0002
1
1
1.0021
1.00718
1.07304
1.0924
1.06366
1.0177
1.00104
1.00001
1
1
1.0021
1.00015
1.00756
1.01349
1.00862
1.00142
1.00003
1
1
1
1.0021
1
1.00013
1.00032
1.00018
1.00002
1
1
1
1
1.0021
1
1
1
1
1
1
1
1
1
1.0021
1
1
1
1
1
1
1
1
1
1.0021
1
1
1
1
1
1
1
1
1
1.0021
1
1
1
1
1
1
1
1
1
1.0021
1
1
1
1
1
1
1
1
1
1.0021
1
1
1
1
1
1
1
1
1
1.0021
1
1
1
1
1
1
1
1
1
1.0021
1
1
1
1
1
1
1
1
1
1.0021
1
1
1
1
1
1
1
1
1
1.0021
1
1
1
1
1
1
1
1
1
1.0021
1
1
1
1
1
1
1
1
1
1.0021
1
1
1
1
1
1
1
1
1
1.0021
1.00001
1.00001
1.00001
1
1.00006
1.00541
1.08381
1.32842
1.49515
1.50313
0.999998
0.999998
0.999999
0.999999
1
1.00005
1.00327
1.05234
1.22535
1.39723
0.999998
0.999998
0.999999
0.999999
1
1
1.00002
1.00166
1.03021
1.15706
0.999998
0.999998
0.999999
0.999999
1
1
1
1.00001
1.00078
1.01702
0.999998
0.999998
0.999999
0.999999
1
1
1
1
1
1.00033
0.999998
0.999998
0.999999
0.999999
1
1
1
1
1
1
0.999998
0.999998
0.999999
0.999999
1
1
1
1
1
1
0.999998
0.999998
0.999999
0.999999
1
1
1
1
1
1
0.999998
0.999998
0.999999
0.999999
1
1
1
1
1
1
0.999998
0.999998
0.999999
0.999999
1
1
1
1
1
1
0.999998
0.999998
0.999999
0.999999
1
1
1
1
1
1
0.999998
0.999998
0.999999
0.999999
1
1
1
1
1
1
0.999998
0.999998
0.999999
0.999999
1
1
1
1
1
1
0.999998
0.999998
0.999999
0.999999
1
1
1
1
1
1
0.999998
0.999998
0.999999
0.999999
1
1
1
1
1
1
0.999998
0.999998
0.999999
0.999999
1
1
1
1
1
1
0.999998
0.999998
0.999999
0.999999
1
1
1
1
1
1
0.999998
0.999998
0.999999
0.999999
1
1
1
1
1
1
0.999998
0.999998
0.999999
0.999999
1
1
1
1
1
1
0.999998
0.999998
0.999999
0.999999
1
1
1
1
1
1
1.03037
1.03601
1.03183
1.02532
1.01819
1.01008
1.00316
1.00038
1.00001
1.00001
1.03037
1.03601
1.03183
1.02532
1.01819
1.01008
1.00316
1.00038
1.00001
1
1.03037
1.03601
1.03183
1.02532
1.01819
1.01008
1.00316
1.00038
1.00001
1
1.03037
1.03601
1.03183
1.02532
1.01819
1.01008
1.00316
1.00038
1.00001
1
1.03037
1.03601
1.03183
1.02532
1.01819
1.01008
1.00316
1.00038
1.00001
1
1.03037
1.03601
1.03183
1.02532
1.01819
1.01008
1.00316
1.00038
1.00001
1
1.03037
1.03601
1.03183
1.02532
1.01819
1.01008
1.00316
1.00038
1.00001
1
1.03037
1.03601
1.03183
1.02532
1.01819
1.01008
1.00316
1.00038
1.00001
1
1.03037
1.03601
1.03183
1.02532
1.01819
1.01008
1.00316
1.00038
1.00001
1
1.03037
1.03601
1.03183
1.02532
1.01819
1.01008
1.00316
1.00038
1.00001
1
1.03037
1.03601
1.03183
1.02532
1.01819
1.01008
1.00316
1.00038
1.00001
1
1.03037
1.03601
1.03183
1.02532
1.01819
1.01008
1.00316
1.00038
1.00001
1
1.03037
1.03601
1.03183
1.02532
1.01819
1.01008
1.00316
1.00038
1.00001
1
1.03037
1.03601
1.03183
1.02532
1.01819
1.01008
1.00316
1.00038
1.00001
1
1.03037
1.03601
1.03183
1.02532
1.01819
1.01008
1.00316
1.00038
1.00001
1
1.03037
1.03601
1.03183
1.02532
1.01819
1.01008
1.00316
1.00038
1.00001
1
1.03037
1.03601
1.03183
1.02532
1.01819
1.01008
1.00316
1.00038
1.00001
1
1.03037
1.03601
1.03183
1.02532
1.01819
1.01008
1.00316
1.00038
1.00001
1
1.03037
1.03601
1.03183
1.02532
1.01819
1.01008
1.00316
1.00038
1.00001
1
1.03037
1.03601
1.03183
1.02532
1.01819
1.01008
1.00316
1.00038
1.00001
1
1.03037
1.03601
1.03183
1.02532
1.01819
1.01008
1.00316
1.00038
1.00001
1
1.03037
1.03601
1.03183
1.02532
1.01819
1.01008
1.00316
1.00038
1.00001
1
1.03037
1.03601
1.03183
1.02532
1.01819
1.01008
1.00316
1.00038
1.00001
1
1.03037
1.03601
1.03183
1.02532
1.01819
1.01008
1.00316
1.00038
1.00001
1
1.03037
1.03601
1.03183
1.02532
1.01819
1.01008
1.00316
1.00038
1.00001
1
1.03037
1.03601
1.03183
1.02532
1.01819
1.01008
1.00316
1.00038
1.00001
1
1.03037
1.03601
1.03183
1.02532
1.01819
1.01008
1.00316
1.00038
1.00001
1
1.03037
1.03601
1.03183
1.02532
1.01819
1.01008
1.00316
1.00038
1.00001
1
1.03037
1.03601
1.03183
1.02532
1.01819
1.01008
1.00316
1.00038
1.00001
1
1.03037
1.03601
1.03183
1.02532
1.01819
1.01008
1.00316
1.00038
1.00001
1
1.03037
1.03601
1.03183
1.02532
1.01819
1.01008
1.00316
1.00038
1.00001
1
1.03037
1.03601
1.03183
1.02532
1.01819
1.01008
1.00316
1.00038
1.00001
1
1.03037
1.03601
1.03183
1.02532
1.01819
1.01008
1.00316
1.00038
1.00001
1
1.03037
1.03601
1.03183
1.02532
1.01819
1.01008
1.00316
1.00038
1.00001
1
1.03037
1.03601
1.03183
1.02532
1.01819
1.01008
1.00316
1.00038
1.00001
1
1.03037
1.03601
1.03183
1.02532
1.01819
1.01008
1.00316
1.00038
1.00001
1
1.03037
1.03601
1.03183
1.02532
1.01819
1.01008
1.00316
1.00038
1.00001
1
1.03037
1.03601
1.03183
1.02532
1.01819
1.01008
1.00316
1.00038
1.00001
1
1.03037
1.03601
1.03183
1.02532
1.01819
1.01008
1.00316
1.00038
1.00001
1
1.03037
1.03601
1.03183
1.02532
1.01819
1.01008
1.00316
1.00038
1.00001
1.00001
0.999998
0.999998
0.999999
0.999999
1
1
1
1
1
1
0.999998
0.999998
0.999999
0.999999
1
1
1
1
1
1
0.999998
0.999998
0.999999
0.999999
1
1
1
1
1
1
0.999998
0.999998
0.999999
0.999999
1
1
1
1
1
1
0.999998
0.999998
0.999999
0.999999
1
1
1
1
1
1
0.999998
0.999998
0.999999
0.999999
1
1
1
1
1
1
0.999998
0.999998
0.999999
0.999999
1
1
1
1
1
1
0.999998
0.999998
0.999999
0.999999
1
1
1
1
1
1
0.999998
0.999998
0.999999
0.999999
1
1
1
1
1
1
0.999998
0.999998
0.999999
0.999999
1
1
1
1
1
1
0.999998
0.999998
0.999999
0.999999
1
1
1
1
1
1
0.999998
0.999998
0.999999
0.999999
1
1
1
1
1
1
0.999998
0.999998
0.999999
0.999999
1
1
1
1
1
1
0.999998
0.999998
0.999999
0.999999
1
1
1
1
1
1
0.999998
0.999998
0.999999
0.999999
1
1
1
1
1
1
0.999998
0.999998
0.999999
0.999999
1
1
1
1
1
1.00033
0.999998
0.999998
0.999999
0.999999
1
1
1
1.00001
1.00078
1.01702
0.999998
0.999998
0.999999
0.999999
1
1
1.00002
1.00166
1.03021
1.15706
0.999998
0.999998
0.999999
0.999999
1
1.00005
1.00327
1.05234
1.22535
1.39723
1.00001
1.00001
1.00001
1
1.00006
1.00541
1.08381
1.32842
1.49515
1.50313
)
;

boundaryField
{
    inlet
    {
        type            fixedValue;
        value           uniform 1;
    }
    outlet
    {
        type            zeroGradient;
    }
    triangle
    {
        type            zeroGradient;
    }
    top
    {
        type            symmetryPlane;
    }
    bottom
    {
        type            symmetryPlane;
    }
    defaultFaces
    {
        type            empty;
    }
}


// ************************************************************************* //
