/*--------------------------------*- C++ -*----------------------------------*\
  =========                 |
  \\      /  F ield         | OpenFOAM: The Open Source CFD Toolbox
   \\    /   O peration     | Website:  https://openfoam.org
    \\  /    A nd           | Version:  8
     \\/     M anipulation  |
\*---------------------------------------------------------------------------*/
FoamFile
{
    version     2.0;
    format      ascii;
    class       volVectorField;
    location    "0.2";
    object      U;
}
// * * * * * * * * * * * * * * * * * * * * * * * * * * * * * * * * * * * * * //

dimensions      [0 1 -1 0 0 0 0];

internalField   nonuniform List<vector> 
2600
(
(0.973293 0.290454 0)
(1.53937 0.244329 0)
(1.26262 0.186549 0)
(0.961968 0.173652 0)
(0.935706 0.129275 0)
(0.981976 0.0633022 0)
(1.04844 0.0203995 0)
(1.08937 0.0037212 0)
(1.09929 0.000226561 0)
(1.09816 3.60954e-06 0)
(0.437937 -0.0374759 0)
(1.33752 0.178286 0)
(1.18464 0.225662 0)
(0.922873 0.181016 0)
(0.924912 0.120539 0)
(0.984282 0.0553375 0)
(1.04848 0.0177215 0)
(1.08868 0.00343685 0)
(1.09922 0.000218933 0)
(1.09815 3.76227e-06 0)
(0.129339 -0.0983746 0)
(0.998436 0.124346 0)
(1.04274 0.240918 0)
(0.890146 0.184649 0)
(0.917295 0.111403 0)
(0.983313 0.0476236 0)
(1.04706 0.0155895 0)
(1.08798 0.00308097 0)
(1.09916 0.000198446 0)
(1.09815 3.67416e-06 0)
(-0.0157757 -0.172119 0)
(0.615283 0.0385918 0)
(0.862923 0.217999 0)
(0.865736 0.182831 0)
(0.922365 0.101869 0)
(0.985067 0.0410321 0)
(1.04543 0.0138063 0)
(1.08735 0.00267603 0)
(1.0991 0.000170505 0)
(1.09815 3.3248e-06 0)
(-0.142856 -0.172645 0)
(0.256578 0.0120963 0)
(0.686354 0.239439 0)
(0.840971 0.186334 0)
(0.923229 0.0927062 0)
(0.984474 0.035406 0)
(1.04434 0.0118178 0)
(1.087 0.00217805 0)
(1.09907 0.000135043 0)
(1.09815 2.87539e-06 0)
(-0.22287 -0.177586 0)
(-0.0186918 -0.0351373 0)
(0.538996 0.187349 0)
(0.81186 0.16386 0)
(0.914599 0.0817998 0)
(0.981539 0.0307055 0)
(1.04423 0.00969341 0)
(1.08704 0.00160405 0)
(1.09906 0.000100279 0)
(1.09814 2.44788e-06 0)
(-0.257298 -0.170789 0)
(-0.178836 -0.0653538 0)
(0.397438 0.150445 0)
(0.756187 0.140873 0)
(0.896197 0.0698457 0)
(0.978532 0.0245397 0)
(1.04486 0.00731993 0)
(1.08717 0.00114316 0)
(1.09905 7.27865e-05 0)
(1.09814 2.06243e-06 0)
(-0.268682 -0.136617 0)
(-0.250766 -0.0721348 0)
(0.294367 0.084754 0)
(0.69665 0.0952466 0)
(0.886404 0.0515271 0)
(0.980212 0.0178093 0)
(1.04642 0.00501067 0)
(1.08727 0.000771235 0)
(1.09904 5.07498e-05 0)
(1.09814 1.5245e-06 0)
(-0.284736 -0.0888472 0)
(-0.279124 -0.0483303 0)
(0.223237 0.0457202 0)
(0.636934 0.0602174 0)
(0.869733 0.032906 0)
(0.977662 0.010749 0)
(1.04623 0.00279565 0)
(1.08729 0.000444593 0)
(1.09904 2.82982e-05 0)
(1.09814 9.34935e-07 0)
(-0.283993 -0.0310222 0)
(-0.283017 -0.0165584 0)
(0.202902 0.0130412 0)
(0.626432 0.0197192 0)
(0.872881 0.0107185 0)
(0.980856 0.00386848 0)
(1.047 0.000934262 0)
(1.08724 0.000142592 0)
(1.09903 1.04648e-05 0)
(1.09814 3.0977e-07 0)
(-0.283993 0.0310222 0)
(-0.283017 0.0165584 0)
(0.202902 -0.0130412 0)
(0.626432 -0.0197192 0)
(0.872881 -0.0107185 0)
(0.980856 -0.00386848 0)
(1.047 -0.000934262 0)
(1.08724 -0.000142592 0)
(1.09903 -1.04647e-05 0)
(1.09814 -3.09771e-07 0)
(-0.284736 0.0888472 0)
(-0.279124 0.0483303 0)
(0.223237 -0.0457202 0)
(0.636934 -0.0602174 0)
(0.869733 -0.032906 0)
(0.977662 -0.010749 0)
(1.04623 -0.00279565 0)
(1.08729 -0.000444593 0)
(1.09904 -2.82982e-05 0)
(1.09814 -9.34935e-07 0)
(-0.268682 0.136617 0)
(-0.250766 0.0721348 0)
(0.294367 -0.084754 0)
(0.69665 -0.0952466 0)
(0.886404 -0.0515271 0)
(0.980212 -0.0178093 0)
(1.04642 -0.00501067 0)
(1.08727 -0.000771235 0)
(1.09904 -5.07498e-05 0)
(1.09814 -1.5245e-06 0)
(-0.257298 0.170789 0)
(-0.178836 0.0653538 0)
(0.397438 -0.150445 0)
(0.756187 -0.140873 0)
(0.896197 -0.0698457 0)
(0.978532 -0.0245397 0)
(1.04486 -0.00731993 0)
(1.08717 -0.00114316 0)
(1.09905 -7.27865e-05 0)
(1.09814 -2.06243e-06 0)
(-0.22287 0.177586 0)
(-0.0186918 0.0351373 0)
(0.538996 -0.187349 0)
(0.81186 -0.16386 0)
(0.914599 -0.0817998 0)
(0.981539 -0.0307055 0)
(1.04423 -0.00969341 0)
(1.08704 -0.00160405 0)
(1.09906 -0.000100279 0)
(1.09814 -2.44788e-06 0)
(-0.142856 0.172645 0)
(0.256578 -0.0120963 0)
(0.686354 -0.239439 0)
(0.840971 -0.186334 0)
(0.923229 -0.0927062 0)
(0.984474 -0.035406 0)
(1.04434 -0.0118178 0)
(1.087 -0.00217805 0)
(1.09907 -0.000135043 0)
(1.09815 -2.87539e-06 0)
(-0.0157757 0.172119 0)
(0.615283 -0.0385918 0)
(0.862923 -0.217999 0)
(0.865736 -0.182831 0)
(0.922365 -0.101869 0)
(0.985067 -0.0410321 0)
(1.04543 -0.0138063 0)
(1.08735 -0.00267603 0)
(1.0991 -0.000170505 0)
(1.09815 -3.3248e-06 0)
(0.129339 0.0983746 0)
(0.998436 -0.124346 0)
(1.04274 -0.240918 0)
(0.890146 -0.184649 0)
(0.917295 -0.111403 0)
(0.983313 -0.0476236 0)
(1.04706 -0.0155895 0)
(1.08798 -0.00308097 0)
(1.09916 -0.000198446 0)
(1.09815 -3.67416e-06 0)
(0.437937 0.0374759 0)
(1.33752 -0.178286 0)
(1.18464 -0.225662 0)
(0.922873 -0.181016 0)
(0.924912 -0.120539 0)
(0.984282 -0.0553375 0)
(1.04848 -0.0177215 0)
(1.08868 -0.00343685 0)
(1.09922 -0.000218933 0)
(1.09815 -3.76227e-06 0)
(0.973293 -0.290454 0)
(1.53937 -0.244329 0)
(1.26262 -0.186549 0)
(0.961968 -0.173652 0)
(0.935706 -0.129275 0)
(0.981976 -0.0633022 0)
(1.04844 -0.0203995 0)
(1.08937 -0.0037212 0)
(1.09929 -0.000226561 0)
(1.09816 -3.60954e-06 0)
(1.46981 -0.0843071 0)
(1.5891 -0.326867 0)
(1.34043 -0.208193 0)
(0.994642 -0.173375 0)
(0.950902 -0.136468 0)
(0.985957 -0.0732946 0)
(1.05006 -0.0233967 0)
(1.0901 -0.00392177 0)
(1.09936 -0.000223291 0)
(1.09816 -3.11424e-06 0)
(1.4758 0.077923 0)
(1.61874 -0.371834 0)
(1.41598 -0.327472 0)
(1.03456 -0.190603 0)
(0.965331 -0.14699 0)
(0.994023 -0.0808629 0)
(1.05278 -0.0261821 0)
(1.09086 -0.0040566 0)
(1.09943 -0.000216109 0)
(1.09816 -2.37092e-06 0)
(1.40211 0.152106 0)
(1.62469 -0.320281 0)
(1.39405 -0.478395 0)
(1.0673 -0.235595 0)
(0.976062 -0.161336 0)
(1.00258 -0.0851297 0)
(1.05626 -0.0275843 0)
(1.09162 -0.0041028 0)
(1.09949 -0.000208924 0)
(1.09817 -1.55462e-06 0)
(1.32877 0.199922 0)
(1.63619 -0.268774 0)
(1.34983 -0.497263 0)
(1.10518 -0.305637 0)
(0.989918 -0.179212 0)
(1.01037 -0.0886196 0)
(1.05985 -0.0281507 0)
(1.0924 -0.00409657 0)
(1.09954 -0.000202614 0)
(1.09818 -7.75363e-07 0)
(1.27672 0.219566 0)
(1.60777 -0.196268 0)
(1.32136 -0.445337 0)
(1.13678 -0.340962 0)
(1.0091 -0.196565 0)
(1.01834 -0.0915516 0)
(1.06334 -0.0281551 0)
(1.09319 -0.00401134 0)
(1.09959 -0.000194111 0)
(1.09818 9.63195e-08 0)
(1.2366 0.225715 0)
(1.55247 -0.128696 0)
(1.32132 -0.39741 0)
(1.16577 -0.327418 0)
(1.03146 -0.20191 0)
(1.02705 -0.0940599 0)
(1.06677 -0.0282592 0)
(1.09398 -0.00389363 0)
(1.09964 -0.000183552 0)
(1.09819 1.10088e-06 0)
(1.20741 0.221052 0)
(1.48604 -0.0775135 0)
(1.32512 -0.338801 0)
(1.18092 -0.313043 0)
(1.05089 -0.202899 0)
(1.03626 -0.0946557 0)
(1.07029 -0.0279153 0)
(1.09475 -0.00371085 0)
(1.09969 -0.000170654 0)
(1.09819 2.22687e-06 0)
(1.18151 0.220655 0)
(1.43414 -0.0471375 0)
(1.32549 -0.281113 0)
(1.17488 -0.28127 0)
(1.06629 -0.19244 0)
(1.04548 -0.0941885 0)
(1.07386 -0.0274883 0)
(1.0955 -0.00349875 0)
(1.09973 -0.000156946 0)
(1.0982 3.44512e-06 0)
(1.15753 0.221544 0)
(1.38521 -0.0144144 0)
(1.32365 -0.237066 0)
(1.17974 -0.259762 0)
(1.08265 -0.187595 0)
(1.05464 -0.0916241 0)
(1.07745 -0.0263439 0)
(1.09621 -0.00321989 0)
(1.09978 -0.000142248 0)
(1.0982 4.76883e-06 0)
(1.1371 0.222309 0)
(1.3357 0.0179152 0)
(1.31298 -0.192995 0)
(1.17783 -0.228169 0)
(1.09424 -0.172816 0)
(1.06366 -0.0879961 0)
(1.08106 -0.0250606 0)
(1.09689 -0.00293039 0)
(1.09981 -0.000128051 0)
(1.09821 6.12747e-06 0)
(1.1168 0.225398 0)
(1.30185 0.0390107 0)
(1.30444 -0.159591 0)
(1.1772 -0.201068 0)
(1.10313 -0.15569 0)
(1.07134 -0.0804978 0)
(1.08442 -0.0228537 0)
(1.09751 -0.00257874 0)
(1.09985 -0.000113414 0)
(1.09821 7.54071e-06 0)
(1.09935 0.227185 0)
(1.26609 0.0618246 0)
(1.29011 -0.12604 0)
(1.17754 -0.177273 0)
(1.1138 -0.142765 0)
(1.07984 -0.0751632 0)
(1.0878 -0.0209299 0)
(1.09809 -0.00224995 0)
(1.09987 -9.98221e-05 0)
(1.09821 8.92337e-06 0)
(1.0827 0.229106 0)
(1.24122 0.0762906 0)
(1.27702 -0.0978124 0)
(1.17218 -0.149813 0)
(1.1188 -0.123337 0)
(1.08624 -0.0658724 0)
(1.09071 -0.0182129 0)
(1.09858 -0.0018808 0)
(1.0999 -8.60354e-05 0)
(1.09822 1.0329e-05 0)
(1.06838 0.230247 0)
(1.21398 0.0922185 0)
(1.26381 -0.0719921 0)
(1.17345 -0.131136 0)
(1.1271 -0.111013 0)
(1.09364 -0.05975 0)
(1.09358 -0.0160102 0)
(1.09902 -0.00155274 0)
(1.09993 -7.30148e-05 0)
(1.09822 1.14951e-05 0)
(1.0542 0.231947 0)
(1.19538 0.102258 0)
(1.24514 -0.0461439 0)
(1.17146 -0.107442 0)
(1.12848 -0.0918708 0)
(1.09827 -0.0503745 0)
(1.09584 -0.0132677 0)
(1.09937 -0.00121016 0)
(1.09995 -5.98552e-05 0)
(1.09821 1.22968e-05 0)
(1.04275 0.233053 0)
(1.17391 0.115211 0)
(1.23063 -0.0251707 0)
(1.17604 -0.0910103 0)
(1.13288 -0.078782 0)
(1.10393 -0.0439331 0)
(1.09808 -0.0111185 0)
(1.09967 -0.000923491 0)
(1.09997 -4.81667e-05 0)
(1.09821 1.30008e-05 0)
(1.03161 0.233852 0)
(1.15856 0.125066 0)
(1.21392 -0.0042528 0)
(1.17437 -0.0688087 0)
(1.13274 -0.0617473 0)
(1.10713 -0.0348261 0)
(1.09973 -0.00854471 0)
(1.09988 -0.000641296 0)
(1.09998 -3.55936e-05 0)
(1.09821 1.23957e-05 0)
(1.02272 0.233204 0)
(1.14112 0.135837 0)
(1.20006 0.0140276 0)
(1.17562 -0.0539909 0)
(1.13574 -0.0502644 0)
(1.11087 -0.0274316 0)
(1.10122 -0.00620067 0)
(1.10004 -0.000406754 0)
(1.1 -2.0117e-05 0)
(1.0982 7.62465e-06 0)
(1.01553 0.23252 0)
(1.12908 0.142953 0)
(1.18626 0.0313658 0)
(1.16909 -0.0346131 0)
(1.13408 -0.0353126 0)
(1.11227 -0.0184912 0)
(1.10221 -0.00389858 0)
(1.10015 -0.000238143 0)
(1.1 -6.45899e-06 0)
(1.0982 2.07923e-06 0)
(1.00754 0.235973 0)
(1.11247 0.152442 0)
(1.16903 0.0489334 0)
(1.16676 -0.0199694 0)
(1.13675 -0.0259823 0)
(1.11471 -0.0123228 0)
(1.10293 -0.00201523 0)
(1.10021 -5.83491e-05 0)
(1.10001 4.80363e-07 0)
(1.0982 4.24156e-07 0)
(0.328717 0.11682 0)
(0.379277 0.140176 0)
(0.419633 0.181833 0)
(0.461462 0.220746 0)
(0.507936 0.252239 0)
(0.556607 0.28216 0)
(0.606317 0.31366 0)
(0.664067 0.344816 0)
(0.741809 0.384563 0)
(0.882513 0.425542 0)
(0.366228 0.141076 0)
(0.400678 0.158592 0)
(0.42853 0.186885 0)
(0.465395 0.21184 0)
(0.507308 0.239649 0)
(0.553365 0.272227 0)
(0.603072 0.307754 0)
(0.662837 0.342671 0)
(0.742839 0.383615 0)
(0.879843 0.41668 0)
(0.43226 0.141557 0)
(0.456337 0.151273 0)
(0.476534 0.171968 0)
(0.509982 0.189963 0)
(0.544988 0.215732 0)
(0.582737 0.249208 0)
(0.62516 0.286519 0)
(0.680861 0.323861 0)
(0.761007 0.365178 0)
(0.899189 0.388501 0)
(0.501649 0.160005 0)
(0.520338 0.170773 0)
(0.539554 0.190297 0)
(0.567759 0.207921 0)
(0.593626 0.232917 0)
(0.621414 0.262164 0)
(0.657039 0.293094 0)
(0.709469 0.320996 0)
(0.786355 0.355718 0)
(0.912531 0.36783 0)
(0.563864 0.159524 0)
(0.576946 0.168964 0)
(0.596639 0.18377 0)
(0.617826 0.202796 0)
(0.636147 0.228415 0)
(0.655378 0.257785 0)
(0.68622 0.285742 0)
(0.734558 0.311882 0)
(0.808108 0.343939 0)
(0.928552 0.352893 0)
(0.615036 0.159293 0)
(0.621543 0.17052 0)
(0.638443 0.187282 0)
(0.649619 0.20961 0)
(0.661211 0.236577 0)
(0.677251 0.264335 0)
(0.708446 0.287894 0)
(0.755935 0.308051 0)
(0.826633 0.335003 0)
(0.941124 0.339903 0)
(0.658897 0.154784 0)
(0.657212 0.168327 0)
(0.668655 0.18727 0)
(0.670868 0.211233 0)
(0.678737 0.238036 0)
(0.694926 0.262257 0)
(0.727015 0.282489 0)
(0.773794 0.301595 0)
(0.841695 0.32604 0)
(0.949851 0.329039 0)
(0.696863 0.153325 0)
(0.684533 0.168654 0)
(0.688928 0.190901 0)
(0.685203 0.216857 0)
(0.692578 0.241061 0)
(0.711482 0.260268 0)
(0.743753 0.278152 0)
(0.788463 0.295535 0)
(0.852457 0.317159 0)
(0.953553 0.319153 0)
(0.731323 0.153528 0)
(0.705342 0.171346 0)
(0.702496 0.197729 0)
(0.69711 0.222927 0)
(0.706481 0.241019 0)
(0.728418 0.255214 0)
(0.759263 0.272623 0)
(0.801313 0.289795 0)
(0.861656 0.309009 0)
(0.954494 0.31059 0)
(0.766573 0.158833 0)
(0.723243 0.178747 0)
(0.716024 0.20377 0)
(0.712912 0.225191 0)
(0.722817 0.23991 0)
(0.745389 0.251604 0)
(0.774154 0.268805 0)
(0.812457 0.28565 0)
(0.868562 0.301595 0)
(0.952214 0.302551 0)
(0.810597 0.168305 0)
(0.742937 0.187881 0)
(0.735448 0.204961 0)
(0.73489 0.222997 0)
(0.741367 0.237461 0)
(0.759368 0.250435 0)
(0.786235 0.265504 0)
(0.821476 0.282325 0)
(0.873319 0.294529 0)
(0.948821 0.294954 0)
(0.877949 0.17174 0)
(0.773274 0.19633 0)
(0.759208 0.20934 0)
(0.75765 0.222165 0)
(0.758991 0.236149 0)
(0.77009 0.251982 0)
(0.794622 0.265892 0)
(0.828961 0.279891 0)
(0.877175 0.28871 0)
(0.945773 0.288277 0)
(0.972929 0.147653 0)
(0.831047 0.192078 0)
(0.782756 0.214656 0)
(0.770838 0.225755 0)
(0.770676 0.238752 0)
(0.778994 0.254205 0)
(0.799875 0.268372 0)
(0.834511 0.278337 0)
(0.8793 0.284134 0)
(0.942342 0.282625 0)
(1.0564 0.0920038 0)
(0.933753 0.155786 0)
(0.816659 0.212934 0)
(0.77721 0.230304 0)
(0.77787 0.243454 0)
(0.784968 0.257689 0)
(0.804969 0.269787 0)
(0.837373 0.275616 0)
(0.879891 0.279566 0)
(0.938589 0.277776 0)
(1.08948 0.0462912 0)
(1.04948 0.0802564 0)
(0.899766 0.176258 0)
(0.797511 0.226277 0)
(0.786722 0.246176 0)
(0.789072 0.261774 0)
(0.809383 0.267313 0)
(0.840232 0.273365 0)
(0.880936 0.276006 0)
(0.935376 0.274513 0)
(1.09805 0.0241041 0)
(1.09461 0.0297147 0)
(1.02996 0.0859409 0)
(0.872703 0.191178 0)
(0.800403 0.242837 0)
(0.79283 0.263612 0)
(0.813159 0.267886 0)
(0.842778 0.271605 0)
(0.881344 0.273527 0)
(0.931742 0.271931 0)
(1.09981 0.0126539 0)
(1.10025 0.0120957 0)
(1.093 0.020314 0)
(1.00822 0.0968574 0)
(0.858868 0.209488 0)
(0.808092 0.255581 0)
(0.81497 0.270218 0)
(0.843322 0.270872 0)
(0.881192 0.271097 0)
(0.928067 0.268971 0)
(1.09986 0.00509518 0)
(1.1002 0.00469227 0)
(1.10039 0.00411544 0)
(1.08891 0.0177903 0)
(0.987529 0.116068 0)
(0.851884 0.225278 0)
(0.820273 0.267711 0)
(0.84512 0.271586 0)
(0.881586 0.269199 0)
(0.924709 0.265729 0)
(1.10001 0.00130094 0)
(1.10005 0.00120137 0)
(1.10018 0.000807841 0)
(1.09985 0.00117779 0)
(1.08242 0.023823 0)
(0.9656 0.141952 0)
(0.854511 0.243926 0)
(0.852274 0.272143 0)
(0.882367 0.269258 0)
(0.922379 0.264004 0)
(1.1 0.000125166 0)
(1.1 0.000115454 0)
(1.10002 8.02598e-05 0)
(1.10001 3.5503e-05 0)
(1.09937 0.00111206 0)
(1.07146 0.0371774 0)
(0.942821 0.169427 0)
(0.872444 0.256641 0)
(0.886649 0.266252 0)
(0.922117 0.266444 0)
(1.13728 -3.72215e-14 0)
(1.12674 -7.99876e-13 0)
(1.12189 9.69397e-12 0)
(1.11779 -1.18882e-10 0)
(1.1129 1.48843e-09 0)
(1.10717 -2.03613e-08 0)
(1.10225 3.58233e-07 0)
(1.10028 -6.93943e-06 0)
(1.09944 8.46431e-05 0)
(0.680367 0.02015 0)
(1.13728 1.04878e-13 0)
(1.12674 -1.85139e-12 0)
(1.12189 2.45518e-11 0)
(1.11779 -2.96896e-10 0)
(1.1129 3.20704e-09 0)
(1.10717 -3.16126e-08 0)
(1.10226 4.88269e-07 0)
(1.10026 -1.30818e-05 0)
(1.09964 0.000221483 0)
(0.708071 0.0604649 0)
(1.13728 1.45663e-13 0)
(1.12674 -2.52662e-12 0)
(1.12189 3.6911e-11 0)
(1.11779 -4.8297e-10 0)
(1.1129 6.14745e-09 0)
(1.10717 -8.06782e-08 0)
(1.10226 1.11989e-06 0)
(1.10026 -1.58787e-05 0)
(1.09991 0.000187608 0)
(0.755851 0.0871885 0)
(1.13728 9.68971e-14 0)
(1.12674 -2.65439e-12 0)
(1.12189 3.84437e-11 0)
(1.11779 -5.16364e-10 0)
(1.1129 7.1331e-09 0)
(1.10717 -1.01214e-07 0)
(1.10226 1.22768e-06 0)
(1.10026 -1.05751e-05 0)
(1.10003 6.30528e-05 0)
(0.809101 0.108742 0)
(1.13728 1.04261e-13 0)
(1.12674 -2.12992e-12 0)
(1.12189 3.03005e-11 0)
(1.11779 -3.91068e-10 0)
(1.1129 5.14765e-09 0)
(1.10717 -6.68847e-08 0)
(1.10225 7.00005e-07 0)
(1.10027 -4.41531e-06 0)
(1.10002 7.01089e-07 0)
(0.86218 0.121233 0)
(1.13728 2.14683e-13 0)
(1.12674 -1.44134e-12 0)
(1.12189 2.11085e-11 0)
(1.11779 -2.39885e-10 0)
(1.1129 2.66948e-09 0)
(1.10717 -2.70053e-08 0)
(1.10225 1.85287e-07 0)
(1.10027 -5.16567e-07 0)
(1.10001 -1.29818e-06 0)
(0.910278 0.12803 0)
(1.13728 1.81978e-13 0)
(1.12674 -7.38794e-13 0)
(1.12189 1.12442e-11 0)
(1.11779 -1.1173e-10 0)
(1.1129 1.00525e-09 0)
(1.10717 -6.96269e-09 0)
(1.10225 2.02163e-08 0)
(1.10027 5.80335e-08 0)
(1.10001 -6.21468e-07 0)
(0.951747 0.128761 0)
(1.13728 2.65942e-14 0)
(1.12674 -2.91852e-13 0)
(1.12189 4.61743e-12 0)
(1.11779 -3.88025e-11 0)
(1.1129 2.72058e-10 0)
(1.10717 -1.16898e-09 0)
(1.10225 -1.40713e-09 0)
(1.10027 4.07636e-08 0)
(1.10001 -2.81375e-07 0)
(0.986763 0.125766 0)
(1.13728 4.53748e-14 0)
(1.12674 6.43974e-15 0)
(1.12189 1.52827e-12 0)
(1.11779 -8.6049e-12 0)
(1.1129 4.3363e-11 0)
(1.10717 -5.10988e-11 0)
(1.10225 -1.15029e-09 0)
(1.10027 1.57333e-08 0)
(1.10001 -5.20234e-08 0)
(1.01597 0.118539 0)
(1.13728 1.67403e-13 0)
(1.12674 -7.90439e-14 0)
(1.12189 4.06447e-13 0)
(1.11779 -1.03499e-12 0)
(1.1129 1.16292e-12 0)
(1.10717 2.59645e-11 0)
(1.10225 -4.37451e-10 0)
(1.10027 2.3556e-09 0)
(1.10001 -2.46068e-09 0)
(1.03992 0.107703 0)
(1.13728 1.52428e-13 0)
(1.12674 -1.90307e-13 0)
(1.12189 -1.43264e-15 0)
(1.11779 1.46016e-13 0)
(1.1129 -3.33594e-12 0)
(1.10717 2.68904e-11 0)
(1.10225 -1.69658e-10 0)
(1.10027 3.89153e-10 0)
(1.10001 -1.87554e-10 0)
(1.05833 0.0942956 0)
(1.13728 8.62209e-14 0)
(1.12674 -1.86264e-13 0)
(1.12189 -2.07468e-13 0)
(1.11779 8.50313e-13 0)
(1.1129 -6.53274e-12 0)
(1.10717 4.36704e-11 0)
(1.10225 -2.06007e-10 0)
(1.10027 4.63087e-10 0)
(1.10001 -3.48991e-10 0)
(1.07139 0.0784373 0)
(1.13728 3.24423e-14 0)
(1.12674 2.7885e-14 0)
(1.12189 -2.57083e-13 0)
(1.11779 1.76739e-12 0)
(1.1129 -1.15617e-11 0)
(1.10717 8.39646e-11 0)
(1.10225 -4.24855e-10 0)
(1.10027 1.10538e-09 0)
(1.10001 -1.0141e-09 0)
(1.08062 0.0600779 0)
(1.13728 -4.86028e-16 0)
(1.12674 5.07448e-14 0)
(1.12189 -3.76659e-13 0)
(1.11779 2.65467e-12 0)
(1.1129 -1.97219e-11 0)
(1.10717 1.58195e-10 0)
(1.10225 -8.90577e-10 0)
(1.10027 2.61239e-09 0)
(1.10001 -2.8511e-09 0)
(1.08772 0.0420787 0)
(1.13728 1.49442e-14 0)
(1.12674 -4.33228e-14 0)
(1.12189 -7.01246e-13 0)
(1.11779 3.59634e-12 0)
(1.1129 -3.14568e-11 0)
(1.10717 2.79864e-10 0)
(1.10225 -1.76719e-09 0)
(1.10027 5.89103e-09 0)
(1.10001 -7.60214e-09 0)
(1.09317 0.0275169 0)
(1.13728 6.08125e-14 0)
(1.12674 -3.02627e-14 0)
(1.12189 -8.50358e-13 0)
(1.11779 4.65848e-12 0)
(1.1129 -4.63399e-11 0)
(1.10717 4.64502e-10 0)
(1.10225 -3.30818e-09 0)
(1.10027 1.25053e-08 0)
(1.10001 -1.86603e-08 0)
(1.09669 0.0172438 0)
(1.13728 3.95858e-14 0)
(1.12674 3.0568e-14 0)
(1.12189 -7.38023e-13 0)
(1.11779 5.71298e-12 0)
(1.1129 -6.1532e-11 0)
(1.10717 6.9214e-10 0)
(1.10225 -5.6292e-09 0)
(1.10027 2.49077e-08 0)
(1.10001 -4.59385e-08 0)
(1.09869 0.0102301 0)
(1.13728 5.22673e-14 0)
(1.12674 6.65814e-14 0)
(1.12189 -7.10627e-13 0)
(1.11779 6.35709e-12 0)
(1.1129 -7.4872e-11 0)
(1.10717 9.24491e-10 0)
(1.10225 -8.51891e-09 0)
(1.10027 4.52728e-08 0)
(1.10001 -1.10751e-07 0)
(1.09962 0.00498661 0)
(1.13728 1.07149e-13 0)
(1.12674 1.71222e-13 0)
(1.12189 -6.72925e-13 0)
(1.11779 5.94557e-12 0)
(1.1129 -7.86146e-11 0)
(1.10717 1.12067e-09 0)
(1.10225 -1.22895e-08 0)
(1.10027 7.97579e-08 0)
(1.10001 -2.37292e-07 0)
(1.09993 0.00142247 0)
(1.13728 2.87792e-14 0)
(1.12674 9.46979e-14 0)
(1.12189 -6.81414e-13 0)
(1.11779 4.62026e-12 0)
(1.1129 -6.05605e-11 0)
(1.10717 9.51778e-10 0)
(1.10225 -1.22998e-08 0)
(1.10027 1.03948e-07 0)
(1.10001 -4.87466e-07 0)
(1.1 0.000138661 0)
(1.13728 3.7807e-13 0)
(1.12674 1.36556e-13 0)
(1.12189 -3.67045e-14 0)
(1.11779 -3.94259e-12 0)
(1.1129 5.96242e-11 0)
(1.10717 -9.51428e-10 0)
(1.10225 1.2298e-08 0)
(1.10027 -1.03938e-07 0)
(1.10001 4.87429e-07 0)
(1.1 -0.000138661 0)
(1.13728 1.76605e-13 0)
(1.12674 8.48111e-14 0)
(1.12189 1.63644e-14 0)
(1.11779 -5.12123e-12 0)
(1.1129 7.78313e-11 0)
(1.10717 -1.11997e-09 0)
(1.10225 1.22878e-08 0)
(1.10027 -7.97455e-08 0)
(1.10001 2.37262e-07 0)
(1.09993 -0.00142247 0)
(1.13728 1.49327e-13 0)
(1.12674 4.44773e-14 0)
(1.12189 -3.14548e-14 0)
(1.11779 -5.06433e-12 0)
(1.1129 7.37277e-11 0)
(1.10717 -9.23744e-10 0)
(1.10225 8.518e-09 0)
(1.10027 -4.52641e-08 0)
(1.10001 1.10735e-07 0)
(1.09962 -0.00498661 0)
(1.13728 1.68091e-13 0)
(1.12674 8.7953e-16 0)
(1.12189 5.41864e-14 0)
(1.11779 -4.63284e-12 0)
(1.1129 6.05243e-11 0)
(1.10717 -6.91553e-10 0)
(1.10225 5.62879e-09 0)
(1.10027 -2.4901e-08 0)
(1.10001 4.59266e-08 0)
(1.09869 -0.0102301 0)
(1.13728 7.00419e-14 0)
(1.12674 2.64219e-14 0)
(1.12189 1.34515e-13 0)
(1.11779 -3.7537e-12 0)
(1.1129 4.54793e-11 0)
(1.10717 -4.6453e-10 0)
(1.10225 3.30788e-09 0)
(1.10027 -1.25005e-08 0)
(1.10001 1.86537e-08 0)
(1.09669 -0.0172438 0)
(1.13728 -9.57361e-14 0)
(1.12674 1.36701e-13 0)
(1.12189 9.02529e-14 0)
(1.11779 -2.7169e-12 0)
(1.1129 3.08316e-11 0)
(1.10717 -2.80857e-10 0)
(1.10225 1.76774e-09 0)
(1.10027 -5.8881e-09 0)
(1.10001 7.5988e-09 0)
(1.09317 -0.0275169 0)
(1.13728 -1.31918e-13 0)
(1.12674 2.24395e-13 0)
(1.12189 9.62892e-14 0)
(1.11779 -1.9921e-12 0)
(1.1129 1.94534e-11 0)
(1.10717 -1.59328e-10 0)
(1.10225 8.91814e-10 0)
(1.10027 -2.61056e-09 0)
(1.10001 2.84912e-09 0)
(1.08772 -0.0420787 0)
(1.13728 -5.40038e-14 0)
(1.12674 1.52416e-13 0)
(1.12189 9.02622e-14 0)
(1.11779 -1.58288e-12 0)
(1.1129 1.19957e-11 0)
(1.10717 -8.55848e-11 0)
(1.10225 4.26375e-10 0)
(1.10027 -1.10559e-09 0)
(1.10001 1.01386e-09 0)
(1.08062 -0.0600779 0)
(1.13728 -8.30412e-14 0)
(1.12674 1.72298e-13 0)
(1.12189 -3.22328e-14 0)
(1.11779 -1.4367e-12 0)
(1.1129 7.32266e-12 0)
(1.10717 -4.62744e-11 0)
(1.10225 2.08247e-10 0)
(1.10027 -4.64868e-10 0)
(1.10001 3.49563e-10 0)
(1.07139 -0.0784373 0)
(1.13728 -1.13023e-13 0)
(1.12674 2.09235e-13 0)
(1.12189 -8.0613e-14 0)
(1.11779 -1.1278e-12 0)
(1.1129 4.42186e-12 0)
(1.10717 -2.98477e-11 0)
(1.10225 1.72277e-10 0)
(1.10027 -3.90226e-10 0)
(1.10001 1.88195e-10 0)
(1.05833 -0.0942956 0)
(1.13728 -4.91435e-14 0)
(1.12674 1.07581e-13 0)
(1.12189 -2.83607e-13 0)
(1.11779 3.74135e-13 0)
(1.1129 -8.55391e-14 0)
(1.10717 -2.8819e-11 0)
(1.10225 4.38434e-10 0)
(1.10027 -2.35455e-09 0)
(1.10001 2.46172e-09 0)
(1.03992 -0.107703 0)
(1.13728 9.01708e-14 0)
(1.12674 -1.19482e-15 0)
(1.12189 -1.32129e-12 0)
(1.11779 8.39718e-12 0)
(1.1129 -4.29503e-11 0)
(1.10717 5.30796e-11 0)
(1.10225 1.14907e-09 0)
(1.10027 -1.57317e-08 0)
(1.10001 5.20205e-08 0)
(1.01597 -0.118539 0)
(1.13728 8.5917e-14 0)
(1.12674 2.41905e-13 0)
(1.12189 -4.44403e-12 0)
(1.11779 3.82695e-11 0)
(1.1129 -2.72031e-10 0)
(1.10717 1.17244e-09 0)
(1.10225 1.40447e-09 0)
(1.10027 -4.07624e-08 0)
(1.10001 2.81375e-07 0)
(0.986763 -0.125766 0)
(1.13728 -2.86124e-14 0)
(1.12674 7.54203e-13 0)
(1.12189 -1.08866e-11 0)
(1.11779 1.11428e-10 0)
(1.1129 -1.00363e-09 0)
(1.10717 6.95794e-09 0)
(1.10225 -2.02265e-08 0)
(1.10027 -5.80336e-08 0)
(1.10001 6.21468e-07 0)
(0.951747 -0.128761 0)
(1.13728 -6.46964e-14 0)
(1.12674 1.50993e-12 0)
(1.12189 -2.06619e-11 0)
(1.11779 2.39697e-10 0)
(1.1129 -2.66884e-09 0)
(1.10717 2.70031e-08 0)
(1.10225 -1.85264e-07 0)
(1.10027 5.16569e-07 0)
(1.10001 1.29818e-06 0)
(0.910278 -0.12803 0)
(1.13728 -2.48082e-13 0)
(1.12674 2.15249e-12 0)
(1.12189 -2.97886e-11 0)
(1.11779 3.91364e-10 0)
(1.1129 -5.14853e-09 0)
(1.10717 6.68893e-08 0)
(1.10225 -7.00017e-07 0)
(1.10027 4.41531e-06 0)
(1.10002 -7.0109e-07 0)
(0.86218 -0.121233 0)
(1.13728 -3.24037e-13 0)
(1.12674 2.63119e-12 0)
(1.12189 -3.81422e-11 0)
(1.11779 5.16727e-10 0)
(1.1129 -7.13382e-09 0)
(1.10717 1.01217e-07 0)
(1.10226 -1.22768e-06 0)
(1.10026 1.05751e-05 0)
(1.10003 -6.30528e-05 0)
(0.809101 -0.108742 0)
(1.13728 -2.02582e-13 0)
(1.12674 2.56757e-12 0)
(1.12189 -3.66643e-11 0)
(1.11779 4.82727e-10 0)
(1.1129 -6.14755e-09 0)
(1.10717 8.06799e-08 0)
(1.10226 -1.11989e-06 0)
(1.10026 1.58787e-05 0)
(1.09991 -0.000187608 0)
(0.755851 -0.0871885 0)
(1.13728 -5.63547e-14 0)
(1.12674 1.82464e-12 0)
(1.12189 -2.44513e-11 0)
(1.11779 2.96078e-10 0)
(1.1129 -3.20566e-09 0)
(1.10717 3.16103e-08 0)
(1.10226 -4.8827e-07 0)
(1.10026 1.30817e-05 0)
(1.09964 -0.000221483 0)
(0.708071 -0.0604649 0)
(1.13728 -3.48505e-14 0)
(1.12674 7.9026e-13 0)
(1.12189 -9.35661e-12 0)
(1.11779 1.18283e-10 0)
(1.1129 -1.48779e-09 0)
(1.10717 2.03599e-08 0)
(1.10225 -3.58231e-07 0)
(1.10028 6.93943e-06 0)
(1.09944 -8.46431e-05 0)
(0.680367 -0.02015 0)
(1.1 -0.000125166 0)
(1.1 -0.000115454 0)
(1.10002 -8.02601e-05 0)
(1.10001 -3.55031e-05 0)
(1.09937 -0.00111206 0)
(1.07146 -0.0371774 0)
(0.942821 -0.169427 0)
(0.872444 -0.256641 0)
(0.886649 -0.266252 0)
(0.922117 -0.266444 0)
(1.10001 -0.00130094 0)
(1.10005 -0.00120137 0)
(1.10018 -0.000807841 0)
(1.09985 -0.00117779 0)
(1.08242 -0.023823 0)
(0.9656 -0.141952 0)
(0.854511 -0.243926 0)
(0.852274 -0.272143 0)
(0.882367 -0.269258 0)
(0.922379 -0.264004 0)
(1.09986 -0.00509518 0)
(1.1002 -0.00469227 0)
(1.10039 -0.00411544 0)
(1.08891 -0.0177903 0)
(0.987529 -0.116068 0)
(0.851884 -0.225278 0)
(0.820273 -0.267711 0)
(0.84512 -0.271586 0)
(0.881586 -0.269199 0)
(0.924709 -0.265729 0)
(1.09981 -0.0126539 0)
(1.10025 -0.0120957 0)
(1.093 -0.020314 0)
(1.00822 -0.0968574 0)
(0.858868 -0.209488 0)
(0.808092 -0.255581 0)
(0.81497 -0.270218 0)
(0.843322 -0.270872 0)
(0.881192 -0.271097 0)
(0.928067 -0.268971 0)
(1.09805 -0.0241041 0)
(1.09461 -0.0297147 0)
(1.02996 -0.0859409 0)
(0.872703 -0.191178 0)
(0.800403 -0.242837 0)
(0.79283 -0.263612 0)
(0.813159 -0.267886 0)
(0.842778 -0.271605 0)
(0.881344 -0.273527 0)
(0.931742 -0.271931 0)
(1.08948 -0.0462912 0)
(1.04948 -0.0802564 0)
(0.899766 -0.176258 0)
(0.797511 -0.226277 0)
(0.786722 -0.246176 0)
(0.789072 -0.261774 0)
(0.809383 -0.267313 0)
(0.840232 -0.273365 0)
(0.880936 -0.276006 0)
(0.935376 -0.274513 0)
(1.0564 -0.0920038 0)
(0.933753 -0.155786 0)
(0.816659 -0.212934 0)
(0.77721 -0.230304 0)
(0.77787 -0.243454 0)
(0.784968 -0.257689 0)
(0.804969 -0.269787 0)
(0.837373 -0.275616 0)
(0.879891 -0.279566 0)
(0.938589 -0.277776 0)
(0.972929 -0.147653 0)
(0.831047 -0.192078 0)
(0.782756 -0.214656 0)
(0.770838 -0.225755 0)
(0.770676 -0.238752 0)
(0.778994 -0.254205 0)
(0.799875 -0.268372 0)
(0.834511 -0.278337 0)
(0.8793 -0.284134 0)
(0.942342 -0.282625 0)
(0.877949 -0.17174 0)
(0.773274 -0.19633 0)
(0.759208 -0.20934 0)
(0.75765 -0.222165 0)
(0.758991 -0.236149 0)
(0.77009 -0.251982 0)
(0.794622 -0.265892 0)
(0.828961 -0.279891 0)
(0.877175 -0.28871 0)
(0.945773 -0.288277 0)
(0.810597 -0.168305 0)
(0.742937 -0.187881 0)
(0.735448 -0.204961 0)
(0.73489 -0.222997 0)
(0.741367 -0.237461 0)
(0.759368 -0.250435 0)
(0.786235 -0.265504 0)
(0.821476 -0.282325 0)
(0.873319 -0.294529 0)
(0.948821 -0.294954 0)
(0.766573 -0.158833 0)
(0.723243 -0.178747 0)
(0.716024 -0.20377 0)
(0.712912 -0.225191 0)
(0.722817 -0.23991 0)
(0.745389 -0.251604 0)
(0.774154 -0.268805 0)
(0.812457 -0.28565 0)
(0.868562 -0.301595 0)
(0.952214 -0.302551 0)
(0.731323 -0.153528 0)
(0.705342 -0.171346 0)
(0.702496 -0.197729 0)
(0.69711 -0.222927 0)
(0.706481 -0.241019 0)
(0.728418 -0.255214 0)
(0.759263 -0.272623 0)
(0.801313 -0.289795 0)
(0.861656 -0.309009 0)
(0.954494 -0.31059 0)
(0.696863 -0.153325 0)
(0.684533 -0.168654 0)
(0.688928 -0.190901 0)
(0.685203 -0.216857 0)
(0.692578 -0.241061 0)
(0.711482 -0.260268 0)
(0.743753 -0.278152 0)
(0.788463 -0.295535 0)
(0.852457 -0.317159 0)
(0.953553 -0.319153 0)
(0.658897 -0.154784 0)
(0.657212 -0.168327 0)
(0.668655 -0.18727 0)
(0.670868 -0.211233 0)
(0.678737 -0.238036 0)
(0.694926 -0.262257 0)
(0.727015 -0.282489 0)
(0.773794 -0.301595 0)
(0.841695 -0.32604 0)
(0.949851 -0.329039 0)
(0.615036 -0.159293 0)
(0.621543 -0.17052 0)
(0.638443 -0.187282 0)
(0.649619 -0.20961 0)
(0.661211 -0.236577 0)
(0.677251 -0.264335 0)
(0.708446 -0.287894 0)
(0.755935 -0.308051 0)
(0.826633 -0.335003 0)
(0.941124 -0.339903 0)
(0.563864 -0.159524 0)
(0.576946 -0.168964 0)
(0.596639 -0.18377 0)
(0.617826 -0.202796 0)
(0.636147 -0.228415 0)
(0.655378 -0.257785 0)
(0.68622 -0.285742 0)
(0.734558 -0.311882 0)
(0.808108 -0.343939 0)
(0.928552 -0.352893 0)
(0.501649 -0.160005 0)
(0.520338 -0.170773 0)
(0.539554 -0.190297 0)
(0.567759 -0.207921 0)
(0.593626 -0.232917 0)
(0.621414 -0.262164 0)
(0.657039 -0.293094 0)
(0.709469 -0.320996 0)
(0.786355 -0.355718 0)
(0.912531 -0.36783 0)
(0.43226 -0.141557 0)
(0.456337 -0.151273 0)
(0.476534 -0.171968 0)
(0.509982 -0.189963 0)
(0.544988 -0.215732 0)
(0.582737 -0.249208 0)
(0.62516 -0.286519 0)
(0.680861 -0.323861 0)
(0.761007 -0.365178 0)
(0.899189 -0.388501 0)
(0.366228 -0.141076 0)
(0.400678 -0.158592 0)
(0.42853 -0.186885 0)
(0.465395 -0.21184 0)
(0.507308 -0.239649 0)
(0.553365 -0.272227 0)
(0.603072 -0.307754 0)
(0.662837 -0.342671 0)
(0.742839 -0.383615 0)
(0.879843 -0.41668 0)
(0.328717 -0.11682 0)
(0.379277 -0.140176 0)
(0.419633 -0.181833 0)
(0.461462 -0.220746 0)
(0.507936 -0.252239 0)
(0.556607 -0.28216 0)
(0.606317 -0.31366 0)
(0.664067 -0.344816 0)
(0.741809 -0.384563 0)
(0.882513 -0.425542 0)
(1.00754 -0.235973 0)
(1.11247 -0.152442 0)
(1.16903 -0.0489334 0)
(1.16676 0.0199694 0)
(1.13675 0.0259823 0)
(1.11471 0.0123228 0)
(1.10293 0.00201523 0)
(1.10021 5.83491e-05 0)
(1.10001 -4.80364e-07 0)
(1.0982 -4.24156e-07 0)
(1.01553 -0.23252 0)
(1.12908 -0.142953 0)
(1.18626 -0.0313658 0)
(1.16909 0.0346131 0)
(1.13408 0.0353126 0)
(1.11227 0.0184912 0)
(1.10221 0.00389858 0)
(1.10015 0.000238143 0)
(1.1 6.45899e-06 0)
(1.0982 -2.07923e-06 0)
(1.02272 -0.233204 0)
(1.14112 -0.135837 0)
(1.20006 -0.0140276 0)
(1.17562 0.0539909 0)
(1.13574 0.0502644 0)
(1.11087 0.0274316 0)
(1.10122 0.00620067 0)
(1.10004 0.000406754 0)
(1.1 2.0117e-05 0)
(1.0982 -7.62465e-06 0)
(1.03161 -0.233852 0)
(1.15856 -0.125066 0)
(1.21392 0.0042528 0)
(1.17437 0.0688087 0)
(1.13274 0.0617473 0)
(1.10713 0.0348261 0)
(1.09973 0.00854471 0)
(1.09988 0.000641296 0)
(1.09998 3.55936e-05 0)
(1.09821 -1.23957e-05 0)
(1.04275 -0.233053 0)
(1.17391 -0.115211 0)
(1.23063 0.0251707 0)
(1.17604 0.0910103 0)
(1.13288 0.078782 0)
(1.10393 0.0439331 0)
(1.09808 0.0111185 0)
(1.09967 0.000923491 0)
(1.09997 4.81667e-05 0)
(1.09821 -1.30008e-05 0)
(1.0542 -0.231947 0)
(1.19538 -0.102258 0)
(1.24514 0.0461439 0)
(1.17146 0.107442 0)
(1.12848 0.0918708 0)
(1.09827 0.0503745 0)
(1.09584 0.0132677 0)
(1.09937 0.00121016 0)
(1.09995 5.98552e-05 0)
(1.09821 -1.22968e-05 0)
(1.06838 -0.230247 0)
(1.21398 -0.0922185 0)
(1.26381 0.0719921 0)
(1.17345 0.131136 0)
(1.1271 0.111013 0)
(1.09364 0.05975 0)
(1.09358 0.0160102 0)
(1.09902 0.00155274 0)