/*--------------------------------*- C++ -*----------------------------------*\
  =========                 |
  \\      /  F ield         | OpenFOAM: The Open Source CFD Toolbox
   \\    /   O peration     | Website:  https://openfoam.org
    \\  /    A nd           | Version:  8
     \\/     M anipulation  |
\*---------------------------------------------------------------------------*/
FoamFile
{
    version     2.0;
    format      ascii;
    class       volScalarField;
    location    "1.2";
    object      p;
}
// * * * * * * * * * * * * * * * * * * * * * * * * * * * * * * * * * * * * * //

dimensions      [1 -1 -2 0 0 0 0];

internalField   nonuniform List<scalar> 
2600
(
0.571454
0.536032
0.50557
0.561166
0.722823
0.882649
1.01679
1.25604
1.35479
1.28241
0.57444
0.533958
0.507405
0.560759
0.721029
0.890286
1.0218
1.25289
1.3599
1.27829
0.575203
0.532257
0.510118
0.561137
0.718828
0.89832
1.03006
1.25965
1.3718
1.27485
0.576194
0.530807
0.512157
0.560129
0.716545
0.902733
1.03084
1.27316
1.38951
1.28459
0.578269
0.530136
0.511876
0.560746
0.714265
0.903878
1.03222
1.27549
1.39119
1.29841
0.582443
0.529282
0.513452
0.561419
0.711918
0.904503
1.03226
1.27872
1.38348
1.30038
0.58606
0.529484
0.513309
0.564454
0.710318
0.903477
1.03355
1.28432
1.39224
1.30322
0.588558
0.531047
0.515664
0.565777
0.709702
0.902263
1.03279
1.2848
1.3934
1.30239
0.590993
0.531771
0.517294
0.567978
0.710349
0.903179
1.03333
1.28765
1.39786
1.29151
0.591841
0.53272
0.518719
0.571623
0.710667
0.902447
1.03015
1.2854
1.39587
1.29657
0.591933
0.53283
0.517791
0.568779
0.710535
0.902529
1.03014
1.28545
1.39167
1.30793
0.591161
0.531963
0.516424
0.566671
0.710214
0.903327
1.03341
1.28763
1.39368
1.31322
0.588653
0.531493
0.516108
0.565676
0.709795
0.902356
1.03291
1.28472
1.392
1.3018
0.586018
0.529671
0.513877
0.564049
0.7101
0.90347
1.03374
1.28445
1.39314
1.29949
0.582321
0.528984
0.513533
0.561727
0.711774
0.904333
1.03233
1.27846
1.38667
1.2949
0.578244
0.529834
0.511746
0.561757
0.714119
0.903737
1.03291
1.27531
1.39286
1.2866
0.576331
0.530876
0.512122
0.560036
0.716299
0.902517
1.02994
1.27384
1.38474
1.29219
0.57535
0.532505
0.51037
0.560818
0.718816
0.898101
1.03006
1.25953
1.37106
1.29205
0.574494
0.534046
0.507503
0.560221
0.720873
0.890618
1.0234
1.2525
1.36324
1.27954
0.57149
0.535876
0.505337
0.560747
0.722665
0.882764
1.01705
1.2561
1.35821
1.27097
0.681425
0.535377
0.499872
0.560194
0.722988
0.872859
1.01013
1.25327
1.35177
1.26766
0.801757
0.546609
0.502451
0.559772
0.720277
0.860334
1.00065
1.24262
1.34129
1.26913
0.917219
0.57207
0.501982
0.562226
0.714529
0.845622
0.987543
1.23034
1.32906
1.26917
1.00802
0.61299
0.508275
0.568462
0.704146
0.828542
0.970337
1.22016
1.31851
1.26332
1.08764
0.663368
0.522067
0.581469
0.693624
0.80853
0.949217
1.21157
1.31015
1.25536
1.15061
0.713487
0.543656
0.601206
0.68343
0.78569
0.925246
1.19876
1.30248
1.24844
1.20371
0.766236
0.577917
0.621929
0.675165
0.760561
0.899503
1.18396
1.29389
1.24433
1.24705
0.817061
0.61886
0.646947
0.670839
0.733878
0.871048
1.16486
1.28515
1.24259
1.28315
0.867551
0.668887
0.675359
0.672062
0.710379
0.838368
1.14362
1.27748
1.23933
1.31391
0.915998
0.722854
0.705761
0.680335
0.694616
0.803481
1.11976
1.26969
1.23164
1.34032
0.963926
0.78178
0.738205
0.689811
0.684667
0.76856
1.0914
1.25973
1.22184
1.36394
1.01159
0.840586
0.77082
0.702901
0.681743
0.738624
1.05983
1.24839
1.21346
1.38573
1.06017
0.898824
0.803382
0.719582
0.681703
0.716484
1.025
1.23692
1.20767
1.40705
1.10979
0.953923
0.834704
0.739565
0.68354
0.701172
0.988674
1.22594
1.20478
1.42892
1.16043
1.00522
0.866837
0.759293
0.686906
0.691176
0.951906
1.21418
1.19989
1.45236
1.21181
1.05216
0.897952
0.780672
0.692562
0.686595
0.915543
1.20002
1.1939
1.47811
1.26323
1.09439
0.92915
0.802011
0.698674
0.685774
0.8805
1.18216
1.18804
1.50743
1.31375
1.13281
0.957998
0.824348
0.707119
0.686338
0.848143
1.1604
1.18198
1.54054
1.36153
1.16759
0.98534
0.846338
0.717515
0.687775
0.818986
1.13506
1.1747
1.57714
1.40461
1.19942
1.01149
0.867542
0.730148
0.689258
0.79298
1.10763
1.16593
2.91924
2.77514
2.67623
2.57982
2.48596
2.39389
2.29632
2.18811
2.03845
1.86606
2.72524
2.58938
2.52566
2.45573
2.38515
2.30808
2.22008
2.11227
1.96153
1.74827
2.65871
2.55848
2.50514
2.43714
2.37062
2.29722
2.21112
2.1024
1.95226
1.74012
2.57544
2.50044
2.45612
2.394
2.33413
2.26283
2.17802
2.06932
1.92367
1.70981
2.50423
2.44529
2.40954
2.35349
2.29783
2.22841
2.14625
2.03974
1.90012
1.69017
2.43632
2.38854
2.35816
2.30874
2.25925
2.19379
2.11566
2.0121
1.87884
1.67666
2.37445
2.33727
2.31197
2.26856
2.22371
2.16117
2.08684
1.98668
1.86009
1.67009
2.3181
2.29023
2.26855
2.23008
2.18874
2.12923
2.05892
1.9628
1.84335
1.66719
2.27112
2.25004
2.2308
2.19589
2.15674
2.09966
2.03295
1.94103
1.82852
1.66628
2.23406
2.21566
2.19726
2.16415
2.1263
2.07179
2.00879
1.92143
1.81574
1.66623
2.205
2.18551
2.16659
2.13443
2.09779
2.04612
1.98693
1.90434
1.80504
1.66695
2.17864
2.15686
2.13751
2.1066
2.07161
2.0232
1.96782
1.8899
1.79643
1.66831
2.15176
2.12884
2.10976
2.08085
2.04808
2.00315
1.95135
1.87792
1.78969
1.67016
2.12303
2.10053
2.08284
2.05709
2.02732
1.98586
1.9372
1.8678
1.78416
1.67217
2.09365
2.07404
2.05898
2.0364
2.00918
1.97044
1.92419
1.85837
1.77918
1.67419
2.06691
2.05142
2.03876
2.0178
1.99233
1.95599
1.91193
1.84968
1.77483
1.67635
2.04728
2.03321
2.02113
2.00113
1.97718
1.94276
1.90052
1.84142
1.77061
1.67859
2.02864
2.01642
2.00472
1.98603
1.96323
1.93025
1.88952
1.83353
1.76697
1.68176
2.01148
2.00124
1.99009
1.97237
1.94987
1.91758
1.87834
1.82606
1.76439
1.68705
1.99611
1.98707
1.97646
1.95914
1.93685
1.90553
1.86888
1.82166
1.76493
1.69673
1.00948
1.03094
1.06587
1.15348
1.23949
1.25404
1.25326
1.28784
1.93607
2.36207
1.00948
1.03094
1.06587
1.15348
1.23947
1.25407
1.25322
1.28752
1.93388
2.35108
1.00948
1.03094
1.06587
1.15349
1.23945
1.25412
1.25312
1.28694
1.93052
2.33506
1.00948
1.03094
1.06587
1.15349
1.23942
1.25419
1.25297
1.28602
1.92572
2.31567
1.00948
1.03094
1.06587
1.1535
1.23938
1.25429
1.25278
1.28473
1.91961
2.29566
1.00948
1.03094
1.06587
1.15351
1.23933
1.2544
1.25256
1.28303
1.91212
2.27479
1.00948
1.03094
1.06587
1.15352
1.23927
1.25453
1.25231
1.2809
1.90329
2.25429
1.00948
1.03094
1.06587
1.15353
1.23921
1.25468
1.25206
1.27832
1.89301
2.23342
1.00948
1.03094
1.06588
1.15354
1.23914
1.25483
1.2518
1.2753
1.88117
2.21261
1.00948
1.03094
1.06588
1.15355
1.23907
1.25499
1.25155
1.27193
1.86783
2.19182
1.00948
1.03094
1.06588
1.15356
1.239
1.25515
1.25132
1.26825
1.85315
2.17168
1.00948
1.03094
1.06588
1.15358
1.23893
1.2553
1.2511
1.26439
1.83727
2.15248
1.00948
1.03093
1.06588
1.15359
1.23886
1.25545
1.25089
1.26046
1.82054
2.13407
1.00948
1.03093
1.06589
1.1536
1.2388
1.25559
1.25077
1.25665
1.80299
2.11596
1.00948
1.03093
1.06589
1.15361
1.23875
1.25572
1.25065
1.25307
1.78446
2.09767
1.00948
1.03093
1.06589
1.15362
1.2387
1.25583
1.2506
1.24979
1.76496
2.07929
1.00948
1.03093
1.0659
1.15363
1.23865
1.25593
1.25062
1.24704
1.74444
2.06109
1.00948
1.03093
1.0659
1.15363
1.23862
1.25601
1.25072
1.24487
1.72305
2.04402
1.00948
1.03093
1.06591
1.15363
1.2386
1.25606
1.25088
1.24324
1.70075
2.02748
1.00948
1.03093
1.06591
1.15363
1.23859
1.25609
1.25107
1.24214
1.67782
2.01074
1.00948
1.03093
1.06591
1.15363
1.23859
1.25609
1.25107
1.24214
1.67782
2.01074
1.00948
1.03093
1.06591
1.15363
1.2386
1.25606
1.25088
1.24324
1.70075
2.02748
1.00948
1.03093
1.0659
1.15363
1.23862
1.25601
1.25072
1.24487
1.72305
2.04402
1.00948
1.03093
1.0659
1.15363
1.23865
1.25593
1.25062
1.24704
1.74444
2.06109
1.00948
1.03093
1.06589
1.15362
1.2387
1.25583
1.2506
1.24979
1.76496
2.07929
1.00948
1.03093
1.06589
1.15361
1.23875
1.25572
1.25065
1.25307
1.78446
2.09767
1.00948
1.03093
1.06589
1.1536
1.2388
1.25559
1.25077
1.25665
1.80299
2.11596
1.00948
1.03093
1.06588
1.15359
1.23886
1.25545
1.25089
1.26046
1.82054
2.13407
1.00948
1.03094
1.06588
1.15358
1.23893
1.2553
1.2511
1.26439
1.83727
2.15248
1.00948
1.03094
1.06588
1.15356
1.239
1.25515
1.25132
1.26825
1.85315
2.17168
1.00948
1.03094
1.06588
1.15355
1.23907
1.25499
1.25155
1.27193
1.86783
2.19182
1.00948
1.03094
1.06588
1.15354
1.23914
1.25483
1.2518
1.2753
1.88117
2.21261
1.00948
1.03094
1.06587
1.15353
1.23921
1.25468
1.25206
1.27832
1.89301
2.23342
1.00948
1.03094
1.06587
1.15352
1.23927
1.25453
1.25231
1.2809
1.90329
2.25429
1.00948
1.03094
1.06587
1.15351
1.23933
1.2544
1.25256
1.28303
1.91212
2.27479
1.00948
1.03094
1.06587
1.1535
1.23938
1.25429
1.25278
1.28473
1.91961
2.29566
1.00948
1.03094
1.06587
1.15349
1.23942
1.25419
1.25297
1.28602
1.92572
2.31567
1.00948
1.03094
1.06587
1.15349
1.23945
1.25412
1.25312
1.28694
1.93052
2.33506
1.00948
1.03094
1.06587
1.15348
1.23947
1.25407
1.25322
1.28752
1.93388
2.35108
1.00948
1.03094
1.06587
1.15348
1.23949
1.25404
1.25326
1.28784
1.93607
2.36207
1.99611
1.98707
1.97646
1.95914
1.93685
1.90553
1.86888
1.82166
1.76493
1.69673
2.01148
2.00124
1.99009
1.97237
1.94987
1.91758
1.87834
1.82606
1.76439
1.68705
2.02864
2.01641
2.00472
1.98603
1.96323
1.93025
1.88952
1.83352
1.76697
1.68176
2.04728
2.03321
2.02113
2.00113
1.97718
1.94275
1.90052
1.84142
1.77061
1.67859
2.06691
2.05141
2.03876
2.0178
1.99232
1.95599
1.91192
1.84968
1.77483
1.67635
2.09365
2.07404
2.05897
2.0364
2.00918
1.97044
1.92419
1.85837
1.77918
1.67418
2.12303
2.10052
2.08284
2.05709
2.02732
1.98586
1.9372
1.86781
1.78416
1.67217
2.15176
2.12884
2.10976
2.08084
2.04808
2.00315
1.95135
1.87792
1.78969
1.67016
2.17864
2.15686
2.13751
2.1066
2.07161
2.0232
1.96782
1.8899
1.79643
1.66831
2.205
2.18551
2.16659
2.13443
2.09779
2.04612
1.98693
1.90434
1.80504
1.66695
2.23406
2.21566
2.19726
2.16415
2.1263
2.07179
2.00879
1.92144
1.81574
1.66623
2.27112
2.25004
2.2308
2.19589
2.15674
2.09966
2.03295
1.94103
1.82853
1.66629
2.3181
2.29023
2.26855
2.23008
2.18874
2.12923
2.05892
1.9628
1.84335
1.66719
2.37445
2.33726
2.31197
2.26856
2.22371
2.16117
2.08684
1.98668
1.8601
1.67009
2.43632
2.38854
2.35816
2.30874
2.25925
2.19379
2.11566
2.0121
1.87884
1.67667
2.50423
2.44529
2.40954
2.35349
2.29783
2.22841
2.14625
2.03974
1.90012
1.69017
2.57544
2.50044
2.45612
2.394
2.33413
2.26283
2.17802
2.06932
1.92367
1.70982
2.65871
2.55848
2.50514
2.43714
2.37062
2.29722
2.21112
2.1024
1.95226
1.74012
2.72524
2.58938
2.52566
2.45573
2.38515
2.30808
2.22008
2.11227
1.96153
1.74827
2.91924
2.77514
2.67623
2.57982
2.48596
2.39389
2.29632
2.18811
2.03845
1.86606
1.57714
1.40461
1.19942
1.0115
0.867553
0.730155
0.689295
0.793057
1.10819
1.16495
1.54054
1.36153
1.16758
0.985339
0.846347
0.717546
0.687778
0.818889
1.1358
1.17425
1.50743
1.31374
1.13281
0.957994
0.824368
0.707107
0.686313
0.84783
1.16046
1.18278
1.47811
1.26323
1.09439
0.929151
0.801997
0.698712
0.685741
0.880316
1.18131
1.18972
1.45236
1.21181
1.05218
0.897944
0.780677
0.692475
0.686558
0.915804
1.19878
1.19443
1.42892
1.16042
1.00526
0.866823
0.759252
0.686956
0.691111
0.952561
1.2138
1.19728
1.40705
1.10977
0.953965
0.834687
0.739533
0.683549
0.701201
0.989008
1.22703
1.20227
1.38573
1.06015
0.898846
0.803379
0.719532
0.681609
0.716512
1.02472
1.23859
1.20945
1.36394
1.01157
0.840575
0.770824
0.702839
0.681811
0.738656
1.05918
1.24888
1.21765
1.34032
0.963932
0.781721
0.738198
0.689844
0.684526
0.768432
1.09116
1.25824
1.22429
1.31391
0.916042
0.722754
0.705768
0.680425
0.69468
0.803263
1.12017
1.26747
1.22815
1.28314
0.86761
0.668811
0.675373
0.672181
0.710495
0.838218
1.14395
1.27732
1.23328
1.24705
0.817096
0.618844
0.646962
0.670962
0.734013
0.871176
1.16494
1.28749
1.24042
1.20371
0.766193
0.577974
0.621956
0.675258
0.76069
0.899852
1.18346
1.29678
1.2486
1.15061
0.713393
0.543741
0.601292
0.683531
0.785743
0.925154
1.19817
1.30073
1.25483
1.08765
0.663277
0.522121
0.581582
0.693806
0.808529
0.948603
1.21197
1.30713
1.25669
1.00803
0.612896
0.50829
0.568511
0.704422
0.828574
0.969977
1.22054
1.31805
1.25716
0.917215
0.571979
0.50192
0.562026
0.714681
0.845714
0.987804
1.23031
1.33125
1.26147
0.801711
0.546567
0.50239
0.559525
0.720293
0.860487
1.00134
1.24243
1.34445
1.26873
0.681369
0.535398
0.500013
0.560197
0.722976
0.873033
1.01066
1.25311
1.35151
1.2774
1.9437
1.81071
1.65294
1.48907
1.31416
1.14361
0.970763
0.758282
0.66938
0.745168
1.94393
1.80841
1.64996
1.48583
1.31126
1.14127
0.968329
0.757202
0.669679
0.748633
1.94337
1.80905
1.64784
1.48128
1.30671
1.13724
0.964062
0.754953
0.670318
0.751508
1.94072
1.80628
1.64262
1.4747
1.30028
1.13131
0.957728
0.752045
0.671429
0.75692
1.93589
1.80091
1.63565
1.46655
1.29208
1.1236
0.949356
0.748141
0.672912
0.764732
1.92936
1.79341
1.62725
1.45684
1.28216
1.11406
0.938897
0.743514
0.675041
0.77501
1.92188
1.78388
1.61706
1.44571
1.2704
1.10266
0.926457
0.738162
0.677525
0.787749
1.91386
1.77423
1.60683
1.43298
1.2568
1.0894
0.911782
0.732403
0.681096
0.802299
1.90516
1.76266
1.59336
1.41773
1.24083
1.07396
0.895352
0.726536
0.686199
0.818576
1.89578
1.74922
1.57662
1.39916
1.22223
1.05626
0.876484
0.72094
0.69332
0.83695
1.88479
1.73298
1.55629
1.37701
1.20053
1.03571
0.855375
0.715804
0.701883
0.857709
1.87296
1.71395
1.53268
1.35145
1.17585
1.01218
0.832075
0.713024
0.712342
0.883042
1.86047
1.69221
1.50639
1.32318
1.14868
0.985358
0.807088
0.711226
0.724828
0.912996
1.84761
1.66944
1.47874
1.29226
1.11826
0.955647
0.783357
0.70932
0.744199
0.947332
1.8345
1.64647
1.44889
1.25879
1.08655
0.922857
0.760147
0.706449
0.77198
0.984428
1.82004
1.62244
1.41691
1.22261
1.05208
0.888815
0.740537
0.704411
0.807759
1.02128
1.79979
1.59649
1.38162
1.18406
1.0165
0.852829
0.724872
0.706042
0.853341
1.05737
1.76569
1.56468
1.34167
1.14197
0.979651
0.817672
0.712079
0.713018
0.912069
1.0924
1.70967
1.52125
1.29644
1.09688
0.940805
0.783863
0.699807
0.727627
0.983844
1.12373
1.63518
1.46061
1.24415
1.04929
0.900407
0.752175
0.692119
0.758718
1.05833
1.1492
1.63518
1.46061
1.24415
1.04928
0.900393
0.752175
0.692067
0.758683
1.05857
1.14961
1.70967
1.52125
1.29643
1.09688
0.940793
0.783852
0.699827
0.727651
0.983959
1.12341
1.76569
1.56468
1.34166
1.14196
0.979646
0.817662
0.71211
0.71306
0.911968
1.09222
1.79979
1.59649
1.38162
1.18405
1.01649
0.852829
0.7249
0.706081
0.853337
1.05746
1.82004
1.62244
1.41691
1.22261
1.05208
0.888812
0.740557
0.70444
0.8078
1.02137
1.8345
1.64647
1.4489
1.25879
1.08655
0.92286
0.760141
0.706454
0.771994
0.984466
1.84761
1.66944
1.47874
1.29226
1.11826
0.955647
0.783344
0.709308
0.744185
0.947359
1.86047
1.69222
1.50639
1.32318
1.14868
0.985355
0.807076
0.711206
0.724803
0.913002
1.87296
1.71395
1.53268
1.35146
1.17585
1.01218
0.832074
0.713011
0.712324
0.88302
1.88479
1.73298
1.55629
1.37701
1.20053
1.03571
0.855381
0.715801
0.701873
0.857676
1.89578
1.74922
1.57663
1.39916
1.22224
1.05626
0.876492
0.720941
0.693317
0.836927
1.90516
1.76266
1.59336
1.41773
1.24083
1.07396
0.895355
0.726539
0.686198
0.81857
1.91386
1.77423
1.60684
1.43298
1.2568
1.0894
0.911782
0.732404
0.681096
0.802297
1.92188
1.78388
1.61706
1.44571
1.2704
1.10266
0.926454
0.738163
0.677525
0.787747
1.92936
1.79341
1.62726
1.45684
1.28216
1.11406
0.938894
0.743516
0.675041
0.775004
1.93589
1.80091
1.63565
1.46655
1.29208
1.1236
0.949354
0.748144
0.672914
0.764727
1.94072
1.80628
1.64262
1.4747
1.30028
1.13131
0.957728
0.752047
0.671432
0.756919
1.94337
1.80905
1.64784
1.48128
1.30671
1.13724
0.964063
0.754953
0.670321
0.751512
1.94393
1.80841
1.64996
1.48583
1.31126
1.14127
0.96833
0.757199
0.669681
0.748643
1.9437
1.81071
1.65295
1.48907
1.31416
1.14362
0.970765
0.758277
0.66938
0.745174
1.98184
1.97191
1.96036
1.94215
1.92034
1.89148
1.86058
1.82078
1.77334
1.72547
1.97354
1.95868
1.94375
1.92458
1.90437
1.88163
1.85858
1.83009
1.80482
1.78526
1.95229
1.94055
1.92781
1.91227
1.89879
1.88467
1.87333
1.86672
1.86627
1.85878
1.9421
1.93079
1.92085
1.91012
1.90639
1.90808
1.91977
1.93216
1.93477
1.91343
1.94414
1.9281
1.92468
1.92523
1.94017
1.96627
1.98796
1.99275
1.97667
1.9388
1.94551
1.93381
1.94517
1.97077
2.00559
2.03113
2.03744
2.02379
1.99104
1.94769
1.95385
1.9618
1.99789
2.03587
2.06183
2.06718
2.0563
2.02957
1.99519
1.95424
1.98205
2.01952
2.06244
2.0858
2.09251
2.08103
2.05805
2.02923
1.99597
1.95921
2.03241
2.0811
2.10751
2.11186
2.10254
2.08238
2.05718
2.02987
1.9993
1.96489
2.0894
2.12448
2.13128
2.12515
2.10779
2.08528
2.06099
2.03484
2.00545
1.97157
2.13602
2.14999
2.14528
2.13134
2.11155
2.08926
2.06607
2.04018
2.0114
1.97882
2.16846
2.1685
2.15445
2.13755
2.11797
2.09665
2.07325
2.04752
2.01783
1.98587
2.19359
2.18189
2.16372
2.14635
2.12676
2.10581
2.08227
2.05623
2.02667
1.99326
2.21304
2.19259
2.17454
2.15664
2.13615
2.11445
2.09087
2.06442
2.03664
2.00095
2.22859
2.20313
2.18531
2.16676
2.14537
2.12304
2.09907
2.07225
2.04437
2.0095
2.24165
2.2132
2.19479
2.17581
2.15396
2.13104
2.10659
2.07918
2.05025
2.01638
2.2532
2.22294
2.2031
2.18354
2.16138
2.13786
2.11253
2.08504
2.0545
2.02184
2.26373
2.2328
2.21104
2.19033
2.16739
2.14319
2.11701
2.08916
2.05819
2.02545
2.27152
2.24122
2.2176
2.19527
2.17094
2.14596
2.11929
2.09076
2.06032
2.02771
2.27529
2.24641
2.22282
2.19998
2.17461
2.14914
2.12218
2.09238
2.0622
2.03012
1.00948
1.03093
1.06592
1.15363
1.2386
1.25609
1.25133
1.2414
1.64853
1.98994
1.00949
1.03092
1.06592
1.15361
1.23863
1.25604
1.25164
1.24082
1.61343
1.96246
1.00949
1.03092
1.06593
1.15359
1.23869
1.25594
1.25193
1.24047
1.57915
1.93659
1.00949
1.03092
1.06594
1.15356
1.23877
1.2558
1.25218
1.24026
1.54527
1.91217
1.00949
1.03092
1.06594
1.15353
1.23887
1.25562
1.25241
1.2402
1.51213
1.89138
1.00949
1.03092
1.06595
1.15348
1.23899
1.25542
1.2526
1.24024
1.48047
1.87688
1.00949
1.03092
1.06595
1.15343
1.23912
1.25521
1.25275
1.24032
1.45003
1.86737
1.00949
1.03092
1.06595
1.15338
1.23925
1.25501
1.25288
1.24045
1.42018
1.85992
1.00949
1.03092
1.06596
1.15332
1.23939
1.25484
1.25298
1.2406
1.39151
1.85545
1.00949
1.03092
1.06595
1.15326
1.23952
1.25468
1.25306
1.24076
1.36471
1.85291
1.00948
1.03092
1.06595
1.1532
1.23965
1.25456
1.25314
1.24086
1.34014
1.85096
1.00948
1.03093
1.06595
1.15313
1.23977
1.25446
1.25321
1.24091
1.31835
1.84883
1.00948
1.03093
1.06595
1.15307
1.23988
1.25438
1.25329
1.24087
1.29974
1.84619
1.00948
1.03093
1.06594
1.15302
1.23998
1.25434
1.25336
1.24065
1.28427
1.84311
1.00948
1.03093
1.06594
1.15297
1.24006
1.25431
1.25344
1.24025
1.27203
1.83968
1.00948
1.03093
1.06593
1.15293
1.24013
1.25429
1.25354
1.23938
1.26306
1.83605
1.00948
1.03094
1.06593
1.15289
1.24019
1.25429
1.25366
1.23786
1.25707
1.833
1.00948
1.03094
1.06593
1.15286
1.24023
1.25429
1.2538
1.23629
1.25336
1.83106
1.00948
1.03094
1.06592
1.15284
1.24026
1.25429
1.2539
1.23536
1.25154
1.82961
1.00948
1.03094
1.06592
1.15283
1.24027
1.25429
1.25401
1.2345
1.25102
1.82894
1.00948
1.03094
1.06592
1.15283
1.24027
1.25429
1.25401
1.2345
1.25102
1.82894
1.00948
1.03094
1.06592
1.15284
1.24026
1.25429
1.2539
1.23536
1.25154
1.82961
1.00948
1.03094
1.06593
1.15286
1.24023
1.25429
1.2538
1.23629
1.25336
1.83106
1.00948
1.03094
1.06593
1.15289
1.24019
1.25429
1.25366
1.23786
1.25707
1.833
1.00948
1.03093
1.06593
1.15293
1.24013
1.25429
1.25354
1.23938
1.26306
1.83605
1.00948
1.03093
1.06594
1.15297
1.24006
1.25431
1.25344
1.24025
1.27203
1.83968
1.00948
1.03093
1.06594
1.15302
1.23998
1.25434
1.25336
1.24065
1.28427
1.84311
1.00948
1.03093
1.06595
1.15307
1.23988
1.25438
1.25329
1.24087
1.29974
1.84619
1.00948
1.03093
1.06595
1.15313
1.23977
1.25446
1.25321
1.24091
1.31835
1.84883
1.00948
1.03092
1.06595
1.1532
1.23965
1.25456
1.25314
1.24086
1.34014
1.85096
1.00949
1.03092
1.06595
1.15326
1.23952
1.25468
1.25306
1.24076
1.36471
1.85291
1.00949
1.03092
1.06596
1.15332
1.23939
1.25484
1.25298
1.2406
1.39151
1.85545
1.00949
1.03092
1.06595
1.15338
1.23925
1.25501
1.25288
1.24045
1.42018
1.85992
1.00949
1.03092
1.06595
1.15343
1.23912
1.25521
1.25275
1.24032
1.45003
1.86737
1.00949
1.03092
1.06595
1.15348
1.23899
1.25542
1.2526
1.24024
1.48047
1.87688
1.00949
1.03092
1.06594
1.15353
1.23887
1.25562
1.25241
1.2402
1.51213
1.89138
1.00949
1.03092
1.06594
1.15356
1.23877
1.2558
1.25218
1.24026
1.54527
1.91217
1.00949
1.03092
1.06593
1.15359
1.23869
1.25594
1.25193
1.24047
1.57915
1.93659
1.00949
1.03092
1.06592
1.15361
1.23863
1.25604
1.25164
1.24082
1.61343
1.96246
1.00948
1.03093
1.06592
1.15363
1.2386
1.25609
1.25133
1.2414
1.64853
1.98994
2.27529
2.24641
2.22282
2.19998
2.17461
2.14914
2.12218
2.09238
2.0622
2.03012
2.27152
2.24122
2.21759
2.19527
2.17094
2.14596
2.11928
2.09076
2.06032
2.02771
2.26373
2.2328
2.21104
2.19033
2.16739
2.14319
2.11701
2.08916
2.05819
2.02545
2.2532
2.22294
2.20311
2.18354
2.16138
2.13786
2.11253
2.08504
2.0545
2.02184
2.24166
2.2132
2.19479
2.17581
2.15396
2.13104
2.10659
2.07918
2.05025
2.01637
2.22859
2.20313
2.18531
2.16676
2.14537
2.12304
2.09907
2.07225
2.04437
2.0095
2.21304
2.19259
2.17454
2.15664
2.13615
2.11445
2.09087
2.06442
2.03664
2.00095
2.19359
2.18189
2.16372
2.14635
2.12676
2.10581
2.08227
2.05623
2.02667
1.99326
2.16846
2.1685
2.15445
2.13755
2.11797
2.09665
2.07325
2.04752
2.01783
1.98587
2.13602
2.14999
2.14528
2.13134
2.11155
2.08926
2.06607
2.04018
2.0114
1.97882
2.0894
2.12448
2.13128
2.12515
2.10779
2.08528
2.06099
2.03484
2.00545
1.97157
2.03241
2.0811
2.10751
2.11186
2.10254
2.08238
2.05718
2.02987
1.9993
1.96489
1.98205
2.01951
2.06244
2.0858
2.09251
2.08103
2.05805
2.02923
1.99597
1.95921
1.95385
1.9618
1.99789
2.03587
2.06182
2.06718
2.0563
2.02957
1.99519
1.95424
1.94551
1.93381
1.94517
1.97077
2.00559
2.03113
2.03744
2.02379
1.99104
1.94769
1.94414
1.9281
1.92468
1.92523
1.94017
1.96627
1.98796
1.99275
1.97667
1.93879
1.9421
1.93079
1.92085
1.91012
1.90639
1.90808
1.91977
1.93216
1.93476
1.91343
1.95229
1.94056
1.92781
1.91227
1.89879
1.88467
1.87332
1.86672
1.86626
1.85878
1.97354
1.95868
1.94375
1.92458
1.90437
1.88163
1.85858
1.83008
1.80482
1.78525
1.98184
1.97192
1.96036
1.94215
1.92034
1.89148
1.86057
1.82078
1.77334
1.72547
)
;

boundaryField
{
    inlet
    {
        type            fixedValue;
        value           uniform 1;
    }
    outlet
    {
        type            zeroGradient;
    }
    triangle
    {
        type            zeroGradient;
    }
    top
    {
        type            symmetryPlane;
    }
    bottom
    {
        type            symmetryPlane;
    }
    defaultFaces
    {
        type            empty;
    }
}


// ************************************************************************* //
