/*--------------------------------*- C++ -*----------------------------------*\
  =========                 |
  \\      /  F ield         | OpenFOAM: The Open Source CFD Toolbox
   \\    /   O peration     | Website:  https://openfoam.org
    \\  /    A nd           | Version:  8
     \\/     M anipulation  |
\*---------------------------------------------------------------------------*/
FoamFile
{
    version     2.0;
    format      ascii;
    class       volScalarField;
    location    "1.2";
    object      rho;
}
// * * * * * * * * * * * * * * * * * * * * * * * * * * * * * * * * * * * * * //

dimensions      [1 -3 0 0 0 0 0];

internalField   nonuniform List<scalar> 
2600
(
0.742986
0.725455
0.742726
0.820912
1.02468
1.221
1.3717
1.61759
1.70596
1.63431
0.741487
0.70739
0.715993
0.789
0.991106
1.20451
1.35893
1.60407
1.70567
1.62568
0.744297
0.704666
0.699564
0.762677
0.951656
1.17685
1.3368
1.59069
1.70672
1.6143
0.747832
0.704069
0.691013
0.74242
0.912103
1.13339
1.29086
1.56922
1.70427
1.60858
0.75112
0.703184
0.684215
0.729207
0.878804
1.08115
1.23379
1.52231
1.6738
1.5977
0.754667
0.700356
0.680886
0.721395
0.857966
1.041
1.18409
1.46805
1.62166
1.5678
0.756505
0.697853
0.677756
0.721382
0.851265
1.02531
1.16191
1.42464
1.58031
1.53554
0.757321
0.6975
0.678937
0.723136
0.853892
1.0271
1.15838
1.40119
1.54515
1.50619
0.758697
0.697288
0.680511
0.72708
0.860603
1.03572
1.16284
1.399
1.53185
1.48093
0.759221
0.697914
0.68201
0.731976
0.86436
1.04012
1.16392
1.39777
1.52572
1.47919
0.759304
0.698015
0.681149
0.729271
0.864242
1.04018
1.16393
1.39779
1.5224
1.48864
0.75885
0.697475
0.679751
0.725847
0.860472
1.03581
1.16292
1.39897
1.5286
1.49904
0.757414
0.697941
0.679389
0.723199
0.853945
1.02714
1.15848
1.40112
1.54407
1.50585
0.756472
0.698051
0.678296
0.721146
0.851047
1.02528
1.16203
1.4247
1.58089
1.53246
0.754555
0.700073
0.680997
0.721677
0.857821
1.04089
1.1841
1.46776
1.62412
1.56319
0.751108
0.702919
0.684099
0.730045
0.878684
1.08112
1.23433
1.5221
1.67505
1.58739
0.747975
0.704158
0.690961
0.742276
0.911913
1.1333
1.29005
1.5697
1.70022
1.61517
0.744435
0.704893
0.699796
0.762379
0.951689
1.17673
1.33681
1.59042
1.70633
1.62977
0.741538
0.70747
0.716093
0.788473
0.990995
1.20489
1.36047
1.60355
1.70868
1.62721
0.743013
0.72529
0.742496
0.82047
1.02455
1.22114
1.37198
1.6175
1.70922
1.6241
0.897847
0.762829
0.770361
0.850905
1.0503
1.22799
1.3767
1.62227
1.70643
1.62367
1.078
0.815684
0.800565
0.874541
1.06601
1.22762
1.37564
1.61724
1.69842
1.62669
1.23836
0.873745
0.816037
0.891613
1.07109
1.2187
1.36624
1.6067
1.68779
1.62778
1.35857
0.941164
0.833124
0.907376
1.06621
1.20248
1.3488
1.59556
1.67826
1.6231
1.45502
1.01374
0.857184
0.929396
1.05783
1.18095
1.32592
1.58479
1.67061
1.61633
1.5245
1.07868
0.888407
0.956185
1.04728
1.1557
1.30028
1.56983
1.66367
1.61074
1.57855
1.14022
0.930719
0.98068
1.03766
1.12822
1.27363
1.55329
1.65603
1.60792
1.62042
1.19556
0.977546
1.00831
1.03251
1.09992
1.24515
1.533
1.64825
1.60737
1.65443
1.2485
1.03341
1.03958
1.03342
1.07583
1.21289
1.51071
1.64109
1.60531
1.68347
1.29829
1.09264
1.07331
1.04317
1.06048
1.17798
1.48565
1.63324
1.59878
1.70901
1.34725
1.15619
1.10941
1.05522
1.05142
1.14208
1.45643
1.62276
1.58985
1.73253
1.39587
1.21881
1.14546
1.07177
1.04909
1.11092
1.42525
1.61064
1.58186
1.75469
1.44529
1.28039
1.18129
1.09199
1.04947
1.08786
1.39282
1.59854
1.57612
1.77634
1.49545
1.33828
1.21565
1.11531
1.05216
1.07238
1.36063
1.58751
1.57319
1.79809
1.54613
1.39183
1.25067
1.13796
1.05634
1.06305
1.32853
1.57661
1.56889
1.82076
1.59686
1.44046
1.28434
1.16196
1.06316
1.05961
1.29583
1.56438
1.56444
1.84506
1.64692
1.48385
1.31766
1.18548
1.07135
1.05923
1.26315
1.54941
1.56088
1.87235
1.69544
1.52279
1.34802
1.20971
1.08212
1.06025
1.23182
1.53168
1.55702
1.903
1.74082
1.55737
1.3762
1.23331
1.09464
1.06228
1.20273
1.51092
1.55128
1.93661
1.7811
1.58816
1.4026
1.25588
1.10921
1.06441
1.17627
1.4873
1.54368
2.93051
2.82433
2.74818
2.67426
2.60288
2.53299
2.45846
2.37506
2.25865
2.10743
2.7971
2.6958
2.6459
2.59172
2.53715
2.47745
2.40888
2.32428
2.20487
2.02618
2.75926
2.6853
2.6463
2.59521
2.54389
2.48641
2.41843
2.33221
2.21189
2.03832
2.70627
2.65044
2.61853
2.57242
2.52674
2.47118
2.4041
2.31723
2.19908
2.02245
2.65995
2.61543
2.58881
2.54657
2.50404
2.45008
2.38509
2.29957
2.18545
2.00991
2.61433
2.57785
2.55452
2.51629
2.47763
2.42603
2.3637
2.28005
2.1705
2.00009
2.57151
2.54268
2.52265
2.48824
2.45235
2.40221
2.34218
2.26063
2.156
1.9952
2.53039
2.50827
2.49063
2.45966
2.42618
2.37799
2.32072
2.24194
2.14274
1.99345
2.49362
2.47679
2.46124
2.43322
2.40158
2.35532
2.3008
2.22519
2.13142
1.99384
2.46393
2.44964
2.43528
2.40907
2.3787
2.33458
2.28303
2.21095
2.12258
1.99569
2.44325
2.42817
2.41346
2.388
2.35859
2.31669
2.2681
2.19971
2.11637
1.99901
2.42771
2.41007
2.39443
2.36951
2.34115
2.30168
2.25603
2.19123
2.11246
2.00328
2.41095
2.39205
2.37625
2.35253
2.32564
2.28874
2.24587
2.18462
2.11004
2.00788
2.39229
2.37349
2.35846
2.33678
2.3118
2.27728
2.23676
2.17872
2.10795
2.01204
2.37532
2.35838
2.34449
2.32423
2.30025
2.26702
2.22786
2.17247
2.1054
2.01543
2.3603
2.34651
2.33395
2.31412
2.29052
2.25806
2.2196
2.16642
2.10275
2.01837
2.34351
2.33244
2.32211
2.30434
2.28229
2.25084
2.21281
2.16116
2.10031
2.02128
2.32589
2.31674
2.30809
2.29317
2.2736
2.24418
2.20728
2.15746
2.09938
2.0254
2.30969
2.30227
2.29459
2.28152
2.26378
2.23664
2.20207
2.15539
2.1005
2.03196
2.29614
2.28981
2.28266
2.27008
2.25324
2.22826
2.19711
2.15521
2.10384
2.04238
1.40948
1.43082
1.46532
1.55038
1.63173
1.64546
1.64475
1.67628
2.24053
2.54474
1.40948
1.43082
1.46532
1.55038
1.63172
1.64549
1.64471
1.67597
2.23865
2.53848
1.40948
1.43082
1.46533
1.55038
1.6317
1.64553
1.64462
1.67539
2.23539
2.53054
1.40948
1.43082
1.46533
1.55039
1.63167
1.6456
1.64448
1.67449
2.23055
2.52038
1.40948
1.43082
1.46533
1.55039
1.63163
1.64568
1.64431
1.67325
2.22449
2.50899
1.40948
1.43082
1.46533
1.5504
1.63158
1.64579
1.6441
1.67165
2.21742
2.49621
1.40948
1.43082
1.46533
1.55041
1.63153
1.64592
1.64387
1.66966
2.20952
2.48376
1.40948
1.43082
1.46533
1.55042
1.63147
1.64605
1.64364
1.66729
2.20071
2.47219
1.40948
1.43082
1.46533
1.55043
1.63141
1.64619
1.64341
1.66451
2.19067
2.46243
1.40948
1.43082
1.46533
1.55044
1.63134
1.64634
1.64318
1.66144
2.17907
2.45361
1.40948
1.43082
1.46533
1.55046
1.63127
1.64649
1.64297
1.65809
2.16586
2.44422
1.40948
1.43082
1.46533
1.55047
1.63121
1.64663
1.64277
1.65461
2.15137
2.43309
1.40948
1.43081
1.46534
1.55048
1.63114
1.64677
1.64258
1.65107
2.13628
2.42029
1.40948
1.43081
1.46534
1.55049
1.63109
1.6469
1.64246
1.64764
2.12082
2.40587
1.40948
1.43081
1.46534
1.5505
1.63103
1.64702
1.64234
1.64443
2.10482
2.38946
1.40948
1.43081
1.46535
1.55051
1.63099
1.64713
1.64228
1.64144
2.08817
2.37155
1.40948
1.43081
1.46535
1.55052
1.63095
1.64722
1.64228
1.63891
2.07092
2.35394
1.40948
1.43081
1.46535
1.55052
1.63092
1.64729
1.64236
1.63688
2.05311
2.33751
1.40948
1.43081
1.46536
1.55052
1.6309
1.64735
1.64251
1.63535
2.0346
2.32182
1.40948
1.43081
1.46536
1.55052
1.63089
1.64737
1.64269
1.63432
2.01555
2.30678
1.40948
1.43081
1.46536
1.55052
1.63089
1.64737
1.64269
1.63432
2.01555
2.30678
1.40948
1.43081
1.46536
1.55052
1.6309
1.64735
1.64251
1.63535
2.0346
2.32182
1.40948
1.43081
1.46535
1.55052
1.63092
1.64729
1.64236
1.63688
2.05311
2.33751
1.40948
1.43081
1.46535
1.55052
1.63095
1.64722
1.64228
1.63891
2.07092
2.35394
1.40948
1.43081
1.46535
1.55051
1.63099
1.64713
1.64228
1.64144
2.08817
2.37156
1.40948
1.43081
1.46534
1.5505
1.63103
1.64702
1.64234
1.64443
2.10482
2.38946
1.40948
1.43081
1.46534
1.55049
1.63109
1.6469
1.64246
1.64764
2.12082
2.40587
1.40948
1.43081
1.46534
1.55048
1.63114
1.64677
1.64258
1.65107
2.13628
2.42029
1.40948
1.43082
1.46533
1.55047
1.63121
1.64663
1.64277
1.65461
2.15137
2.43309
1.40948
1.43082
1.46533
1.55046
1.63127
1.64649
1.64297
1.65809
2.16586
2.44422
1.40948
1.43082
1.46533
1.55044
1.63134
1.64634
1.64318
1.66144
2.17907
2.45361
1.40948
1.43082
1.46533
1.55043
1.63141
1.64619
1.64341
1.66451
2.19067
2.46243
1.40948
1.43082
1.46533
1.55042
1.63147
1.64605
1.64364
1.66729
2.20071
2.47219
1.40948
1.43082
1.46533
1.55041
1.63153
1.64592
1.64387
1.66966
2.20952
2.48376
1.40948
1.43082
1.46533
1.5504
1.63158
1.64579
1.6441
1.67165
2.21742
2.49621
1.40948
1.43082
1.46533
1.55039
1.63163
1.64568
1.64431
1.67325
2.22449
2.50899
1.40948
1.43082
1.46533
1.55039
1.63167
1.6456
1.64448
1.67449
2.23055
2.52038
1.40948
1.43082
1.46533
1.55038
1.6317
1.64553
1.64462
1.67539
2.23539
2.53054
1.40948
1.43082
1.46532
1.55038
1.63172
1.64549
1.64471
1.67597
2.23865
2.53848
1.40948
1.43082
1.46532
1.55038
1.63173
1.64546
1.64475
1.67628
2.24053
2.54474
2.29614
2.28981
2.28266
2.27008
2.25323
2.22826
2.19711
2.15521
2.10384
2.04238
2.30969
2.30227
2.29459
2.28152
2.26378
2.23664
2.20207
2.15539
2.1005
2.03196
2.32589
2.31674
2.30809
2.29317
2.2736
2.24417
2.20728
2.15746
2.09938
2.0254
2.34351
2.33244
2.32211
2.30434
2.28229
2.25083
2.2128
2.16116
2.10031
2.02128
2.3603
2.34651
2.33395
2.31411
2.29052
2.25806
2.2196
2.16642
2.10275
2.01837
2.37531
2.35838
2.34449
2.32423
2.30024
2.26702
2.22786
2.17247
2.1054
2.01543
2.39229
2.37348
2.35846
2.33678
2.3118
2.27728
2.23676
2.17872
2.10794
2.01204
2.41095
2.39205
2.37625
2.35253
2.32563
2.28874
2.24587
2.18462
2.11004
2.00788
2.42771
2.41007
2.39443
2.36951
2.34115
2.30168
2.25603
2.19123
2.11246
2.00328
2.44325
2.42817
2.41345
2.388
2.35859
2.31669
2.2681
2.19971
2.11637
1.99901
2.46393
2.44964
2.43528
2.40907
2.3787
2.33459
2.28303
2.21095
2.12258
1.99569
2.49362
2.47679
2.46124
2.43322
2.40158
2.35532
2.3008
2.22519
2.13142
1.99384
2.53038
2.50826
2.49063
2.45966
2.42618
2.37799
2.32072
2.24194
2.14274
1.99345
2.57151
2.54268
2.52265
2.48824
2.45235
2.40221
2.34218
2.26063
2.156
1.9952
2.61433
2.57785
2.55452
2.51628
2.47763
2.42603
2.36371
2.28005
2.1705
2.00009
2.65994
2.61543
2.58881
2.54657
2.50404
2.45008
2.38509
2.29957
2.18545
2.00991
2.70627
2.65044
2.61853
2.57242
2.52674
2.47118
2.4041
2.31723
2.19909
2.02246
2.75926
2.6853
2.6463
2.59521
2.54389
2.48641
2.41843
2.33221
2.21189
2.03832
2.7971
2.6958
2.6459
2.59172
2.53715
2.47745
2.40888
2.32428
2.20487
2.02618
2.93051
2.82433
2.74817
2.67426
2.60288
2.53298
2.45846
2.37506
2.25865
2.10744
1.93661
1.78111
1.58817
1.40261
1.25589
1.10922
1.06445
1.17635
1.48783
1.54276
1.903
1.74082
1.55737
1.3762
1.23332
1.09468
1.06228
1.20263
1.51161
1.55085
1.87235
1.69544
1.52279
1.34801
1.20973
1.08211
1.06022
1.23149
1.53171
1.55776
1.84506
1.64691
1.48385
1.31766
1.18547
1.07139
1.05918
1.26296
1.54859
1.56243
1.82076
1.59686
1.44048
1.28433
1.16196
1.06307
1.05957
1.29609
1.56321
1.56495
1.7981
1.54612
1.39187
1.25065
1.13791
1.05641
1.06299
1.32917
1.57628
1.56653
1.77634
1.49544
1.33832
1.21563
1.11527
1.05218
1.07242
1.36093
1.58851
1.57088
1.75469
1.44526
1.28042
1.18128
1.09194
1.04935
1.08788
1.39253
1.60009
1.57776
1.73253
1.39584
1.2188
1.14547
1.07171
1.04916
1.11095
1.42463
1.61111
1.58578
1.709
1.34725
1.15613
1.10941
1.05526
1.05125
1.14194
1.45619
1.62139
1.59214
1.68347
1.29834
1.09254
1.07331
1.04327
1.06055
1.17776
1.48603
1.63119
1.59551
1.65443
1.24857
1.03332
1.0396
1.03355
1.07596
1.21275
1.511
1.64095
1.59966
1.62042
1.19561
0.977525
1.00832
1.03265
1.10007
1.24529
1.53308
1.6504
1.60536
1.57855
1.14017
0.930782
0.980707
1.03776
1.12835
1.27398
1.55283
1.65867
1.61188
1.5245
1.07858
0.888506
0.956278
1.04738
1.15575
1.30019
1.5693
1.66207
1.61667
1.45503
1.01364
0.857253
0.929528
1.05802
1.18095
1.32531
1.58519
1.66785
1.6176
1.35858
0.94105
0.833147
0.90744
1.06651
1.20251
1.34843
1.59592
1.67784
1.61743
1.23837
0.873634
0.815969
0.891383
1.07125
1.21878
1.3665
1.60664
1.68985
1.62076
1.07797
0.815636
0.800499
0.874268
1.06602
1.22776
1.37633
1.61707
1.70145
1.62655
0.897805
0.762856
0.770508
0.850919
1.05027
1.22816
1.37721
1.6222
1.70613
1.63277
2.23499
2.12955
1.99972
1.85818
1.70012
1.53952
1.36996
1.14767
1.04821
1.13038
2.23571
2.12807
1.99733
1.85534
1.69746
1.5373
1.36753
1.14652
1.04858
1.13412
2.23654
2.12952
1.99591
1.85137
1.69329
1.53348
1.36327
1.14415
1.04933
1.13714
2.23638
2.12838
1.99173
1.84543
1.68727
1.52782
1.35692
1.14113
1.05064
1.14283
2.23464
2.125
1.98573
1.83781
1.67937
1.52029
1.34841
1.13709
1.05239
1.15101
2.23102
2.1193
1.97815
1.82852
1.66964
1.51079
1.33761
1.13231
1.05486
1.1617
2.226
2.1114
1.96883
1.81786
1.65802
1.49927
1.32456
1.12672
1.05768
1.1749
2.2201
2.10314
1.95948
1.80581
1.64465
1.48579
1.30901
1.12055
1.06162
1.18994
2.21345
2.09326
1.9474
1.7916
1.62909
1.47013
1.2915
1.11391
1.06716
1.20675
2.20627
2.08194
1.93257
1.77445
1.61113
1.45226
1.27139
1.10715
1.0749
1.22572
2.19778
2.06846
1.91467
1.75403
1.59019
1.43156
1.24885
1.10063
1.0843
1.24712
2.1882
2.05247
1.89384
1.73041
1.56632
1.40783
1.22383
1.09668
1.09577
1.27312
2.17705
2.03344
1.87033
1.70418
1.53993
1.38066
1.19677
1.09409
1.1091
1.30361
2.16432
2.01241
1.84499
1.67529
1.5103
1.35037
1.17078
1.09139
1.1295
1.33784
2.15068
1.99041
1.81697
1.64366
1.4793
1.31673
1.14509
1.08765
1.15849
1.37403
2.13673
1.96778
1.78668
1.60897
1.44534
1.2815
1.12312
1.08499
1.19527
1.40934
2.12077
1.94506
1.75374
1.57159
1.40984
1.24376
1.10553
1.08642
1.24134
1.44362
2.09574
1.91922
1.71749
1.53061
1.37251
1.20619
1.09157
1.09311
1.29989
1.47665
2.05152
1.88383
1.67714
1.48671
1.33261
1.1693
1.07796
1.10821
1.37037
1.50574
1.98825
1.8316
1.62984
1.44009
1.29052
1.13406
1.06868
1.1408
1.44179
1.52878
1.98824
1.8316
1.62983
1.44008
1.2905
1.13406
1.06862
1.14076
1.44201
1.52917
2.05152
1.88383
1.67713
1.4867
1.33259
1.16929
1.07798
1.10824
1.37049
1.50543
2.09574
1.91922
1.71749
1.53061
1.37251
1.20618
1.09161
1.09315
1.29979
1.47648
2.12077
1.94506
1.75373
1.57159
1.40983
1.24376
1.10556
1.08647
1.24134
1.4437
2.13673
1.96778
1.78668
1.60897
1.44534
1.2815
1.12314
1.08502
1.19531
1.40944
2.15068
1.99041
1.81698
1.64366
1.4793
1.31673
1.14508
1.08766
1.1585
1.37406
2.16432
2.01241
1.84499
1.67529
1.5103
1.35037
1.17076
1.09138
1.12949
1.33787
2.17705
2.03345
1.87033
1.70418
1.53993
1.38066
1.19675
1.09406
1.10907
1.30362
2.1882
2.05248
1.89384
1.73041
1.56632
1.40783
1.22383
1.09666
1.09575
1.2731
2.19778
2.06846
1.91467
1.75403
1.59019
1.43156
1.24885
1.10062
1.08429
1.24708
2.20627
2.08195
1.93257
1.77445
1.61113
1.45226
1.2714
1.10715
1.0749
1.2257
2.21345
2.09326
1.9474
1.7916
1.6291
1.47014
1.29151
1.11391
1.06716
1.20675
2.2201
2.10314
1.95948
1.80581
1.64465
1.48579
1.30901
1.12055
1.06162
1.18994
2.226
2.1114
1.96883
1.81786
1.65802
1.49927
1.32456
1.12673
1.05768
1.1749
2.23102
2.1193
1.97815
1.82852
1.66964
1.51079
1.33761
1.13231
1.05486
1.16169
2.23464
2.125
1.98573
1.83781
1.67937
1.52029
1.34841
1.13709
1.0524
1.151
2.23639
2.12838
1.99173
1.84543
1.68727
1.52782
1.35692
1.14113
1.05064
1.14283
2.23654
2.12952
1.99591
1.85137
1.69329
1.53348
1.36327
1.14415
1.04934
1.13714
2.23571
2.12807
1.99733
1.85534
1.69747
1.5373
1.36753
1.14652
1.04858
1.13413
2.23499
2.12956
1.99972
1.85818
1.70012
1.53952
1.36996
1.14767
1.04821
1.13039
2.28398
2.27606
2.26752
2.25395
2.23752
2.21501
2.18963
2.15521
2.11242
2.06868
2.2682
2.25784
2.24794
2.23435
2.21945
2.2022
2.1841
2.16033
2.13782
2.11908
2.24839
2.23939
2.23029
2.21916
2.20982
2.19966
2.19122
2.18557
2.18435
2.17704
2.23878
2.22979
2.22218
2.21411
2.21207
2.2138
2.22349
2.23339
2.23506
2.21714
2.24198
2.22848
2.22528
2.22551
2.23746
2.25851
2.27572
2.27958
2.26663
2.23578
2.24659
2.23611
2.24479
2.26481
2.29227
2.31234
2.31737
2.30642
2.28014
2.24492
2.25633
2.26215
2.29098
2.32131
2.34174
2.3455
2.33664
2.31487
2.28684
2.25319
2.2806
2.3108
2.34544
2.36433
2.36941
2.35995
2.34096
2.31718
2.28974
2.25941
2.3213
2.36077
2.38227
2.38611
2.37861
2.36222
2.3416
2.31906
2.29368
2.26514
2.36667
2.39499
2.40101
2.39626
2.38256
2.36463
2.34491
2.32344
2.29914
2.2708
2.40315
2.41461
2.41099
2.40008
2.38458
2.36696
2.34837
2.32728
2.3035
2.27617
2.42764
2.42804
2.41695
2.40354
2.38809
2.37123
2.3526
2.33187
2.30754
2.28091
2.44622
2.43694
2.4225
2.40869
2.39311
2.37646
2.35772
2.33688
2.31296
2.28559
2.45992
2.44362
2.42919
2.41487
2.39847
2.38111
2.36226
2.34113
2.31893
2.2902
2.47049
2.4502
2.43589
2.42098
2.40376
2.38577
2.3665
2.34504
2.3229
2.29517
2.47922
2.45658
2.44174
2.42641
2.40875
2.39019
2.37041
2.34838
2.32535
2.2985
2.48702
2.46294
2.44693
2.43108
2.41313
2.39403
2.37344
2.35119
2.32668
2.30063
2.49434
2.46974
2.45219
2.43543
2.41687
2.3972
2.37582
2.35306
2.32795
2.30158
2.4999
2.47582
2.45681
2.4388
2.41915
2.39882
2.37691
2.35343
2.32855
2.30209
2.50267
2.47973
2.46077
2.44237
2.4219
2.40117
2.37898
2.35441
2.32966
2.30355
1.40948
1.43081
1.46537
1.55052
1.63089
1.64737
1.64294
1.63361
1.99115
2.2909
1.40948
1.4308
1.46538
1.55051
1.63092
1.64733
1.64322
1.63308
1.96192
2.27435
1.40948
1.4308
1.46538
1.55049
1.63098
1.64723
1.64349
1.63274
1.93312
2.26027
1.40948
1.4308
1.46539
1.55046
1.63105
1.64709
1.64374
1.63255
1.90453
2.24488
1.40948
1.4308
1.4654
1.55042
1.63115
1.64693
1.64395
1.63249
1.8764
2.22609
1.40948
1.4308
1.4654
1.55038
1.63126
1.64674
1.64412
1.63252
1.84923
2.20768
1.40948
1.4308
1.4654
1.55033
1.63138
1.64655
1.64427
1.6326
1.8228
2.1936
1.40948
1.4308
1.46541
1.55028
1.63151
1.64637
1.64439
1.63272
1.79662
2.18324
1.40948
1.4308
1.46541
1.55022
1.63165
1.6462
1.64448
1.63286
1.77128
2.17794
1.40948
1.4308
1.46541
1.55016
1.63178
1.64606
1.64456
1.633
1.74738
2.17563
1.40948
1.4308
1.4654
1.5501
1.6319
1.64594
1.64463
1.6331
1.7252
2.17418
1.40948
1.43081
1.4654
1.55004
1.63202
1.64585
1.6447
1.63315
1.70529
2.17221
1.40948
1.43081
1.4654
1.54998
1.63212
1.64578
1.64477
1.63312
1.68811
2.16945
1.40948
1.43081
1.46539
1.54993
1.63222
1.64573
1.64484
1.6329
1.67374
2.16611
1.40948
1.43081
1.46539
1.54988
1.6323
1.64571
1.64491
1.63254
1.66233
2.16242
1.40948
1.43081
1.46538
1.54984
1.63237
1.64569
1.645
1.63173
1.65395
2.1586
1.40948
1.43082
1.46538
1.54981
1.63242
1.64569
1.64512
1.63031
1.64835
2.1554
1.40948
1.43082
1.46538
1.54978
1.63246
1.64569
1.64524
1.62883
1.64488
2.15328
1.40948
1.43082
1.46538
1.54976
1.63249
1.64569
1.64534
1.62796
1.64318
2.15176
1.40947
1.43082
1.46537
1.54975
1.6325
1.64569
1.64544
1.62714
1.64269
2.1511
1.40947
1.43082
1.46537
1.54975
1.6325
1.64569
1.64544
1.62714
1.64269
2.1511
1.40948
1.43082
1.46538
1.54976
1.63249
1.64569
1.64534
1.62796
1.64318
2.15176
1.40948
1.43082
1.46538
1.54978
1.63246
1.64569
1.64524
1.62883
1.64488
2.15328
1.40948
1.43082
1.46538
1.54981
1.63242
1.64569
1.64512
1.63031
1.64835
2.1554
1.40948
1.43081
1.46538
1.54984
1.63237
1.64569
1.645
1.63173
1.65395
2.1586
1.40948
1.43081
1.46539
1.54988
1.6323
1.64571
1.64491
1.63254
1.66233
2.16242
1.40948
1.43081
1.46539
1.54993
1.63222
1.64573
1.64484
1.6329
1.67374
2.16611
1.40948
1.43081
1.4654
1.54998
1.63212
1.64578
1.64477
1.63312
1.68811
2.16945
1.40948
1.43081
1.4654
1.55004
1.63202
1.64585
1.6447
1.63315
1.70529
2.17221
1.40948
1.4308
1.4654
1.5501
1.6319
1.64594
1.64463
1.6331
1.7252
2.17418
1.40948
1.4308
1.46541
1.55016
1.63178
1.64606
1.64456
1.633
1.74738
2.17563
1.40948
1.4308
1.46541
1.55022
1.63165
1.6462
1.64448
1.63286
1.77128
2.17794
1.40948
1.4308
1.46541
1.55028
1.63151
1.64637
1.64439
1.63272
1.79662
2.18324
1.40948
1.4308
1.4654
1.55033
1.63138
1.64655
1.64427
1.6326
1.8228
2.1936
1.40948
1.4308
1.4654
1.55038
1.63126
1.64674
1.64412
1.63252
1.84923
2.20768
1.40948
1.4308
1.4654
1.55042
1.63115
1.64693
1.64395
1.63249
1.8764
2.22609
1.40948
1.4308
1.46539
1.55046
1.63105
1.64709
1.64374
1.63255
1.90453
2.24487
1.40948
1.4308
1.46538
1.55049
1.63098
1.64723
1.64349
1.63274
1.93312
2.26027
1.40948
1.4308
1.46538
1.55051
1.63092
1.64733
1.64322
1.63308
1.96192
2.27435
1.40948
1.43081
1.46537
1.55052
1.63089
1.64737
1.64294
1.63361
1.99115
2.2909
2.50267
2.47973
2.46077
2.44237
2.4219
2.40117
2.37898
2.35441
2.32966
2.30355
2.4999
2.47582
2.45681
2.4388
2.41914
2.39882
2.37691
2.35343
2.32855
2.30209
2.49434
2.46974
2.45219
2.43543
2.41687
2.3972
2.37582
2.35306
2.32795
2.30158
2.48702
2.46294
2.44693
2.43108
2.41313
2.39403
2.37344
2.35119
2.32668
2.30062
2.47922
2.45658
2.44174
2.42641
2.40875
2.39019
2.37041
2.34838
2.32535
2.2985
2.47049
2.4502
2.43589
2.42098
2.40376
2.38577
2.3665
2.34504
2.3229
2.29517
2.45992
2.44362
2.42919
2.41487
2.39847
2.38111
2.36226
2.34113
2.31893
2.2902
2.44622
2.43694
2.4225
2.40869
2.39311
2.37646
2.35772
2.33688
2.31296
2.28559
2.42764
2.42804
2.41695
2.40354
2.38809
2.37123
2.3526
2.33187
2.30754
2.28091
2.40315
2.4146
2.41099
2.40008
2.38458
2.36696
2.34837
2.32728
2.3035
2.27617
2.36666
2.39499
2.40101
2.39626
2.38256
2.36463
2.34491
2.32344
2.29914
2.2708
2.3213
2.36077
2.38227
2.38611
2.37861
2.36222
2.3416
2.31906
2.29368
2.26514
2.2806
2.3108
2.34544
2.36432
2.3694
2.35995
2.34096
2.31718
2.28974
2.25941
2.25633
2.26215
2.29098
2.32131
2.34173
2.3455
2.33664
2.31487
2.28683
2.25319
2.24659
2.23611
2.24479
2.2648
2.29227
2.31234
2.31737
2.30642
2.28014
2.24492
2.24198
2.22848
2.22527
2.22551
2.23746
2.25851
2.27572
2.27957
2.26663
2.23577
2.23878
2.22979
2.22218
2.21411
2.21207
2.2138
2.22349
2.23339
2.23505
2.21713
2.24839
2.23939
2.23029
2.21916
2.20982
2.19966
2.19122
2.18556
2.18435
2.17704
2.2682
2.25784
2.24794
2.23435
2.21945
2.2022
2.1841
2.16033
2.13782
2.11907
2.28399
2.27606
2.26752
2.25395
2.23752
2.21501
2.18963
2.15521
2.11242
2.06868
)
;

boundaryField
{
    inlet
    {
        type            calculated;
        value           uniform 1.40001;
    }
    outlet
    {
        type            calculated;
        value           nonuniform List<scalar> 
100
(
1.52942
1.50573
1.47679
1.44398
1.40967
1.37427
1.33804
1.30368
1.27301
1.24692
1.22549
1.20653
1.18971
1.17467
1.16147
1.15078
1.1426
1.13691
1.13389
1.13015
1.62341
1.62633
1.62774
1.62327
1.61648
1.61074
1.60773
1.60717
1.60531
1.59899
1.59002
1.58194
1.57604
1.57313
1.56898
1.56457
1.561
1.55715
1.55144
1.54389
1.63408
1.62503
1.61419
1.60903
1.59801
1.56773
1.53544
1.50643
1.48096
1.47912
1.48911
1.49914
1.506
1.5329
1.5634
1.58717
1.61469
1.62996
1.62765
1.62424
1.54297
1.55107
1.55797
1.56255
1.56491
1.56648
1.57097
1.57792
1.5859
1.59207
1.59543
1.5997
1.6055
1.61201
1.61656
1.61731
1.61727
1.62088
1.62678
1.63294
1.13014
1.13388
1.1369
1.1426
1.15078
1.16148
1.17468
1.18972
1.20653
1.22552
1.24695
1.27303
1.30367
1.33802
1.37424
1.40958
1.4439
1.47698
1.50602
1.529
)
;
    }
    triangle
    {
        type            calculated;
        value           nonuniform List<scalar> 
40
(
2.93051
2.82433
2.74818
2.67426
2.60288
2.53299
2.45846
2.37506
2.25865
2.10743
0.742986
0.741487
0.744297
0.747832
0.75112
0.754667
0.756505
0.757321
0.758697
0.759221
0.759304
0.75885
0.757414
0.756472
0.754555
0.751108
0.747975
0.744435
0.741538
0.743013
2.93051
2.82433
2.74817
2.67426
2.60288
2.53298
2.45846
2.37506
2.25865
2.10744
)
;
    }
    top
    {
        type            symmetryPlane;
    }
    bottom
    {
        type            symmetryPlane;
    }
    defaultFaces
    {
        type            empty;
    }
}


// ************************************************************************* //
