/*--------------------------------*- C++ -*----------------------------------*\
  =========                 |
  \\      /  F ield         | OpenFOAM: The Open Source CFD Toolbox
   \\    /   O peration     | Website:  https://openfoam.org
    \\  /    A nd           | Version:  8
     \\/     M anipulation  |
\*---------------------------------------------------------------------------*/
FoamFile
{
    version     2.0;
    format      ascii;
    class       volScalarField;
    location    "1.2";
    object      T;
}
// * * * * * * * * * * * * * * * * * * * * * * * * * * * * * * * * * * * * * //

dimensions      [0 0 0 1 0 0 0];

internalField   nonuniform List<scalar> 
2600
(
1.07679
1.03445
0.952976
0.957028
0.987583
1.01205
1.03777
1.08709
1.11181
1.09855
1.0846
1.05676
0.992146
0.995013
1.0185
1.03478
1.05269
1.0935
1.1162
1.10084
1.08194
1.05747
1.02088
1.03005
1.05749
1.06866
1.07876
1.10865
1.12527
1.10561
1.07868
1.05548
1.03764
1.05625
1.09984
1.11508
1.118
1.13587
1.14144
1.11803
1.07783
1.05547
1.04737
1.07658
1.13788
1.17045
1.17128
1.17301
1.16362
1.13775
1.08051
1.05803
1.05574
1.08954
1.16169
1.21644
1.22049
1.21945
1.19438
1.16121
1.08458
1.06223
1.06031
1.09545
1.1682
1.23365
1.24534
1.26211
1.23339
1.18819
1.08802
1.0659
1.06333
1.09535
1.1636
1.22984
1.24822
1.28372
1.26251
1.21057
1.09054
1.06768
1.06422
1.09365
1.15558
1.22084
1.24408
1.28857
1.27754
1.22094
1.09136
1.06863
1.06481
1.09331
1.15107
1.21469
1.2391
1.28745
1.28086
1.22716
1.09141
1.0687
1.06425
1.0919
1.15101
1.21473
1.23908
1.28748
1.27979
1.23005
1.09063
1.06778
1.06362
1.09299
1.15553
1.22094
1.24409
1.28858
1.27644
1.22646
1.08807
1.06613
1.06354
1.09506
1.16368
1.22992
1.24826
1.2837
1.26213
1.2103
1.08454
1.0623
1.06064
1.09502
1.16814
1.23367
1.24544
1.26218
1.23374
1.18718
1.08044
1.05786
1.05573
1.08971
1.16165
1.21634
1.22057
1.21944
1.19533
1.15972
1.0778
1.05527
1.04729
1.07728
1.13781
1.1703
1.17154
1.17301
1.16415
1.13472
1.07873
1.05549
1.03765
1.05628
1.09969
1.11491
1.11772
1.13613
1.14023
1.12006
1.08202
1.05762
1.02104
1.02986
1.05743
1.0685
1.07875
1.10874
1.12493
1.1099
1.08463
1.05682
0.9922
0.994723
1.0184
1.03484
1.05315
1.09352
1.11697
1.10088
1.07682
1.03439
0.952833
0.956828
0.987493
1.01207
1.03783
1.0872
1.11249
1.0956
1.06254
0.982567
0.908436
0.921694
0.963708
0.995127
1.02722
1.08156
1.10903
1.09304
1.04125
0.938175
0.878672
0.896108
0.945947
0.981144
1.01838
1.0757
1.10562
1.09227
1.03694
0.91663
0.861207
0.882804
0.933947
0.971426
1.01195
1.07206
1.10245
1.09157
1.03877
0.911838
0.85412
0.87709
0.924595
0.964645
1.00717
1.07061
1.0999
1.08967
1.04652
0.916127
0.852672
0.875902
0.917991
0.958502
1.00225
1.0703
1.09793
1.08735
1.05665
0.926027
0.856726
0.880259
0.913606
0.95178
0.99621
1.06907
1.09606
1.0851
1.06756
0.940817
0.869313
0.887856
0.91093
0.94378
0.988753
1.06712
1.09385
1.08343
1.07742
0.956777
0.886308
0.898265
0.909604
0.934099
0.979375
1.0638
1.09159
1.08229
1.08582
0.972827
0.906174
0.909504
0.910464
0.924432
0.967702
1.05981
1.08981
1.08083
1.09267
0.98776
0.926192
0.920584
0.913056
0.917003
0.954922
1.0552
1.08837
1.07851
1.09798
1.00167
0.94664
0.931564
0.915199
0.911663
0.942128
1.04912
1.08681
1.07594
1.10216
1.01459
0.965553
0.942109
0.918165
0.90978
0.930827
1.04106
1.08513
1.07396
1.10562
1.02695
0.982792
0.95213
0.922551
0.909403
0.922071
1.03029
1.08329
1.07273
1.10895
1.03895
0.997919
0.96129
0.928349
0.90952
0.915391
1.01728
1.08115
1.07215
1.11256
1.05075
1.01113
0.970343
0.93414
0.910383
0.910258
1.00312
1.07817
1.07072
1.11674
1.06242
1.02261
0.978822
0.940604
0.911985
0.90716
0.989149
1.07393
1.06842
1.12157
1.07384
1.03256
0.987217
0.94714
0.913006
0.906404
0.975898
1.06817
1.06559
1.12715
1.08482
1.04147
0.994945
0.954022
0.914842
0.90627
0.963946
1.06065
1.06279
1.13335
1.09497
1.0496
1.00238
0.960728
0.917674
0.906435
0.953315
1.05173
1.06015
1.14014
1.10407
1.05732
1.00962
0.967103
0.921567
0.906575
0.943807
1.04262
1.05741
1.39462
1.37562
1.36335
1.35056
1.33712
1.32313
1.30767
1.28981
1.26352
1.23966
1.36404
1.34474
1.33638
1.32655
1.31613
1.30429
1.29027
1.2723
1.24549
1.20798
1.34899
1.33389
1.32532
1.31473
1.30465
1.29348
1.28
1.26205
1.23568
1.19519
1.33232
1.32077
1.31317
1.3029
1.29329
1.28196
1.26835
1.25023
1.22467
1.18359
1.31805
1.30893
1.30305
1.29386
1.28471
1.27334
1.25981
1.24182
1.21722
1.17729
1.30468
1.29719
1.29239
1.28453
1.27661
1.26598
1.25309
1.23548
1.21188
1.17362
1.29272
1.2869
1.28308
1.2764
1.26948
1.25953
1.24738
1.23034
1.20786
1.17188
1.28256
1.27831
1.27517
1.26933
1.263
1.25355
1.24207
1.22569
1.20439
1.17087
1.27509
1.27183
1.26893
1.26345
1.25728
1.24804
1.23702
1.22122
1.20105
1.17001
1.26939
1.26628
1.26317
1.25767
1.25145
1.24241
1.23183
1.21668
1.19762
1.16888
1.26349
1.26009
1.2568
1.25134
1.2452
1.2365
1.22645
1.21202
1.19406
1.16745
1.25638
1.25292
1.24979
1.24467
1.23882
1.23062
1.22115
1.20748
1.19056
1.16591
1.2495
1.24596
1.243
1.23833
1.23292
1.22532
1.21641
1.20346
1.18746
1.16453
1.24243
1.239
1.2364
1.23243
1.22773
1.22085
1.21251
1.20021
1.18496
1.16352
1.23399
1.23121
1.22951
1.22663
1.22285
1.21685
1.20918
1.19759
1.18308
1.16296
1.22598
1.22394
1.22294
1.22074
1.21774
1.21272
1.20594
1.19532
1.18168
1.16277
1.22304
1.2204
1.21854
1.21579
1.21284
1.20838
1.20243
1.19287
1.18023
1.16265
1.22108
1.21852
1.21599
1.21249
1.20889
1.20417
1.19846
1.1898
1.17833
1.16247
1.21925
1.21695
1.21422
1.2103
1.20587
1.20029
1.19419
1.18609
1.17598
1.16237
1.21707
1.21491
1.21221
1.20824
1.20342
1.19723
1.19086
1.18333
1.17448
1.16307
1.0027
1.00874
1.01836
1.04161
1.06346
1.06698
1.06677
1.07558
1.20977
1.29951
1.0027
1.00874
1.01836
1.04161
1.06346
1.06698
1.06676
1.07552
1.20941
1.29665
1.0027
1.00874
1.01836
1.04161
1.06346
1.067
1.06673
1.0754
1.20907
1.29185
1.0027
1.00874
1.01836
1.04161
1.06345
1.06701
1.0667
1.07521
1.20868
1.2863
1.0027
1.00874
1.01836
1.04161
1.06344
1.06704
1.06665
1.07493
1.20812
1.28097
1.0027
1.00874
1.01836
1.04161
1.06342
1.06707
1.06659
1.07454
1.20725
1.27582
1.0027
1.00874
1.01836
1.04162
1.06341
1.0671
1.06653
1.07403
1.20597
1.27066
1.0027
1.00874
1.01836
1.04162
1.06339
1.06713
1.06647
1.0734
1.20426
1.26479
1.0027
1.00874
1.01836
1.04162
1.06338
1.06717
1.0664
1.07264
1.20222
1.25797
1.0027
1.00874
1.01836
1.04162
1.06336
1.06721
1.06634
1.07179
1.20004
1.25063
1.0027
1.00874
1.01836
1.04163
1.06335
1.06725
1.06627
1.07084
1.19787
1.2439
1.0027
1.00874
1.01836
1.04163
1.06333
1.06729
1.06622
1.06983
1.19561
1.23854
1.0027
1.00874
1.01836
1.04163
1.06331
1.06732
1.06616
1.06879
1.19309
1.23445
1.0027
1.00874
1.01836
1.04164
1.0633
1.06736
1.06614
1.06777
1.1902
1.2313
1.0027
1.00873
1.01836
1.04164
1.06328
1.06739
1.06611
1.06682
1.18693
1.22904
1.0027
1.00873
1.01836
1.04164
1.06327
1.06742
1.0661
1.06596
1.18331
1.22747
1.0027
1.00873
1.01837
1.04164
1.06326
1.06744
1.06612
1.06525
1.17929
1.22583
1.0027
1.00873
1.01837
1.04164
1.06325
1.06746
1.06616
1.06472
1.17494
1.22423
1.0027
1.00873
1.01837
1.04164
1.06325
1.06747
1.0662
1.06432
1.17028
1.22252
1.0027
1.00873
1.01837
1.04164
1.06325
1.06748
1.06624
1.06406
1.16542
1.22034
1.0027
1.00873
1.01837
1.04164
1.06325
1.06748
1.06624
1.06406
1.16542
1.22034
1.0027
1.00873
1.01837
1.04164
1.06325
1.06747
1.0662
1.06432
1.17028
1.22252
1.0027
1.00873
1.01837
1.04164
1.06325
1.06746
1.06616
1.06472
1.17494
1.22423
1.0027
1.00873
1.01837
1.04164
1.06326
1.06744
1.06612
1.06525
1.17929
1.22583
1.0027
1.00873
1.01836
1.04164
1.06327
1.06742
1.0661
1.06596
1.18331
1.22747
1.0027
1.00873
1.01836
1.04164
1.06328
1.06739
1.06611
1.06682
1.18693
1.22904
1.0027
1.00874
1.01836
1.04164
1.0633
1.06736
1.06614
1.06777
1.1902
1.2313
1.0027
1.00874
1.01836
1.04163
1.06331
1.06732
1.06616
1.06879
1.19309
1.23445
1.0027
1.00874
1.01836
1.04163
1.06333
1.06729
1.06622
1.06983
1.19561
1.23854
1.0027
1.00874
1.01836
1.04163
1.06335
1.06725
1.06627
1.07084
1.19787
1.2439
1.0027
1.00874
1.01836
1.04162
1.06336
1.06721
1.06634
1.07179
1.20004
1.25063
1.0027
1.00874
1.01836
1.04162
1.06338
1.06717
1.0664
1.07264
1.20222
1.25797
1.0027
1.00874
1.01836
1.04162
1.06339
1.06713
1.06647
1.0734
1.20426
1.26479
1.0027
1.00874
1.01836
1.04162
1.06341
1.0671
1.06653
1.07403
1.20597
1.27066
1.0027
1.00874
1.01836
1.04161
1.06342
1.06707
1.06659
1.07454
1.20725
1.27582
1.0027
1.00874
1.01836
1.04161
1.06344
1.06704
1.06665
1.07493
1.20812
1.28097
1.0027
1.00874
1.01836
1.04161
1.06345
1.06701
1.0667
1.07521
1.20868
1.2863
1.0027
1.00874
1.01836
1.04161
1.06346
1.067
1.06673
1.0754
1.20907
1.29185
1.0027
1.00874
1.01836
1.04161
1.06346
1.06698
1.06676
1.07552
1.20941
1.29665
1.0027
1.00874
1.01836
1.04161
1.06346
1.06698
1.06677
1.07558
1.20977
1.29951
1.21707
1.21491
1.21221
1.20824
1.20342
1.19723
1.19086
1.18333
1.17448
1.16307
1.21925
1.21695
1.21422
1.2103
1.20587
1.20029
1.19419
1.18609
1.17598
1.16237
1.22108
1.21852
1.21599
1.21249
1.20889
1.20417
1.19846
1.1898
1.17833
1.16247
1.22304
1.2204
1.21854
1.21579
1.21284
1.20838
1.20243
1.19287
1.18023
1.16265
1.22598
1.22394
1.22294
1.22074
1.21774
1.21272
1.20594
1.19532
1.18168
1.16277
1.23399
1.23121
1.22951
1.22663
1.22285
1.21685
1.20918
1.19759
1.18308
1.16296
1.24243
1.239
1.23639
1.23243
1.22773
1.22085
1.21251
1.20021
1.18496
1.16352
1.2495
1.24596
1.243
1.23833
1.23292
1.22532
1.21641
1.20346
1.18746
1.16453
1.25637
1.25292
1.24979
1.24467
1.23882
1.23062
1.22115
1.20748
1.19056
1.16591
1.26348
1.26009
1.2568
1.25134
1.2452
1.2365
1.22645
1.21202
1.19406
1.16745
1.26939
1.26628
1.26317
1.25767
1.25145
1.24241
1.23183
1.21668
1.19762
1.16888
1.27509
1.27183
1.26893
1.26345
1.25728
1.24804
1.23702
1.22122
1.20105
1.17001
1.28256
1.27831
1.27517
1.26933
1.263
1.25355
1.24207
1.22569
1.20439
1.17087
1.29272
1.2869
1.28308
1.2764
1.26948
1.25953
1.24738
1.23034
1.20786
1.17188
1.30468
1.29719
1.29239
1.28453
1.27661
1.26598
1.25309
1.23548
1.21188
1.17362
1.31805
1.30893
1.30305
1.29386
1.28471
1.27334
1.25981
1.24182
1.21722
1.17729
1.33232
1.32077
1.31317
1.3029
1.29329
1.28196
1.26835
1.25023
1.22467
1.18359
1.34899
1.33389
1.32532
1.31473
1.30465
1.29348
1.28
1.26205
1.23568
1.19519
1.36404
1.34474
1.33638
1.32655
1.31613
1.30429
1.29027
1.2723
1.24549
1.20798
1.39462
1.37562
1.36335
1.35056
1.33712
1.32313
1.30767
1.28981
1.26352
1.23966
1.14014
1.10407
1.05732
1.00962
0.967106
0.921569
0.90659
0.943834
1.04278
1.05716
1.13335
1.09497
1.0496
1.00238
0.960731
0.917684
0.906441
0.953284
1.05194
1.06004
1.12715
1.08482
1.04147
0.994944
0.954028
0.914836
0.906266
0.963845
1.06067
1.063
1.12157
1.07384
1.03256
0.987217
0.947136
0.913023
0.906397
0.975838
1.06796
1.06604
1.11674
1.06242
1.02261
0.97882
0.940607
0.911952
0.907144
0.989229
1.07362
1.06854
1.11256
1.05075
1.01114
0.970339
0.934128
0.910386
0.910223
1.00333
1.07806
1.07
1.10895
1.03895
0.997931
0.961284
0.92834
0.909511
0.915395
1.0174
1.08142
1.0715
1.10562
1.02695
0.982797
0.95213
0.922532
0.909382
0.922085
1.03022
1.08371
1.07319
1.10216
1.01458
0.965548
0.942111
0.918139
0.909813
0.930846
1.04087
1.08524
1.075
1.09798
1.00167
0.946619
0.931563
0.915209
0.911616
0.942086
1.04905
1.08644
1.07655
1.09267
0.987773
0.926156
0.920589
0.91309
0.917028
0.954842
1.05533
1.08784
1.07766
1.08582
0.972843
0.906146
0.909512
0.91051
0.924472
0.967643
1.05991
1.08976
1.07935
1.07742
0.956786
0.886304
0.898275
0.909649
0.934145
0.979415
1.06382
1.09215
1.08175
1.06756
0.940798
0.869341
0.887871
0.910968
0.943829
0.988866
1.06698
1.09455
1.08447
1.05665
0.925989
0.856764
0.880301
0.913654
0.9518
0.996179
1.06891
1.09564
1.08666
1.04652
0.916093
0.85269
0.875947
0.918061
0.9585
1.00207
1.07039
1.09721
1.08764
1.03876
0.911808
0.854122
0.877102
0.924692
0.964658
1.00708
1.07071
1.09979
1.08817
1.03693
0.916602
0.861173
0.882718
0.934009
0.971469
1.01203
1.07208
1.10291
1.08965
1.04122
0.93816
0.878639
0.895993
0.945963
0.981204
1.01856
1.07565
1.10626
1.09202
1.0625
0.982569
0.908519
0.921685
0.963727
0.995189
1.02739
1.08147
1.10902
1.0953
1.21753
1.19039
1.15722
1.12191
1.08218
1.03998
0.992054
0.925001
0.894032
0.922908
1.21729
1.18971
1.15651
1.12118
1.08148
1.03934
0.991327
0.924612
0.894121
0.924146
1.21649
1.18932
1.15585
1.12014
1.08039
1.03825
0.990038
0.923775
0.894329
0.925233
1.21492
1.18813
1.15461
1.11875
1.07891
1.03667
0.988137
0.922653
0.894697
0.927252
1.21283
1.18649
1.15319
1.11719
1.07714
1.0347
0.985678
0.921124
0.895179
0.930167
1.21071
1.18473
1.15166
1.11543
1.0751
1.03237
0.982691
0.919292
0.895909
0.933991
1.20873
1.18284
1.14986
1.1134
1.0727
1.02965
0.979224
0.917199
0.896807
0.938676
1.20689
1.18105
1.14805
1.11096
1.06985
1.0265
0.975163
0.915059
0.89819
0.94393
1.20501
1.1789
1.14549
1.10785
1.06634
1.02273
0.970572
0.91314
0.900219
0.949664
1.20298
1.17626
1.14215
1.1039
1.06207
1.01825
0.965149
0.911639
0.903015
0.955956
1.20063
1.17294
1.13796
1.09908
1.05695
1.01287
0.958907
0.910508
0.906245
0.962857
1.19832
1.1691
1.13302
1.09341
1.051
1.00655
0.951857
0.910238
0.91012
0.971051
1.19642
1.16507
1.12759
1.08701
1.04431
0.999164
0.944149
0.910094
0.914941
0.980504
1.19514
1.16141
1.12209
1.07991
1.03659
0.990771
0.936733
0.909892
0.922427
0.991349
1.19418
1.15808
1.11639
1.07219
1.02831
0.981223
0.929367
0.909327
0.932921
1.00304
1.19251
1.15431
1.11026
1.06382
1.01908
0.971007
0.923106
0.908933
0.946119
1.01451
1.18811
1.14912
1.10295
1.05478
1.00941
0.959964
0.917952
0.909832
0.962413
1.02543
1.17952
1.14138
1.09366
1.04452
0.999274
0.949059
0.913281
0.913202
0.982317
1.0357
1.16672
1.13055
1.08222
1.03291
0.988388
0.938523
0.908878
0.919211
1.00512
1.04482
1.1514
1.11643
1.06871
1.02008
0.976796
0.928563
0.906696
0.931107
1.02766
1.05239
1.15139
1.11643
1.06871
1.02008
0.976792
0.928562
0.906679
0.931097
1.02773
1.0525
1.16672
1.13055
1.08222
1.03291
0.988385
0.938518
0.90889
0.919222
1.00515
1.04474
1.17952
1.14138
1.09365
1.04452
0.999272
0.949056
0.913293
0.913219
0.982284
1.03565
1.18811
1.14912
1.10295
1.05478
1.00941
0.959964
0.917962
0.909846
0.962411
1.02545
1.19251
1.15431
1.11026
1.06382
1.01908
0.971006
0.923114
0.908942
0.946132
1.01454
1.19419
1.15808
1.11639
1.07219
1.02831
0.981224
0.929365
0.909328
0.932926
1.00305
1.19514
1.16141
1.12209
1.07991
1.03659
0.990771
0.936729
0.909889
0.922422
0.991357
1.19642
1.16507
1.12759
1.08701
1.04431
0.999163
0.944145
0.910087
0.914933
0.980507
1.19832
1.1691
1.13302
1.09341
1.051
1.00655
0.951857
0.910233
0.910113
0.971044
1.20063
1.17294
1.13796
1.09908
1.05695
1.01287
0.958909
0.910506
0.906241
0.962846
1.20298
1.17626
1.14215
1.1039
1.06207
1.01826
0.965152
0.911639
0.903014
0.955948
1.20501
1.1789
1.14549
1.10785
1.06634
1.02273
0.970573
0.913141
0.900219
0.949662
1.20689
1.18105
1.14805
1.11096
1.06985
1.0265
0.975163
0.91506
0.89819
0.943929
1.20873
1.18284
1.14986
1.1134
1.0727
1.02965
0.979223
0.9172
0.896807
0.938675
1.21071
1.18473
1.15166
1.11543
1.0751
1.03237
0.98269
0.919293
0.895909
0.933989
1.21283
1.18649
1.15319
1.11719
1.07714
1.0347
0.985677
0.921125
0.895179
0.930165
1.21492
1.18813
1.15461
1.11875
1.07891
1.03667
0.988137
0.922654
0.894698
0.927252
1.21649
1.18932
1.15585
1.12014
1.08039
1.03825
0.990038
0.923775
0.89433
0.925234
1.21729
1.18971
1.15652
1.12118
1.08148
1.03935
0.991328
0.924611
0.894122
0.924149
1.21754
1.19039
1.15723
1.12191
1.08218
1.03998
0.992055
0.925
0.894032
0.92291
1.2148
1.21292
1.21036
1.20634
1.20155
1.19552
1.18961
1.18276
1.17528
1.16774
1.21813
1.21451
1.21056
1.20591
1.20125
1.19621
1.19135
1.18599
1.18193
1.17946
1.21563
1.21318
1.21013
1.20639
1.20295
1.19952
1.1969
1.19576
1.19614
1.19534
1.21448
1.21227
1.21016
1.20779
1.20654
1.20666
1.20877
1.21118
1.21191
1.20823
1.21402
1.2113
1.21089
1.21111
1.21399
1.21886
1.22298
1.22385
1.22091
1.21404
1.21238
1.21073
1.21314
1.21825
1.22492
1.22975
1.23089
1.22844
1.2225
1.21464
1.21232
1.21413
1.2209
1.22785
1.23266
1.23388
1.23204
1.22746
1.22146
1.21426
1.21673
1.22353
1.23108
1.23508
1.2364
1.23454
1.23081
1.22603
1.22039
1.21399
1.22577
1.23415
1.23854
1.23909
1.23752
1.23415
1.22996
1.22542
1.22032
1.21443
1.23599
1.24188
1.24273
1.24161
1.23855
1.23461
1.23049
1.2261
1.22117
1.21552
1.24438
1.24658
1.24572
1.24324
1.23971
1.23575
1.23171
1.22729
1.22248
1.21711
1.25054
1.25036
1.24796
1.24507
1.24165
1.23789
1.23377
1.22929
1.22424
1.21891
1.25542
1.25348
1.25045
1.24753
1.24419
1.24056
1.23644
1.23187
1.22672
1.22094
1.25949
1.25619
1.25325
1.2503
1.24688
1.24322
1.23916
1.23453
1.22958
1.22319
1.26293
1.25883
1.25598
1.253
1.24951
1.24583
1.2418
1.23715
1.23214
1.22576
1.26585
1.2613
1.25841
1.25541
1.25192
1.24822
1.24419
1.23952
1.23437
1.22817
1.26838
1.26358
1.2605
1.25745
1.25395
1.2502
1.2461
1.24152
1.23623
1.23035
1.27057
1.26569
1.26233
1.25911
1.25549
1.25166
1.2475
1.24299
1.23777
1.23204
1.27211
1.26735
1.26369
1.26021
1.25637
1.25243
1.24826
1.24375
1.23873
1.23315
1.27281
1.26828
1.26463
1.26107
1.25705
1.25306
1.24888
1.2442
1.23927
1.23383
1.0027
1.00873
1.01837
1.04164
1.06325
1.06748
1.0663
1.06387
1.1591
1.21608
1.0027
1.00873
1.01837
1.04164
1.06326
1.06747
1.06638
1.06373
1.15133
1.20801
1.0027
1.00873
1.01838
1.04163
1.06327
1.06744
1.06645
1.06365
1.14365
1.19952
1.0027
1.00873
1.01838
1.04162
1.06329
1.06741
1.06651
1.0636
1.13592
1.19252
1.0027
1.00873
1.01838
1.04161
1.06332
1.06736
1.06657
1.06358
1.12822
1.1895
1.0027
1.00873
1.01838
1.0416
1.06334
1.06731
1.06661
1.06359
1.12082
1.19023
1.0027
1.00873
1.01838
1.04159
1.06337
1.06726
1.06665
1.06361
1.1137
1.1918
1.0027
1.00873
1.01838
1.04158
1.0634
1.06722
1.06668
1.06365
1.10666
1.19267
1.0027
1.00873
1.01838
1.04156
1.06344
1.06717
1.06671
1.06368
1.09984
1.1927
1.0027
1.00873
1.01838
1.04155
1.06346
1.06713
1.06673
1.06372
1.09341
1.19233
1.0027
1.00873
1.01838
1.04153
1.06349
1.0671
1.06675
1.06375
1.08753
1.19188
1.0027
1.00873
1.01838
1.04152
1.06352
1.06708
1.06676
1.06376
1.08234
1.19158
1.0027
1.00873
1.01838
1.0415
1.06355
1.06706
1.06678
1.06375
1.07792
1.1914
1.0027
1.00873
1.01838
1.04149
1.06357
1.06705
1.0668
1.06369
1.07423
1.19125
1.0027
1.00873
1.01838
1.04147
1.06359
1.06704
1.06682
1.06359
1.0713
1.19106
1.0027
1.00874
1.01838
1.04146
1.0636
1.06704
1.06684
1.06338
1.06913
1.19081
1.0027
1.00874
1.01837
1.04145
1.06362
1.06704
1.06687
1.063
1.06768
1.19059
1.0027
1.00874
1.01837
1.04145
1.06363
1.06704
1.06691
1.06261
1.06677
1.1905
1.0027
1.00874
1.01837
1.04144
1.06363
1.06704
1.06693
1.06238
1.06633
1.1904
1.0027
1.00874
1.01837
1.04144
1.06363
1.06704
1.06696
1.06217
1.0662
1.19033
1.0027
1.00874
1.01837
1.04144
1.06363
1.06704
1.06696
1.06217
1.0662
1.19033
1.0027
1.00874
1.01837
1.04144
1.06363
1.06704
1.06693
1.06238
1.06633
1.1904
1.0027
1.00874
1.01837
1.04145
1.06363
1.06704
1.06691
1.06261
1.06677
1.1905
1.0027
1.00874
1.01837
1.04145
1.06362
1.06704
1.06687
1.063
1.06768
1.19059
1.0027
1.00874
1.01838
1.04146
1.0636
1.06704
1.06684
1.06338
1.06913
1.19081
1.0027
1.00873
1.01838
1.04147
1.06359
1.06704
1.06682
1.06359
1.0713
1.19106
1.0027
1.00873
1.01838
1.04149
1.06357
1.06705
1.0668
1.06369
1.07423
1.19125
1.0027
1.00873
1.01838
1.0415
1.06355
1.06706
1.06678
1.06375
1.07792
1.1914
1.0027
1.00873
1.01838
1.04152
1.06352
1.06708
1.06676
1.06376
1.08234
1.19158
1.0027
1.00873
1.01838
1.04153
1.06349
1.0671
1.06675
1.06375
1.08753
1.19188
1.0027
1.00873
1.01838
1.04155
1.06346
1.06713
1.06673
1.06372
1.09341
1.19233
1.0027
1.00873
1.01838
1.04156
1.06344
1.06717
1.06671
1.06368
1.09984
1.1927
1.0027
1.00873
1.01838
1.04158
1.0634
1.06722
1.06668
1.06365
1.10666
1.19267
1.0027
1.00873
1.01838
1.04159
1.06337
1.06726
1.06665
1.06361
1.1137
1.1918
1.0027
1.00873
1.01838
1.0416
1.06334
1.06731
1.06661
1.06359
1.12082
1.19023
1.0027
1.00873
1.01838
1.04161
1.06332
1.06736
1.06657
1.06358
1.12822
1.1895
1.0027
1.00873
1.01838
1.04162
1.06329
1.06741
1.06651
1.0636
1.13592
1.19252
1.0027
1.00873
1.01838
1.04163
1.06327
1.06744
1.06645
1.06365
1.14365
1.19952
1.0027
1.00873
1.01837
1.04164
1.06326
1.06747
1.06638
1.06373
1.15133
1.20801
1.0027
1.00873
1.01837
1.04164
1.06325
1.06748
1.0663
1.06387
1.1591
1.21608
1.27281
1.26828
1.26463
1.26106
1.25705
1.25306
1.24888
1.2442
1.23927
1.23383
1.27211
1.26735
1.26369
1.26021
1.25637
1.25243
1.24826
1.24375
1.23873
1.23315
1.27057
1.26569
1.26233
1.25911
1.25549
1.25166
1.2475
1.24299
1.23777
1.23204
1.26838
1.26358
1.2605
1.25745
1.25395
1.2502
1.2461
1.24152
1.23623
1.23035
1.26585
1.26131
1.25841
1.25541
1.25192
1.24822
1.24419
1.23952
1.23437
1.22817
1.26293
1.25883
1.25598
1.253
1.24951
1.24583
1.2418
1.23715
1.23214
1.22576
1.25949
1.25619
1.25325
1.2503
1.24688
1.24322
1.23916
1.23453
1.22958
1.22319
1.25542
1.25348
1.25045
1.24753
1.24419
1.24056
1.23644
1.23187
1.22672
1.22094
1.25054
1.25036
1.24796
1.24507
1.24165
1.23789
1.23377
1.22929
1.22424
1.21891
1.24438
1.24658
1.24572
1.24324
1.23971
1.23575
1.23171
1.22729
1.22248
1.21711
1.23599
1.24188
1.24273
1.24161
1.23855
1.23461
1.23049
1.2261
1.22117
1.21552
1.22577
1.23415
1.23854
1.23909
1.23752
1.23415
1.22996
1.22542
1.22032
1.21443
1.21673
1.22353
1.23108
1.23508
1.2364
1.23454
1.23081
1.22603
1.22039
1.21399
1.21232
1.21413
1.2209
1.22785
1.23266
1.23388
1.23204
1.22746
1.22146
1.21426
1.21238
1.21073
1.21314
1.21825
1.22492
1.22975
1.23089
1.22844
1.2225
1.21464
1.21402
1.2113
1.21089
1.21111
1.21399
1.21886
1.22298
1.22385
1.22091
1.21404
1.21448
1.21227
1.21016
1.20779
1.20654
1.20667
1.20877
1.21118
1.21191
1.20823
1.21563
1.21318
1.21013
1.20639
1.20295
1.19952
1.1969
1.19576
1.19614
1.19534
1.21813
1.21451
1.21056
1.20591
1.20125
1.19621
1.19135
1.18599
1.18193
1.17946
1.2148
1.21292
1.21036
1.20634
1.20155
1.19552
1.18961
1.18276
1.17528
1.16774
)
;

boundaryField
{
    inlet
    {
        type            fixedValue;
        value           uniform 1;
    }
    outlet
    {
        type            inletOutlet;
        inletValue      uniform 1;
        value           nonuniform List<scalar> 
100
(
1.05233
1.04453
1.03543
1.02525
1.01437
1.0029
0.99123
0.980462
0.971109
0.962976
0.956106
0.949836
0.94411
0.938857
0.934168
0.930345
0.927435
0.925423
0.924346
0.923105
1.09321
1.09251
1.0916
1.08956
1.08724
1.0851
1.08356
1.08242
1.08083
1.07836
1.07582
1.0739
1.07278
1.07219
1.07066
1.06832
1.06551
1.0627
1.06004
1.05727
1.0987
1.10128
1.10569
1.11771
1.13753
1.16126
1.18827
1.21039
1.22091
1.22722
1.22966
1.22638
1.21018
1.18684
1.15957
1.13488
1.12039
1.10976
1.10058
1.09551
1.05702
1.05988
1.06286
1.06596
1.06856
1.07004
1.07143
1.07309
1.07491
1.0766
1.07772
1.07932
1.08165
1.08439
1.08673
1.08784
1.08827
1.08957
1.09187
1.09518
0.923103
0.924342
0.925421
0.927436
0.930346
0.93417
0.938858
0.94411
0.949838
0.956114
0.962987
0.971116
0.98046
0.991221
1.00289
1.01434
1.02522
1.03547
1.04463
1.05224
)
;
    }
    triangle
    {
        type            zeroGradient;
    }
    top
    {
        type            symmetryPlane;
    }
    bottom
    {
        type            symmetryPlane;
    }
    defaultFaces
    {
        type            empty;
    }
}


// ************************************************************************* //
