/*--------------------------------*- C++ -*----------------------------------*\
  =========                 |
  \\      /  F ield         | OpenFOAM: The Open Source CFD Toolbox
   \\    /   O peration     | Website:  https://openfoam.org
    \\  /    A nd           | Version:  8
     \\/     M anipulation  |
\*---------------------------------------------------------------------------*/
FoamFile
{
    version     2.0;
    format      ascii;
    class       volVectorField;
    location    "1.2";
    object      U;
}
// * * * * * * * * * * * * * * * * * * * * * * * * * * * * * * * * * * * * * //

dimensions      [0 1 -1 0 0 0 0];

internalField   nonuniform List<vector> 
2600
(
(0.593988 0.0176743 0)
(1.09462 0.110901 0)
(1.36083 0.138325 0)
(1.49101 0.157059 0)
(1.45908 0.209986 0)
(1.38975 0.190634 0)
(1.37124 0.131592 0)
(1.16342 0.108343 0)
(1.08895 0.0602422 0)
(1.08971 -0.00670337 0)
(0.168548 -0.104967 0)
(0.693738 0.0787897 0)
(1.10548 0.115364 0)
(1.34908 0.130551 0)
(1.40905 0.188571 0)
(1.36438 0.178507 0)
(1.36242 0.128748 0)
(1.16286 0.115952 0)
(1.08359 0.0653612 0)
(1.08681 -0.000903253 0)
(0.00125661 -0.117719 0)
(0.345885 0.0167916 0)
(0.775953 0.0634339 0)
(1.10148 0.0929125 0)
(1.28356 0.160207 0)
(1.30469 0.160808 0)
(1.33585 0.116693 0)
(1.15917 0.118142 0)
(1.07508 0.0662527 0)
(1.08141 0.00597882 0)
(-0.0675051 -0.133558 0)
(0.120025 -0.0224255 0)
(0.44741 0.0245463 0)
(0.772524 0.0527901 0)
(1.04693 0.126151 0)
(1.17628 0.139775 0)
(1.26114 0.111677 0)
(1.14136 0.111685 0)
(1.05986 0.0604181 0)
(1.06792 0.00522766 0)
(-0.111005 -0.126716 0)
(-0.0291339 -0.0482529 0)
(0.156427 -0.0187194 0)
(0.401439 0.0174348 0)
(0.693817 0.0872004 0)
(0.936366 0.114359 0)
(1.09228 0.0986326 0)
(1.07601 0.117399 0)
(1.03045 0.0634093 0)
(1.03877 -0.000655287 0)
(-0.146478 -0.120045 0)
(-0.151237 -0.0572856 0)
(-0.10227 -0.0262759 0)
(0.0290818 -0.0111552 0)
(0.265807 0.0535166 0)
(0.56543 0.0833812 0)
(0.788244 0.0804734 0)
(0.922452 0.107145 0)
(0.966577 0.0705581 0)
(0.983848 0.00541894 0)
(-0.174876 -0.103763 0)
(-0.262888 -0.0542139 0)
(-0.322515 -0.0399343 0)
(-0.295121 -0.0140048 0)
(-0.145167 0.0257908 0)
(0.129926 0.0541467 0)
(0.385884 0.0666617 0)
(0.666191 0.0967049 0)
(0.840784 0.067586 0)
(0.906522 0.00783086 0)
(-0.195501 -0.0780224 0)
(-0.354341 -0.0431841 0)
(-0.487294 -0.029801 0)
(-0.525613 -0.019352 0)
(-0.445493 0.0130007 0)
(-0.236495 0.0332516 0)
(0.0114102 0.0439006 0)
(0.370112 0.0652848 0)
(0.66827 0.0508955 0)
(0.825747 0.0115333 0)
(-0.215196 -0.0498015 0)
(-0.413561 -0.0297585 0)
(-0.578769 -0.0230321 0)
(-0.64928 -0.017891 0)
(-0.597674 0.00856317 0)
(-0.444567 0.0187782 0)
(-0.223241 0.030908 0)
(0.147327 0.0507064 0)
(0.518207 0.0445011 0)
(0.767439 0.00132145 0)
(-0.226045 -0.0169727 0)
(-0.440294 -0.0118653 0)
(-0.611312 -0.009938 0)
(-0.68611 -0.00561628 0)
(-0.639937 0.00385125 0)
(-0.509066 0.00798012 0)
(-0.303896 0.0127569 0)
(0.0564996 0.0210029 0)
(0.44937 0.020013 0)
(0.745538 0.00492034 0)
(-0.226247 0.0165356 0)
(-0.440542 0.0112712 0)
(-0.611289 0.00886419 0)
(-0.686727 0.00828686 0)
(-0.640028 -0.0038373 0)
(-0.509027 -0.00814507 0)
(-0.303935 -0.0128742 0)
(0.0565073 -0.0208591 0)
(0.449376 -0.0177052 0)
(0.744947 -0.00176231 0)
(-0.215637 0.0494542 0)
(-0.414235 0.0305131 0)
(-0.578695 0.0239403 0)
(-0.648552 0.0158742 0)
(-0.597601 -0.00857255 0)
(-0.444371 -0.0189471 0)
(-0.223362 -0.0311345 0)
(0.147138 -0.0507799 0)
(0.517705 -0.0445745 0)
(0.766996 -0.00843986 0)
(-0.196077 0.0777186 0)
(-0.355241 0.0437732 0)
(-0.487834 0.0302663 0)
(-0.525144 0.0184663 0)
(-0.445144 -0.0131317 0)
(-0.236011 -0.0335046 0)
(0.01125 -0.0439427 0)
(0.36967 -0.0650987 0)
(0.66789 -0.0544236 0)
(0.825794 -0.0047649 0)
(-0.175538 0.10345 0)
(-0.263854 0.0545787 0)
(-0.323389 0.0404784 0)
(-0.295778 0.0140385 0)
(-0.144646 -0.0259438 0)
(0.130694 -0.0544262 0)
(0.385703 -0.0670013 0)
(0.665604 -0.0967379 0)
(0.840929 -0.0675474 0)
(0.90723 -0.00421562 0)
(-0.147118 0.119753 0)
(-0.152035 0.0568499 0)
(-0.102904 0.0263646 0)
(0.0286751 0.0138048 0)
(0.266472 -0.0532536 0)
(0.566204 -0.0838258 0)
(0.788128 -0.0807198 0)
(0.92207 -0.107103 0)
(0.967403 -0.0685408 0)
(0.983992 -0.0123367 0)
(-0.111564 0.126669 0)
(-0.029682 0.0483188 0)
(0.156032 0.0187342 0)
(0.401211 -0.0180037 0)
(0.694452 -0.0875852 0)
(0.936871 -0.114502 0)
(1.09211 -0.0979317 0)
(1.07597 -0.117394 0)
(1.03161 -0.0615017 0)
(1.03878 -0.00871594 0)
(-0.0679469 0.133526 0)
(0.119618 0.0223474 0)
(0.44719 -0.0246651 0)
(0.772878 -0.0518645 0)
(1.04744 -0.126335 0)
(1.17647 -0.140201 0)
(1.26102 -0.113164 0)
(1.14139 -0.110956 0)
(1.0595 -0.0656713 0)
(1.06786 0.00127182 0)
(0.000954875 0.117813 0)
(0.345749 -0.0164636 0)
(0.776018 -0.0627006 0)
(1.10207 -0.093437 0)
(1.28384 -0.160341 0)
(1.30468 -0.161179 0)
(1.3357 -0.116428 0)
(1.15908 -0.118252 0)
(1.07429 -0.0661431 0)
(1.08134 0.00536178 0)
(0.168343 0.105043 0)
(0.693548 -0.0790457 0)
(1.10553 -0.115571 0)
(1.34938 -0.131405 0)
(1.40922 -0.188843 0)
(1.36436 -0.178042 0)
(1.36211 -0.126975 0)
(1.16278 -0.116162 0)
(1.08289 -0.0631142 0)
(1.08662 0.0016938 0)
(0.59392 -0.017521 0)
(1.09463 -0.110649 0)
(1.36099 -0.138482 0)
(1.49118 -0.157485 0)
(1.45923 -0.210159 0)
(1.38974 -0.190592 0)
(1.37102 -0.131546 0)
(1.16339 -0.108258 0)
(1.08814 -0.0585703 0)
(1.08985 -2.05654e-05 0)
(1.15821 0.0131638 0)
(1.39531 -0.141522 0)
(1.51203 -0.173154 0)
(1.55281 -0.186177 0)
(1.4749 -0.231766 0)
(1.40243 -0.202483 0)
(1.37484 -0.137466 0)
(1.16503 -0.105069 0)
(1.09337 -0.0542039 0)
(1.09262 0.00250955 0)
(1.29831 0.150555 0)
(1.52254 -0.115236 0)
(1.58965 -0.177129 0)
(1.5702 -0.214005 0)
(1.47954 -0.256177 0)
(1.40407 -0.221463 0)
(1.37491 -0.147177 0)
(1.16899 -0.10299 0)
(1.0995 -0.0511794 0)
(1.09651 0.00802999 0)
(1.31797 0.171645 0)
(1.55316 -0.110179 0)
(1.6066 -0.194901 0)
(1.5592 -0.241706 0)
(1.47676 -0.284162 0)
(1.40619 -0.234255 0)
(1.37857 -0.154209 0)
(1.18029 -0.102629 0)
(1.10913 -0.050508 0)
(1.10079 0.011727 0)
(1.28569 0.208801 0)
(1.53658 -0.0554749 0)
(1.60339 -0.185055 0)
(1.54497 -0.265946 0)
(1.47735 -0.309824 0)
(1.42513 -0.252665 0)
(1.3938 -0.166512 0)
(1.19677 -0.102962 0)
(1.12072 -0.0494925 0)
(1.10615 0.0128011 0)
(1.26215 0.219133 0)
(1.51858 -0.033651 0)
(1.59391 -0.186911 0)
(1.538 -0.279975 0)
(1.49695 -0.334897 0)
(1.44252 -0.272532 0)
(1.40008 -0.178295 0)
(1.21062 -0.100847 0)
(1.13194 -0.0469427 0)
(1.11224 0.0127149 0)
(1.24136 0.227675 0)
(1.48529 0.0133072 0)
(1.57638 -0.166482 0)
(1.53282 -0.292048 0)
(1.50812 -0.358248 0)
(1.45436 -0.292122 0)
(1.40183 -0.1928 0)
(1.22202 -0.100331 0)
(1.14093 -0.0445974 0)
(1.11778 0.0140795 0)
(1.2207 0.235237 0)
(1.46311 0.037235 0)
(1.56049 -0.164393 0)
(1.53104 -0.304045 0)
(1.51132 -0.375059 0)
(1.4649 -0.313339 0)
(1.40561 -0.209671 0)
(1.23145 -0.103129 0)
(1.14772 -0.043388 0)
(1.12306 0.0177111 0)
(1.2034 0.237654 0)
(1.43297 0.0687507 0)
(1.5385 -0.141661 0)
(1.53434 -0.300841 0)
(1.51056 -0.385777 0)
(1.47786 -0.337523 0)
(1.41617 -0.229827 0)
(1.2362 -0.106875 0)
(1.15267 -0.0423597 0)
(1.12833 0.0221919 0)
(1.18548 0.241547 0)
(1.40965 0.0865984 0)
(1.5133 -0.134198 0)
(1.53162 -0.299982 0)
(1.50742 -0.389335 0)
(1.48953 -0.359052 0)
(1.43177 -0.251874 0)
(1.23866 -0.110747 0)
(1.15656 -0.0415886 0)
(1.13335 0.0258567 0)
(1.17161 0.242386 0)
(1.38493 0.103305 0)
(1.48212 -0.11691 0)
(1.52139 -0.286008 0)
(1.50906 -0.391728 0)
(1.49746 -0.37461 0)
(1.44895 -0.275679 0)
(1.24362 -0.117967 0)
(1.16014 -0.0420134 0)
(1.13862 0.0276502 0)
(1.15858 0.24371 0)
(1.36178 0.113334 0)
(1.45413 -0.109345 0)
(1.50556 -0.277536 0)
(1.50873 -0.384203 0)
(1.50018 -0.382198 0)
(1.4665 -0.301258 0)
(1.253 -0.125024 0)
(1.16372 -0.0423851 0)
(1.14376 0.0281589 0)
(1.14787 0.243318 0)
(1.33864 0.11957 0)
(1.43022 -0.0976934 0)
(1.4868 -0.262143 0)
(1.5001 -0.373905 0)
(1.50254 -0.386074 0)
(1.48017 -0.322561 0)
(1.26863 -0.136466 0)
(1.16799 -0.0444385 0)
(1.14801 0.0295247 0)
(1.13812 0.242415 0)
(1.31609 0.121306 0)
(1.40983 -0.0905241 0)
(1.46838 -0.249623 0)
(1.48689 -0.359995 0)
(1.5055 -0.38611 0)
(1.48904 -0.338734 0)
(1.2878 -0.149098 0)
(1.17217 -0.0458137 0)
(1.15199 0.0323498 0)
(1.12917 0.239946 0)
(1.29431 0.119357 0)
(1.39109 -0.08198 0)
(1.44956 -0.23209 0)
(1.47531 -0.347368 0)
(1.50557 -0.387234 0)
(1.49311 -0.349401 0)
(1.30985 -0.16355 0)
(1.17593 -0.0461859 0)
(1.15526 0.035891 0)
(1.12061 0.235902 0)
(1.27335 0.114886 0)
(1.37303 -0.0754913 0)
(1.4331 -0.217409 0)
(1.46408 -0.330744 0)
(1.5046 -0.38436 0)
(1.4946 -0.355761 0)
(1.33149 -0.178246 0)
(1.1799 -0.0458728 0)
(1.15714 0.0383682 0)
(1.11201 0.229945 0)
(1.25331 0.108353 0)
(1.35491 -0.0681872 0)
(1.41698 -0.201664 0)
(1.45438 -0.313463 0)
(1.50347 -0.380765 0)
(1.495 -0.357531 0)
(1.35471 -0.19462 0)
(1.18582 -0.0463888 0)
(1.15845 0.0393503 0)
(1.10334 0.222223 0)
(1.23435 0.100669 0)
(1.33671 -0.0619513 0)
(1.40179 -0.186998 0)
(1.44655 -0.298037 0)
(1.5011 -0.374041 0)
(1.49501 -0.355891 0)
(1.37711 -0.210513 0)
(1.19539 -0.0489321 0)
(1.15942 0.0402334 0)
(1.09443 0.212513 0)
(1.21649 0.0925393 0)
(1.31813 -0.0547617 0)
(1.3877 -0.173743 0)
(1.43787 -0.281238 0)
(1.49739 -0.364215 0)
(1.49511 -0.354205 0)
(1.3985 -0.226669 0)
(1.20893 -0.053287 0)
(1.16124 0.0407877 0)
(1.08496 0.200461 0)
(1.19956 0.0847872 0)
(1.30018 -0.0487065 0)
(1.37281 -0.159113 0)
(1.43094 -0.268484 0)
(1.49415 -0.35442 0)
(1.49558 -0.352614 0)
(1.41597 -0.240896 0)
(1.22501 -0.0590771 0)
(1.16473 0.0407574 0)
(1.07607 0.187715 0)
(1.18348 0.0783366 0)
(1.28244 -0.0412986 0)
(1.36082 -0.147971 0)
(1.42212 -0.252875 0)
(1.48891 -0.340715 0)
(1.49611 -0.350704 0)
(1.42962 -0.254223 0)
(1.24302 -0.0662705 0)
(1.16955 0.0403899 0)
(0.382775 0.133845 0)
(0.451513 0.165925 0)
(0.491185 0.217644 0)
(0.534383 0.256411 0)
(0.573333 0.289204 0)
(0.612419 0.316976 0)
(0.653858 0.343759 0)
(0.704143 0.370446 0)
(0.772122 0.404727 0)
(0.896358 0.438076 0)
(0.410852 0.160942 0)
(0.462446 0.182138 0)
(0.490897 0.221795 0)
(0.530762 0.25589 0)
(0.568593 0.288126 0)
(0.608601 0.316079 0)
(0.65162 0.343313 0)
(0.703833 0.370742 0)
(0.775173 0.405739 0)
(0.897315 0.432208 0)
(0.463082 0.156603 0)
(0.501914 0.170438 0)
(0.518711 0.200877 0)
(0.550166 0.231774 0)
(0.581024 0.264997 0)
(0.618556 0.29477 0)
(0.661642 0.32443 0)
(0.715889 0.353286 0)
(0.791111 0.388623 0)
(0.917596 0.404045 0)
(0.513825 0.166509 0)
(0.54612 0.184573 0)
(0.556085 0.212912 0)
(0.58341 0.236586 0)
(0.608695 0.263359 0)
(0.642278 0.288315 0)
(0.681389 0.315199 0)
(0.73199 0.340825 0)
(0.804769 0.372048 0)
(0.925828 0.380179 0)
(0.558772 0.16659 0)
(0.586348 0.184404 0)
(0.594756 0.211581 0)
(0.620086 0.234309 0)
(0.641077 0.260681 0)
(0.67185 0.284486 0)
(0.708101 0.310163 0)
(0.757123 0.333493 0)
(0.828932 0.361915 0)
(0.946866 0.364652 0)
(0.598339 0.170348 0)
(0.621194 0.188046 0)
(0.627964 0.21368 0)
(0.651142 0.235115 0)
(0.669733 0.25993 0)
(0.699261 0.281442 0)
(0.733706 0.305454 0)
(0.78131 0.326074 0)
(0.850561 0.35073 0)
(0.961971 0.351261 0)
(0.634242 0.172935 0)
(0.652103 0.189542 0)
(0.656876 0.212284 0)
(0.677166 0.23171 0)
(0.693534 0.25487 0)
(0.721837 0.274927 0)
(0.754665 0.297929 0)
(0.800892 0.3167 0)
(0.866974 0.33827 0)
(0.970299 0.337806 0)
(0.666337 0.17795 0)
(0.67951 0.193139 0)
(0.683074 0.213157 0)
(0.700913 0.230564 0)
(0.715778 0.251675 0)
(0.742676 0.269663 0)
(0.773566 0.290985 0)
(0.817822 0.307612 0)
(0.879959 0.326207 0)
(0.974566 0.325374 0)
(0.693578 0.183082 0)
(0.703462 0.196228 0)
(0.706759 0.213397 0)
(0.722786 0.228783 0)
(0.736697 0.248004 0)
(0.762196 0.264464 0)
(0.791228 0.284357 0)
(0.833429 0.299261 0)
(0.891371 0.315131 0)
(0.978253 0.314438 0)
(0.715595 0.187574 0)
(0.724648 0.198538 0)
(0.728468 0.213403 0)
(0.743386 0.227381 0)
(0.756692 0.24502 0)
(0.780721 0.26006 0)
(0.807922 0.278349 0)
(0.847855 0.29154 0)
(0.90176 0.30505 0)
(0.981247 0.304415 0)
(0.734969 0.189502 0)
(0.744634 0.199144 0)
(0.748951 0.212638 0)
(0.76295 0.225806 0)
(0.775642 0.242114 0)
(0.798118 0.255947 0)
(0.823608 0.272679 0)
(0.861275 0.28435 0)
(0.911248 0.295757 0)
(0.984089 0.295329 0)
(0.753675 0.190399 0)
(0.764035 0.199715 0)
(0.768513 0.212306 0)
(0.78154 0.224742 0)
(0.793504 0.239679 0)
(0.814317 0.252171 0)
(0.838184 0.267192 0)
(0.873599 0.277406 0)
(0.920002 0.287121 0)
(0.986914 0.287034 0)
(0.771451 0.190954 0)
(0.782125 0.20014 0)
(0.786497 0.211914 0)
(0.798473 0.223424 0)
(0.809638 0.236857 0)
(0.828825 0.247993 0)
(0.851258 0.261434 0)
(0.884666 0.270564 0)
(0.927902 0.278966 0)
(0.989644 0.279301 0)
(0.78746 0.190896 0)
(0.797793 0.20001 0)
(0.801835 0.211113 0)
(0.812933 0.22165 0)
(0.82367 0.233801 0)
(0.841647 0.243787 0)
(0.862895 0.255786 0)
(0.894365 0.263845 0)
(0.934785 0.271162 0)
(0.992052 0.271929 0)
(0.800368 0.191229 0)
(0.809882 0.199948 0)
(0.813863 0.21002 0)
(0.824561 0.219103 0)
(0.835212 0.229863 0)
(0.852414 0.23896 0)
(0.872796 0.249895 0)
(0.90269 0.257264 0)
(0.940757 0.26378 0)
(0.994196 0.264928 0)
(0.810123 0.189029 0)
(0.818228 0.196151 0)
(0.822366 0.205374 0)
(0.833299 0.214344 0)
(0.844415 0.225014 0)
(0.861498 0.233934 0)
(0.881545 0.2443 0)
(0.910306 0.25136 0)
(0.94633 0.257163 0)
(0.995973 0.258353 0)
(0.822395 0.187783 0)
(0.829041 0.193704 0)
(0.832026 0.201367 0)
(0.841403 0.209403 0)
(0.851828 0.21942 0)
(0.868488 0.228161 0)
(0.888285 0.238264 0)
(0.916177 0.245288 0)
(0.950526 0.250541 0)
(0.99744 0.251988 0)
(0.834795 0.186813 0)
(0.840144 0.192639 0)
(0.842375 0.199501 0)
(0.850183 0.206149 0)
(0.859421 0.214689 0)
(0.875134 0.222681 0)
(0.894283 0.232321 0)
(0.921354 0.239389 0)
(0.953981 0.244081 0)
(0.997884 0.245305 0)
(0.845554 0.186215 0)
(0.849854 0.191736 0)
(0.85204 0.197963 0)
(0.859176 0.203538 0)
(0.867568 0.21061 0)
(0.88193 0.217295 0)
(0.899825 0.225937 0)
(0.925393 0.232489 0)
(0.957274 0.237395 0)
(0.997994 0.238056 0)
(0.853412 0.185263 0)
(0.857507 0.190014 0)
(0.860692 0.195755 0)
(0.86839 0.200896 0)
(0.877076 0.207507 0)
(0.890928 0.213373 0)
(0.907554 0.22059 0)
(0.931155 0.226171 0)
(0.960752 0.229959 0)
(0.997893 0.229707 0)
(1.47015 3.27255e-08 0)
(1.4488 -1.24166e-07 0)
(1.41783 5.62444e-07 0)
(1.3557 -1.89735e-06 0)
(1.28794 4.86397e-06 0)
(1.27131 3.38482e-05 0)
(1.2617 -0.000131614 0)
(1.23296 0.000150335 0)
(0.865968 0.00456375 0)
(0.489021 0.0138874 0)
(1.47015 9.39271e-08 0)
(1.4488 -3.50097e-07 0)
(1.41783 1.66169e-06 0)
(1.3557 -6.37452e-06 0)
(1.28794 1.89869e-05 0)
(1.2713 8.76213e-05 0)
(1.26182 -0.000364927 0)
(1.23292 0.000538442 0)
(0.869658 0.0134085 0)
(0.511722 0.0409963 0)
(1.47015 1.532e-07 0)
(1.4488 -5.66863e-07 0)
(1.41783 2.71576e-06 0)
(1.3557 -1.0748e-05 0)
(1.28796 3.17572e-05 0)
(1.27124 0.000141707 0)
(1.26196 -0.00059762 0)
(1.23307 0.000987623 0)
(0.874767 0.0208346 0)
(0.543821 0.0608328 0)
(1.47015 2.08514e-07 0)
(1.4488 -7.66911e-07 0)
(1.41783 3.70191e-06 0)
(1.35569 -1.48376e-05 0)
(1.28799 4.32056e-05 0)
(1.27117 0.000196686 0)
(1.26215 -0.000822683 0)
(1.2333 0.00149168 0)
(0.878816 0.0281032 0)
(0.573771 0.0799237 0)
(1.47015 2.57886e-07 0)
(1.4488 -9.42675e-07 0)
(1.41783 4.59529e-06 0)
(1.35568 -1.87116e-05 0)
(1.28803 5.32271e-05 0)
(1.2711 0.000249738 0)
(1.26233 -0.0010432 0)
(1.23369 0.00210012 0)
(0.883834 0.0346637 0)
(0.603077 0.0930833 0)
(1.47015 2.99167e-07 0)
(1.4488 -1.08704e-06 0)
(1.41783 5.36521e-06 0)
(1.35568 -2.22786e-05 0)
(1.28807 6.16255e-05 0)
(1.27101 0.000301372 0)
(1.26251 -0.00124969 0)
(1.23421 0.00274476 0)
(0.889357 0.0407879 0)
(0.630076 0.105013 0)
(1.47015 3.30128e-07 0)
(1.4488 -1.19262e-06 0)
(1.41783 5.98279e-06 0)
(1.35567 -2.55165e-05 0)
(1.28812 6.8185e-05 0)
(1.27092 0.000350572 0)
(1.26267 -0.00144347 0)
(1.23496 0.0034803 0)
(0.895699 0.0463184 0)
(0.656698 0.113377 0)
(1.47015 3.48726e-07 0)
(1.4488 -1.25043e-06 0)
(1.41783 6.4136e-06 0)
(1.35565 -2.83891e-05 0)
(1.28817 7.27153e-05 0)
(1.27083 0.000396639 0)
(1.26283 -0.00161912 0)
(1.2359 0.00417124 0)
(0.902753 0.051228 0)
(0.682585 0.120482 0)
(1.47015 3.51843e-07 0)
(1.4488 -1.23279e-06 0)
(1.41783 6.60896e-06 0)
(1.35564 -3.08583e-05 0)
(1.28823 7.50669e-05 0)
(1.27074 0.000437599 0)
(1.26296 -0.00177357 0)
(1.23718 0.00486137 0)
(0.910362 0.0555366 0)
(0.707677 0.125584 0)
(1.47015 3.29084e-07 0)
(1.4488 -1.116e-06 0)
(1.41783 6.49924e-06 0)
(1.35563 -3.28634e-05 0)
(1.28829 7.54101e-05 0)
(1.27066 0.000472704 0)
(1.26309 -0.0019064 0)
(1.23877 0.00544682 0)
(0.918418 0.0594534 0)
(0.730788 0.129862 0)
(1.47015 2.80958e-07 0)
(1.44881 -9.09557e-07 0)
(1.41783 6.06289e-06 0)
(1.35562 -3.43222e-05 0)
(1.28835 7.40607e-05 0)
(1.27059 0.00049933 0)
(1.2632 -0.0020133 0)
(1.24063 0.00587095 0)
(0.927347 0.063025 0)
(0.750524 0.133036 0)
(1.47015 2.07956e-07 0)
(1.44881 -6.1015e-07 0)
(1.41783 5.30424e-06 0)
(1.3556 -3.51454e-05 0)
(1.28841 7.12369e-05 0)
(1.27052 0.000516807 0)
(1.26332 -0.00208902 0)
(1.24271 0.00611657 0)
(0.937383 0.0660768 0)
(0.766276 0.135577 0)
(1.47015 1.08643e-07 0)
(1.44881 -2.15248e-07 0)
(1.41783 4.20504e-06 0)
(1.35559 -3.52414e-05 0)
(1.28846 6.70376e-05 0)
(1.27046 0.000525468 0)
(1.26345 -0.00214065 0)
(1.24489 0.00606708 0)
(0.94799 0.0686386 0)
(0.778981 0.137351 0)
(1.47015 -1.70372e-08 0)
(1.44881 2.73823e-07 0)
(1.41783 2.75789e-06 0)
(1.35558 -3.44939e-05 0)
(1.28851 6.1539e-05 0)
(1.2704 0.000524254 0)
(1.26357 -0.00215185 0)
(1.24716 0.00569528 0)
(0.958674 0.0708906 0)
(0.789985 0.13866 0)
(1.47015 -1.68284e-07 0)
(1.44881 8.52351e-07 0)
(1.41782 9.64818e-07 0)
(1.35557 -3.28395e-05 0)
(1.28856 5.47389e-05 0)
(1.27035 0.000514389 0)
(1.26368 -0.00212419 0)
(1.24932 0.00509045 0)
(0.969122 0.0729311 0)
(0.800691 0.139727 0)
(1.47015 -3.43429e-07 0)
(1.44881 1.51247e-06 0)
(1.41782 -1.15982e-06 0)
(1.35556 -3.02244e-05 0)
(1.2886 4.66105e-05 0)
(1.27031 0.000496838 0)
(1.26376 -0.00203269 0)
(1.25117 0.00419311 0)
(0.979299 0.0749532 0)
(0.811715 0.141211 0)
(1.47014 -5.39979e-07 0)
(1.44881 2.24397e-06 0)
(1.41782 -3.59816e-06 0)
(1.35555 -2.65969e-05 0)
(1.28863 3.72277e-05 0)
(1.27026 0.000472446 0)
(1.26389 -0.00188683 0)
(1.25216 0.00329595 0)
(0.989757 0.0767581 0)
(0.822271 0.142751 0)
(1.47014 -7.54594e-07 0)
(1.44881 3.03332e-06 0)
(1.41782 -6.30546e-06 0)
(1.35554 -2.19229e-05 0)
(1.28865 2.68202e-05 0)
(1.27023 0.000443876 0)
(1.26402 -0.00172296 0)
(1.25264 0.00254163 0)
(1.00075 0.0780298 0)
(0.832658 0.143171 0)
(1.47014 -9.83241e-07 0)
(1.44881 3.86655e-06 0)
(1.41781 -9.27901e-06 0)
(1.35554 -1.59511e-05 0)
(1.28867 1.574e-05 0)
(1.27021 0.000410164 0)
(1.26406 -0.00151025 0)
(1.25301 0.00189679 0)
(1.01227 0.0788136 0)
(0.843015 0.143583 0)
(1.47014 -1.22035e-06 0)
(1.44881 4.72243e-06 0)
(1.41781 -1.24025e-05 0)
(1.35554 -1.0218e-05 0)
(1.28867 4.32286e-06 0)
(1.27021 0.00037494 0)
(1.26403 -0.00128168 0)
(1.25329 0.00139979 0)
(1.02435 0.0792288 0)
(0.85265 0.143632 0)
(1.47014 1.22039e-06 0)
(1.44881 -4.72247e-06 0)
(1.41781 1.24026e-05 0)
(1.35554 1.02174e-05 0)
(1.28867 -4.33051e-06 0)
(1.27021 -0.000374932 0)
(1.26403 0.00128168 0)
(1.25329 -0.00139979 0)
(1.02435 -0.0792287 0)
(0.85265 -0.143632 0)
(1.47014 9.83276e-07 0)
(1.44881 -3.86659e-06 0)
(1.41781 9.27905e-06 0)
(1.35554 1.59512e-05 0)
(1.28867 -1.57467e-05 0)
(1.27021 -0.000410158 0)
(1.26406 0.00151026 0)
(1.25301 -0.00189678 0)
(1.01227 -0.0788135 0)
(0.843015 -0.143583 0)
(1.47014 7.54631e-07 0)
(1.44881 -3.03337e-06 0)
(1.41782 6.30543e-06 0)
(1.35554 2.19233e-05 0)
(1.28865 -2.68265e-05 0)
(1.27023 -0.000443874 0)
(1.26402 0.00172296 0)
(1.25264 -0.00254162 0)
(1.00075 -0.0780297 0)
(0.832658 -0.143171 0)
(1.47014 5.40017e-07 0)
(1.44881 -2.24401e-06 0)
(1.41782 3.59803e-06 0)
(1.35555 2.65979e-05 0)
(1.28863 -3.72336e-05 0)
(1.27026 -0.000472445 0)
(1.26389 0.00188684 0)
(1.25216 -0.00329594 0)
(0.989757 -0.0767581 0)
(0.822271 -0.142751 0)
(1.47015 3.43465e-07 0)
(1.44881 -1.51251e-06 0)
(1.41782 1.15957e-06 0)
(1.35556 3.0226e-05 0)
(1.2886 -4.66161e-05 0)
(1.27031 -0.000496837 0)
(1.26376 0.0020327 0)
(1.25117 -0.00419311 0)
(0.979299 -0.0749532 0)
(0.811715 -0.141211 0)
(1.47015 1.68317e-07 0)
(1.44881 -8.52372e-07 0)
(1.41782 -9.65212e-07 0)
(1.35557 3.28416e-05 0)
(1.28856 -5.47443e-05 0)
(1.27035 -0.000514388 0)
(1.26368 0.0021242 0)
(1.24932 -0.00509045 0)
(0.969122 -0.0729311 0)
(0.800691 -0.139727 0)
(1.47015 1.70643e-08 0)
(1.44881 -2.73817e-07 0)
(1.41783 -2.75844e-06 0)
(1.35558 3.44964e-05 0)
(1.28851 -6.1544e-05 0)
(1.2704 -0.000524253 0)
(1.26357 0.00215186 0)
(1.24716 -0.00569529 0)
(0.958674 -0.0708906 0)
(0.789985 -0.13866 0)
(1.47015 -1.08624e-07 0)
(1.44881 2.15287e-07 0)
(1.41783 -4.20575e-06 0)
(1.35559 3.52443e-05 0)
(1.28846 -6.70418e-05 0)
(1.27046 -0.000525468 0)
(1.26345 0.00214066 0)
(1.24489 -0.00606709 0)
(0.947991 -0.0686387 0)
(0.778981 -0.137351 0)
(1.47015 -2.07945e-07 0)
(1.44881 6.10225e-07 0)
(1.41783 -5.30512e-06 0)
(1.3556 3.51487e-05 0)
(1.28841 -7.12401e-05 0)
(1.27052 -0.000516807 0)
(1.26332 0.00208902 0)
(1.24271 -0.00611657 0)
(0.937383 -0.0660768 0)
(0.766276 -0.135578 0)
(1.47015 -2.80957e-07 0)
(1.44881 9.09667e-07 0)
(1.41783 -6.06393e-06 0)
(1.35562 3.43259e-05 0)
(1.28835 -7.40627e-05 0)
(1.27059 -0.000499332 0)
(1.2632 0.00201331 0)
(1.24063 -0.00587095 0)
(0.927347 -0.0630251 0)
(0.750525 -0.133036 0)
(1.47015 -3.29092e-07 0)
(1.4488 1.11614e-06 0)
(1.41783 -6.50041e-06 0)
(1.35563 3.28673e-05 0)
(1.28829 -7.5411e-05 0)
(1.27066 -0.000472707 0)
(1.26309 0.00190641 0)
(1.23877 -0.00544683 0)
(0.918418 -0.0594535 0)
(0.730789 -0.129862 0)
(1.47015 -3.51862e-07 0)
(1.4488 1.23297e-06 0)
(1.41783 -6.61029e-06 0)
(1.35564 3.08625e-05 0)
(1.28823 -7.50669e-05 0)
(1.27074 -0.000437604 0)
(1.26296 0.00177359 0)
(1.23718 -0.00486139 0)
(0.910362 -0.0555367 0)
(0.707678 -0.125584 0)
(1.47015 -3.48754e-07 0)
(1.4488 1.25064e-06 0)
(1.41783 -6.41505e-06 0)
(1.35565 2.83937e-05 0)
(1.28817 -7.27146e-05 0)
(1.27083 -0.000396644 0)
(1.26283 0.00161913 0)
(1.2359 -0.00417126 0)
(0.902753 -0.0512281 0)
(0.682585 -0.120482 0)
(1.47015 -3.30163e-07 0)
(1.4488 1.19285e-06 0)
(1.41783 -5.98436e-06 0)
(1.35567 2.55216e-05 0)
(1.28812 -6.81837e-05 0)
(1.27092 -0.000350576 0)
(1.26267 0.00144348 0)
(1.23496 -0.00348032 0)
(0.895699 -0.0463184 0)
(0.656698 -0.113377 0)
(1.47015 -2.99212e-07 0)
(1.4488 1.0873e-06 0)
(1.41783 -5.36689e-06 0)
(1.35568 2.22842e-05 0)
(1.28807 -6.16235e-05 0)
(1.27101 -0.000301375 0)
(1.26251 0.0012497 0)
(1.23421 -0.00274478 0)
(0.889357 -0.040788 0)
(0.630077 -0.105014 0)
(1.47015 -2.57943e-07 0)
(1.4488 9.42963e-07 0)
(1.41783 -4.59709e-06 0)
(1.35568 1.87176e-05 0)
(1.28803 -5.32247e-05 0)
(1.2711 -0.00024974 0)
(1.26233 0.0010432 0)
(1.23369 -0.00210013 0)
(0.883834 -0.0346637 0)
(0.603076 -0.0930835 0)
(1.47015 -2.08585e-07 0)
(1.4488 7.6724e-07 0)
(1.41783 -3.70382e-06 0)
(1.35569 1.48438e-05 0)
(1.28799 -4.3203e-05 0)
(1.27117 -0.000196687 0)
(1.26215 0.000822687 0)
(1.2333 -0.00149168 0)
(0.878816 -0.0281032 0)
(0.573771 -0.0799239 0)
(1.47015 -1.53285e-07 0)
(1.4488 5.67235e-07 0)
(1.41783 -2.71776e-06 0)
(1.3557 1.07541e-05 0)
(1.28796 -3.17548e-05 0)
(1.27124 -0.000141709 0)
(1.26196 0.000597633 0)
(1.23307 -0.000987618 0)
(0.874767 -0.0208347 0)
(0.543821 -0.0608329 0)
(1.47015 -9.40222e-08 0)
(1.4488 3.50502e-07 0)
(1.41783 -1.66375e-06 0)
(1.3557 6.38064e-06 0)
(1.28794 -1.89846e-05 0)
(1.2713 -8.76218e-05 0)
(1.26182 0.000364947 0)
(1.23292 -0.00053848 0)
(0.869659 -0.0134085 0)
(0.511722 -0.0409964 0)
(1.47015 -3.28281e-08 0)
(1.4488 1.24597e-07 0)
(1.41783 -5.64532e-07 0)
(1.3557 1.90326e-06 0)
(1.28794 -4.8618e-06 0)
(1.27131 -3.38436e-05 0)
(1.2617 0.000131594 0)
(1.23296 -0.000150326 0)
(0.865969 -0.00456381 0)
(0.489021 -0.0138875 0)
(0.853411 -0.185264 0)
(0.857507 -0.190014 0)
(0.860692 -0.195755 0)
(0.868391 -0.200896 0)
(0.877077 -0.207506 0)
(0.890928 -0.213372 0)
(0.907555 -0.220589 0)
(0.931156 -0.226171 0)
(0.960752 -0.229959 0)
(0.997893 -0.229707 0)
(0.845553 -0.186215 0)
(0.849854 -0.191736 0)
(0.85204 -0.197963 0)
(0.859176 -0.203538 0)
(0.867569 -0.21061 0)
(0.88193 -0.217294 0)
(0.899826 -0.225937 0)
(0.925394 -0.232489 0)
(0.957275 -0.237395 0)
(0.997994 -0.238057 0)
(0.834794 -0.186813 0)
(0.840144 -0.192639 0)
(0.842375 -0.199501 0)
(0.850183 -0.206149 0)
(0.859422 -0.214689 0)
(0.875135 -0.222681 0)
(0.894284 -0.232321 0)
(0.921355 -0.239389 0)
(0.953981 -0.244081 0)
(0.997884 -0.245306 0)
(0.822395 -0.187783 0)
(0.829041 -0.193704 0)
(0.832027 -0.201367 0)
(0.841404 -0.209403 0)
(0.851829 -0.21942 0)
(0.868489 -0.228161 0)
(0.888286 -0.238264 0)
(0.916177 -0.245288 0)
(0.950526 -0.250542 0)
(0.99744 -0.251989 0)
(0.810123 -0.189029 0)
(0.818228 -0.196151 0)
(0.822367 -0.205375 0)
(0.8333 -0.214345 0)
(0.844416 -0.225015 0)
(0.861498 -0.233934 0)
(0.881546 -0.2443 0)
(0.910306 -0.25136 0)
(0.94633 -0.257163 0)
(0.995973 -0.258353 0)
(0.800368 -0.191229 0)
(0.809882 -0.199948 0)
(0.813864 -0.21002 0)
(0.824561 -0.219103 0)
(0.835212 -0.229863 0)
(0.852414 -0.23896 0)
(0.872796 -0.249895 0)
(0.90269 -0.257264 0)
(0.940756 -0.263781 0)
(0.994196 -0.264928 0)
(0.78746 -0.190896 0)
(0.797793 -0.20001 0)
(0.801835 -0.211113 0)
(0.812933 -0.22165 0)
(0.82367 -0.233801 0)
(0.841647 -0.243787 0)
(0.862894 -0.255786 0)
(0.894365 -0.263846 0)
(0.934785 -0.271162 0)
(0.992052 -0.271929 0)
(0.771452 -0.190954 0)
(0.782125 -0.20014 0)
(0.786497 -0.211914 0)
(0.798474 -0.223424 0)
(0.809638 -0.236858 0)
(0.828825 -0.247993 0)
(0.851257 -0.261434 0)
(0.884666 -0.270564 0)
(0.927902 -0.278966 0)
(0.989644 -0.279302 0)
(0.753676 -0.190399 0)
(0.764035 -0.199715 0)
(0.768514 -0.212306 0)
(0.78154 -0.224743 0)
(0.793504 -0.239679 0)
(0.814317 -0.252171 0)
(0.838184 -0.267193 0)
(0.873599 -0.277406 0)
(0.920002 -0.287121 0)
(0.986914 -0.287035 0)
(0.73497 -0.189502 0)
(0.744635 -0.199145 0)
(0.748952 -0.212638 0)
(0.762951 -0.225806 0)
(0.775642 -0.242114 0)
(0.798118 -0.255947 0)
(0.823608 -0.272679 0)
(0.861275 -0.28435 0)
(0.911248 -0.295757 0)
(0.984089 -0.29533 0)
(0.715596 -0.187574 0)
(0.724649 -0.198538 0)
(0.728468 -0.213403 0)
(0.743387 -0.227381 0)
(0.756692 -0.245021 0)
(0.780721 -0.26006 0)
(0.807922 -0.278349 0)
(0.847855 -0.29154 0)
(0.90176 -0.30505 0)
(0.981247 -0.304415 0)
(0.693578 -0.183082 0)
(0.703462 -0.196228 0)
(0.706759 -0.213398 0)
(0.722786 -0.228783 0)
(0.736698 -0.248004 0)
(0.762197 -0.264464 0)
(0.791228 -0.284357 0)
(0.833429 -0.299261 0)
(0.891371 -0.315131 0)
(0.978254 -0.314438 0)
(0.666338 -0.17795 0)
(0.67951 -0.193139 0)
(0.683074 -0.213157 0)
(0.700913 -0.230564 0)
(0.715779 -0.251675 0)
(0.742676 -0.269663 0)
(0.773566 -0.290985 0)
(0.817822 -0.307612 0)
(0.879959 -0.326208 0)
(0.974566 -0.325374 0)
(0.634242 -0.172935 0)
(0.652104 -0.189542 0)
(0.656877 -0.212284 0)
(0.677166 -0.23171 0)
(0.693534 -0.25487 0)
(0.721837 -0.274927 0)
(0.754665 -0.297929 0)
(0.800892 -0.3167 0)
(0.866974 -0.338271 0)
(0.9703 -0.337806 0)
(0.59834 -0.170348 0)
(0.621195 -0.188046 0)
(0.627964 -0.21368 0)
(0.651142 -0.235115 0)
(0.669733 -0.25993 0)
(0.699261 -0.281442 0)
(0.733706 -0.305454 0)
(0.78131 -0.326074 0)
(0.850561 -0.350731 0)
(0.96197 -0.351262 0)
(0.558772 -0.166591 0)
(0.586348 -0.184404 0)
(0.594756 -0.211581 0)
(0.620086 -0.234309 0)
(0.641077 -0.260681 0)
(0.67185 -0.284487 0)
(0.708101 -0.310163 0)
(0.757123 -0.333493 0)
(0.828931 -0.361915 0)
(0.946863 -0.364654 0)
(0.513825 -0.166509 0)
(0.54612 -0.184573 0)
(0.556085 -0.212912 0)
(0.58341 -0.236586 0)
(0.608695 -0.26336 0)
(0.642278 -0.288315 0)
(0.681389 -0.315199 0)
(0.73199 -0.340825 0)
(0.804768 -0.372048 0)
(0.925825 -0.380179 0)
(0.463082 -0.156603 0)
(0.501914 -0.170438 0)
(0.518711 -0.200877 0)
(0.550166 -0.231774 0)
(0.581024 -0.264997 0)
(0.618556 -0.294771 0)
(0.661641 -0.32443 0)
(0.715889 -0.353285 0)
(0.79111 -0.388623 0)
(0.917594 -0.404044 0)
(0.410852 -0.160942 0)
(0.462446 -0.182138 0)
(0.490897 -0.221795 0)
(0.530762 -0.25589 0)
(0.568593 -0.288126 0)
(0.6086 -0.316079 0)
(0.65162 -0.343313 0)
(0.703833 -0.370742 0)
(0.775172 -0.405739 0)
(0.897314 -0.432206 0)
(0.382775 -0.133846 0)
(0.451513 -0.165925 0)
(0.491186 -0.217644 0)
(0.534383 -0.256411 0)
(0.573333 -0.289204 0)
(0.612419 -0.316976 0)
(0.653858 -0.343759 0)
(0.704142 -0.370446 0)
(0.772122 -0.404727 0)
(0.896358 -0.438076 0)
(1.07606 -0.187715 0)
(1.18348 -0.0783416 0)
(1.28244 0.0412957 0)
(1.36082 0.147974 0)
(1.42212 0.252863 0)
(1.48892 0.340697 0)
(1.49611 0.350661 0)
(1.42962 0.254187 0)
(1.24295 0.0659671 0)
(1.16959 -0.0397149 0)
(1.08495 -0.200461 0)
(1.19956 -0.0847889 0)
(1.30018 0.0487066 0)
(1.37281 0.159118 0)
(1.43093 0.268465 0)
(1.49416 0.354446 0)
(1.49559 0.352569 0)
(1.41595 0.240965 0)
(1.22512 0.0585873 0)
(1.16483 -0.0404214 0)
(1.09442 -0.212513 0)
(1.2165 -0.0925382 0)
(1.31813 0.05476 0)
(1.3877 0.173757 0)
(1.43788 0.281246 0)
(1.49735 0.364143 0)
(1.49514 0.354178 0)
(1.39853 0.226913 0)
(1.20885 0.0531907 0)
(1.16123 -0.0412831 0)
(1.10334 -0.222223 0)
(1.23436 -0.100669 0)
(1.33671 0.0619474 0)
(1.40179 0.187021 0)
(1.44652 0.297972 0)
(1.50115 0.374186 0)
(1.49504 0.355895 0)
(1.37715 0.210676 0)
(1.1955 0.0495819 0)
(1.15925 -0.0413512 0)
(1.11201 -0.229946 0)
(1.25332 -0.108355 0)
(1.35492 0.0681738 0)
(1.41697 0.201671 0)
(1.45441 0.313515 0)
(1.50346 0.380608 0)
(1.49499 0.35753 0)
(1.35464 0.194322 0)
(1.18585 0.047114 0)
(1.15847 -0.0396524 0)
(1.12061 -0.235903 0)
(1.27335 -0.114888 0)
(1.37304 0.0754714 0)
(1.4331 0.217409 0)
(1.46403 0.330697 0)
(1.50466 0.384608 0)
(1.4946 0.35583 0)
(1.3316 0.177907 0)
(1.17982 0.0462592 0)
(1.15729 -0.0366711 0)
(1.12917 -0.239947 0)
(1.2943 -0.119355 0)
(1.3911 0.0819548 0)
(1.44956 0.23208 0)
(1.47531 0.347529 0)
(1.50562 0.387156 0)
(1.49313 0.349365 0)
(1.30958 0.163107 0)
(1.17587 0.0453644 0)
(1.1551 -0.0342457 0)
(1.13812 -0.242415 0)
(1.31608 -0.121297 0)
(1.40984 0.0905174 0)
(1.46839 0.249634 0)
(1.48685 0.360033 0)
(1.50556 0.386103 0)
(1.48904 0.338642 0)
(1.28804 0.149499 0)
(1.17207 0.0447834 0)
(1.15223 -0.0331424 0)
(1.14787 -0.243316 0)
(1.33863 -0.119568 0)
(1.43023 0.0977288 0)
(1.48681 0.262149 0)
(1.50006 0.373953 0)
(1.50256 0.386017 0)
(1.48023 0.322527 0)