/*--------------------------------*- C++ -*----------------------------------*\
  =========                 |
  \\      /  F ield         | OpenFOAM: The Open Source CFD Toolbox
   \\    /   O peration     | Website:  https://openfoam.org
    \\  /    A nd           | Version:  7
     \\/     M anipulation  |
\*---------------------------------------------------------------------------*/
FoamFile
{
    version     2.0;
    format      ascii;
    class       volScalarField;
    location    "1";
    object      p;
}
// * * * * * * * * * * * * * * * * * * * * * * * * * * * * * * * * * * * * * //

dimensions      [1 -1 -2 0 0 0 0];

internalField   nonuniform List<scalar> 
2600
(
1.01613
0.968245
0.994018
0.997559
1.10345
1.41062
1.85978
2.16013
2.40718
3.14896
1.03615
0.992611
1.02199
1.02114
1.13234
1.42144
1.85666
2.17088
2.38389
3.13047
1.02136
1.00279
1.0423
1.04554
1.15881
1.43375
1.86056
2.17843
2.3591
3.13152
0.995365
1.00271
1.04078
1.05578
1.17667
1.44181
1.87302
2.18267
2.33485
3.13333
0.972943
0.979491
1.02191
1.06094
1.18707
1.45039
1.88946
2.18101
2.31799
3.13079
0.962401
0.972537
1.00721
1.05503
1.18728
1.45322
1.90818
2.17755
2.29953
3.14024
0.959865
0.958456
0.994296
1.04574
1.18201
1.46995
1.92549
2.17644
2.28808
3.15747
0.968311
0.946627
0.97934
1.03676
1.17673
1.48751
1.93281
2.16663
2.28178
3.17515
0.981806
0.951148
0.973395
1.03022
1.16421
1.49992
1.94474
2.16434
2.28556
3.20341
0.991809
0.951629
0.973575
1.0291
1.1623
1.51275
1.9469
2.16193
2.27999
3.20652
0.991976
0.951825
0.973617
1.02843
1.16197
1.51217
1.94975
2.14778
2.27385
3.18956
0.982326
0.951524
0.973668
1.03057
1.16537
1.50159
1.94941
2.16671
2.2774
3.17837
0.968948
0.946965
0.979159
1.03565
1.17567
1.49039
1.93752
2.16311
2.28345
3.17219
0.960375
0.958679
0.994187
1.0455
1.18035
1.47238
1.92601
2.17045
2.29335
3.16797
0.962629
0.972624
1.00682
1.05396
1.18541
1.45531
1.90542
2.17916
2.30121
3.14781
0.972989
0.979346
1.02119
1.05969
1.18479
1.45092
1.88853
2.18343
2.31548
3.1343
0.995394
1.00266
1.04
1.05474
1.17524
1.43942
1.87473
2.18566
2.33407
3.11872
1.0212
1.00272
1.04154
1.04512
1.15655
1.43201
1.86759
2.18004
2.35235
3.12514
1.0359
0.992589
1.02145
1.02104
1.12977
1.42374
1.86226
2.16776
2.37817
3.14424
1.01614
0.968174
0.993803
0.996717
1.10269
1.41081
1.85718
2.15566
2.41355
3.15661
1.5784
0.956232
0.944465
0.968932
1.07676
1.40205
1.85605
2.14639
2.45514
3.17667
2.16047
1.01037
0.926469
0.946609
1.0522
1.38012
1.85195
2.13489
2.50825
3.22403
2.59388
1.13523
0.934709
0.934866
1.02748
1.34356
1.83107
2.11698
2.58255
3.29313
2.9692
1.30418
0.955318
0.929992
1.00276
1.3078
1.79391
2.09846
2.67544
3.37079
3.31466
1.48672
0.99782
0.93592
0.982872
1.27538
1.74016
2.08302
2.78207
3.44666
3.5948
1.69195
1.07582
0.939262
0.97291
1.2531
1.68623
2.07651
2.8957
3.51463
3.87083
1.88694
1.17551
0.949334
0.974047
1.21918
1.64287
2.08187
3.00887
3.57196
4.11914
2.1006
1.29669
0.975766
0.990334
1.1868
1.61105
2.09768
3.11933
3.62488
4.31098
2.31297
1.44158
1.00655
1.0122
1.15302
1.57609
2.1278
3.22671
3.67293
4.46646
2.50522
1.58413
1.04345
1.05038
1.13983
1.53602
2.17914
3.33136
3.71807
4.60148
2.69628
1.74425
1.1081
1.07894
1.12676
1.49142
2.25547
3.42234
3.75405
4.7083
2.87821
1.88284
1.21285
1.10714
1.11772
1.44117
2.34578
3.50513
3.78938
4.81214
3.05782
2.02832
1.33966
1.13647
1.11288
1.39384
2.44161
3.56857
3.81628
4.92463
3.2459
2.17073
1.46946
1.17582
1.11911
1.35815
2.53171
3.61778
3.84233
4.82158
3.41486
2.29728
1.60199
1.25127
1.1357
1.33005
2.60585
3.64246
3.82791
4.76065
3.60374
2.45064
1.73264
1.32925
1.15997
1.33946
2.65043
3.65592
3.80107
4.54216
3.75309
2.59621
1.87604
1.41961
1.20057
1.35923
2.65928
3.63471
3.75999
4.15264
3.88074
2.749
2.01486
1.5079
1.24486
1.39572
2.66045
3.60717
3.71383
3.78758
3.93155
2.91298
2.15303
1.60215
1.29309
1.45197
2.62672
3.56521
3.67079
3.52475
3.93391
3.04485
2.2951
1.69322
1.34351
1.53166
2.565
3.52264
3.61678
2.1463
7.61592
9.79656
8.38918
7.78465
7.53898
7.37607
7.20316
6.9114
6.36252
1.03957
3.3328
7.42237
7.36887
7.40405
7.42137
7.30443
7.13228
6.81536
6.15428
1.022
1.09449
4.48839
7.6814
7.57599
7.48715
7.30257
7.10367
6.77084
6.10974
1.02246
1.02513
1.36784
5.67205
7.6336
7.40787
7.24012
7.02088
6.65771
6.07772
1.02322
1.02589
1.02942
2.00937
6.73271
7.41618
7.19867
6.99936
6.61232
6.13382
1.02304
1.02484
1.02675
1.03278
3.99399
7.03243
7.11138
6.9467
6.58376
6.17341
1.02083
1.02238
1.02405
1.02706
1.3399
5.46826
7.10959
6.93488
6.60573
6.22514
1.01897
1.02055
1.02267
1.02496
1.02854
2.27725
6.48767
6.88867
6.62153
6.24763
1.01616
1.01729
1.01889
1.02022
1.02168
1.06107
4.39475
6.79364
6.60419
6.23976
1.01398
1.01483
1.01576
1.01701
1.01836
1.02099
1.72844
5.9105
6.56005
6.22115
1.01149
1.01236
1.01335
1.01462
1.01603
1.01735
1.0362
3.76248
6.34964
6.2105
1.00966
1.01025
1.01099
1.01178
1.01281
1.01374
1.01609
1.57364
5.49076
6.23132
1.0076
1.00809
1.00867
1.00939
1.01029
1.01127
1.01238
1.0339
3.63613
6.01779
1.00581
1.00635
1.00697
1.00779
1.00862
1.00978
1.01077
1.01308
1.68553
5.39344
1.00475
1.00513
1.00563
1.00624
1.00692
1.00784
1.0087
1.00989
1.05598
4.15452
1.00362
1.00391
1.00428
1.00473
1.00533
1.00601
1.00693
1.00786
1.01179
2.6634
1.00271
1.00298
1.00331
1.00373
1.00421
1.00479
1.00555
1.00634
1.00794
1.3982
1.00208
1.00227
1.00254
1.00286
1.00325
1.00373
1.00431
1.005
1.00602
1.01352
1.00152
1.00167
1.00187
1.00212
1.00244
1.00284
1.00333
1.00397
1.00499
1.00483
1.00113
1.00124
1.00139
1.00159
1.00184
1.00216
1.00256
1.00311
1.00376
1.00468
1
1
1
1
1
1
1
1
1
1.01421
1
1
1
1
1
1
1
1
1
1.0139
1
1
1
1
1
1
1
1
1
1.01348
1
1
1
1
1
1
1
1
1
1.01313
1
1
1
1
1
1
1
1
1
1.01339
1
1
1
1
1
1
1
1
1
1.01367
1
1
1
1
1
1
1
1
1
1.01308
1
1
1
1
1
1
1
1
1
1.01172
1
1
1
1
1
1
1
1
1
1.01014
1
1
1
1
1
1
1
1
1
1.00917
1
1
1
1
1
1
1
1
1
1.00719
1
1
1
1
1
1
1
1
1
1.00613
1
1
1
1
1
1
1
1
1
1.00493
1
1
1
1
1
1
1
1
1
1.0036
1
1
1
1
1
1
1
1
1
1.00292
1
1
1
1
1
1
1
1
1
1.00224
1
1
1
1
1
1
1
1
1
1.00164
1
1
1
1
1
1
1
1
1
1.00124
1
1
1
1
1
1
1
1
1
1.00091
1
1
1
1
1
1
1
1
1
1.00067
1
1
1
1
1
1
1
1
1
1.00067
1
1
1
1
1
1
1
1
1
1.00091
1
1
1
1
1
1
1
1
1
1.00124
1
1
1
1
1
1
1
1
1
1.00164
1
1
1
1
1
1
1
1
1
1.00224
1
1
1
1
1
1
1
1
1
1.00292
1
1
1
1
1
1
1
1
1
1.0036
1
1
1
1
1
1
1
1
1
1.00493
1
1
1
1
1
1
1
1
1
1.00614
1
1
1
1
1
1
1
1
1
1.00719
1
1
1
1
1
1
1
1
1
1.00917
1
1
1
1
1
1
1
1
1
1.01015
1
1
1
1
1
1
1
1
1
1.01172
1
1
1
1
1
1
1
1
1
1.01308
1
1
1
1
1
1
1
1
1
1.01367
1
1
1
1
1
1
1
1
1
1.01339
1
1
1
1
1
1
1
1
1
1.01313
1
1
1
1
1
1
1
1
1
1.01348
1
1
1
1
1
1
1
1
1
1.01391
1
1
1
1
1
1
1
1
1
1.01421
1.00113
1.00124
1.00139
1.00159
1.00184
1.00216
1.00256
1.00311
1.00376
1.00468
1.00152
1.00167
1.00187
1.00212
1.00244
1.00284
1.00333
1.00397
1.00499
1.00484
1.00208
1.00227
1.00254
1.00286
1.00325
1.00373
1.00431
1.005
1.00602
1.01348
1.00271
1.00298
1.00331
1.00373
1.00421
1.00479
1.00555
1.00635
1.00794
1.39783
1.00362
1.00391
1.00428
1.00473
1.00533
1.00601
1.00693
1.00786
1.01179
2.66275
1.00475
1.00513
1.00563
1.00624
1.00692
1.00784
1.0087
1.00989
1.05593
4.15403
1.00581
1.00635
1.00697
1.00779
1.00862
1.00978
1.01077
1.01308
1.68519
5.3931
1.0076
1.00809
1.00867
1.00939
1.0103
1.01127
1.01238
1.03389
3.63557
6.01762
1.00966
1.01025
1.011
1.01178
1.01281
1.01374
1.01609
1.57345
5.49047
6.23123
1.01149
1.01236
1.01335
1.01462
1.01603
1.01736
1.0362
3.76209
6.34954
6.21042
1.01398
1.01483
1.01576
1.01701
1.01836
1.02099
1.72836
5.91027
6.55991
6.22108
1.01616
1.01729
1.01889
1.02022
1.02168
1.06108
4.39466
6.79344
6.60403
6.23961
1.01897
1.02055
1.02267
1.02497
1.02854
2.27734
6.4876
6.88849
6.62137
6.24749
1.02083
1.02239
1.02405
1.02707
1.34004
5.46832
7.10944
6.93474
6.6056
6.225
1.02304
1.02485
1.02676
1.0328
3.99452
7.03245
7.11129
6.94656
6.58366
6.17332
1.02322
1.02589
1.02943
2.00992
6.73292
7.41595
7.19852
6.99921
6.61219
6.13368
1.02245
1.02512
1.36808
5.67259
7.63348
7.40768
7.23996
7.02075
6.65757
6.07753
1.022
1.09463
4.48908
7.68159
7.57587
7.48704
7.30244
7.10356
6.7707
6.10953
1.03967
3.33409
7.4225
7.36889
7.40402
7.42127
7.30432
7.13216
6.8152
6.15405
2.14707
7.61772
9.79568
8.3888
7.78451
7.53888
7.37596
7.20301
6.91125
6.36229
3.52498
3.93359
3.04459
2.29509
1.69317
1.34344
1.53147
2.56383
3.52009
3.61651
3.7875
3.93133
2.91281
2.15302
1.60218
1.29295
1.45162
2.62476
3.56373
3.67147
4.15229
3.8806
2.74891
2.01481
1.50804
1.24467
1.39527
2.65859
3.60754
3.71495
4.54185
3.75294
2.59618
1.87587
1.41972
1.20037
1.3588
2.65839
3.63532
3.76077
4.76037
3.60358
2.45061
1.73247
1.32947
1.1598
1.33922
2.6504
3.65582
3.8007
4.82123
3.41466
2.29731
1.60191
1.25141
1.13549
1.33034
2.6065
3.64134
3.82705
4.92435
3.24582
2.17078
1.46937
1.17585
1.11892
1.3577
2.53249
3.61652
3.84153
4.81187
3.0577
2.02836
1.33974
1.13646
1.11269
1.39308
2.44233
3.56912
3.81604
4.70796
2.87827
1.88287
1.21298
1.10705
1.11752
1.44036
2.34581
3.50722
3.78928
4.60128
2.69641
1.74422
1.10818
1.07899
1.12666
1.49105
2.2546
3.42474
3.75506
4.46621
2.50538
1.58405
1.04363
1.05069
1.13983
1.53604
2.17893
3.33099
3.7192
4.31068
2.31323
1.44156
1.00675
1.01242
1.15309
1.57584
2.12878
3.22566
3.67286
4.11887
2.1007
1.29676
0.97596
0.990576
1.18715
1.61048
2.09801
3.11953
3.62378
3.87049
1.88712
1.17569
0.949626
0.974379
1.21976
1.64368
2.08134
3.01054
3.57173
3.59451
1.69216
1.07581
0.939836
0.973361
1.2539
1.6887
2.07704
2.89545
3.51555
3.31433
1.48695
0.998102
0.936568
0.983391
1.2762
1.74128
2.08503
2.78002
3.44661
2.96899
1.30444
0.955934
0.930654
1.00348
1.30734
1.79019
2.09946
2.6755
3.36818
2.59371
1.1356
0.935239
0.935775
1.02869
1.34135
1.82467
2.11481
2.58766
3.29189
2.16041
1.01069
0.926894
0.947866
1.05363
1.37881
1.85089
2.1322
2.51125
3.22946
1.57842
0.956397
0.944702
0.970297
1.07731
1.4038
1.86213
2.14727
2.4478
3.18339
1.00001
0.999899
1.002
1.70867
6.7832
6.65861
5.36046
4.20207
3.4185
2.49907
1.00001
0.999887
1.00209
1.63035
6.79198
6.6893
5.37056
4.20054
3.4671
2.55442
1.00001
0.999871
1.00224
1.54576
6.73136
6.74073
5.37055
4.20006
3.40682
2.4787
1.00001
0.999854
1.00242
1.60172
6.67046
6.74308
5.34682
4.19564
3.39406
2.45824
1.00001
0.999837
1.00367
1.64913
6.51149
6.67046
5.31136
4.18219
3.37515
2.43812
1.00001
0.999821
1.00827
1.66252
6.38849
6.45481
5.24487
4.15457
3.34639
2.41147
1
0.999858
1.02548
1.73707
6.15755
6.23114
5.15739
4.11145
3.3063
2.38433
1
0.999955
1.08229
2.03307
5.86995
6.04045
5.05196
4.04763
3.2565
2.35522
1
1.00016
1.24087
2.45335
5.34784
5.8387
4.92791
3.9758
3.2027
2.32999
1
1.00087
1.55934
2.81776
4.70095
5.56462
4.76634
3.89213
3.14403
2.30967
0.999985
1.00486
1.98566
3.1161
4.05028
5.17345
4.57256
3.79921
3.08401
2.29314
0.999926
1.02753
2.41226
3.36293
3.55244
4.64784
4.33068
3.69597
3.01495
2.28248
0.999825
1.14446
2.78712
3.51821
3.30294
4.01161
4.07633
3.58578
2.94807
2.283
0.999685
1.47476
3.15661
3.55908
3.10887
3.42221
3.81114
3.45919
2.87889
2.30032
0.999579
1.98315
3.4668
3.43821
2.86394
2.86559
3.54832
3.31592
2.81341
2.33638
1.00275
2.52701
3.60191
3.32533
2.61011
2.39548
3.27371
3.11156
2.73739
2.46252
1.1314
2.98886
3.66969
3.21811
2.40862
2.01334
2.91505
2.89486
2.67414
2.71149
1.54684
3.45494
3.59868
3.0423
2.231
1.75166
2.48652
2.7089
2.67458
3.02348
2.27431
3.75125
3.38627
2.77807
2.04661
1.57048
2.06915
2.53899
2.92649
3.36779
2.98412
3.8769
3.19935
2.50142
1.8473
1.43383
1.721
2.45364
3.34839
3.54722
2.98501
3.87735
3.19964
2.50147
1.84727
1.43384
1.72103
2.45401
3.34844
3.54835
2.27468
3.75172
3.38659
2.7782
2.04662
1.57048
2.06908
2.5393
2.92687
3.36873
1.54704
3.45558
3.59891
3.04243
2.23099
1.7516
2.48652
2.7093
2.67469
3.02344
1.13157
2.98951
3.6701
3.21829
2.40856
2.01319
2.91515
2.89512
2.67429
2.71119
1.00276
2.52763
3.60243
3.32541
2.60992
2.39534
3.27396
3.11175
2.73752
2.46248
0.999575
1.98386
3.46759
3.43819
2.86378
2.8655
3.54862
3.3161
2.81354
2.33648
0.999682
1.47539
3.15766
3.55926
3.10877
3.42219
3.81134
3.45935
2.87901
2.30045
0.999823
1.1448
2.7881
3.51876
3.30287
4.01159
4.07647
3.58596
2.94822
2.28314
0.999925
1.02761
2.4133
3.36335
3.55232
4.64786
4.3308
3.69612
3.0151
2.28261
0.999984
1.00487
1.98672
3.11672
4.05
5.17354
4.57263
3.79929
3.08415
2.29328
0.999999
1.00087
1.56031
2.81878
4.70076
5.56461
4.7663
3.89213
3.14413
2.3098
1
1.00016
1.24154
2.45474
5.34802
5.83869
4.92779
3.97575
3.20279
2.33012
1
0.999954
1.0826
2.03452
5.871
6.04033
5.05182
4.04761
3.25659
2.35534
1
0.999857
1.0256
1.73814
6.15936
6.23094
5.15726
4.11149
3.30641
2.38443
1.00001
0.999821
1.00831
1.66328
6.39057
6.4547
5.24478
4.15466
3.3465
2.41157
1.00001
0.999836
1.00368
1.64998
6.51389
6.67045
5.31131
4.1823
3.37525
2.4382
1.00001
0.999853
1.00243
1.60268
6.67285
6.74307
5.34679
4.19572
3.39413
2.45832
1.00001
0.999871
1.00225
1.54678
6.73373
6.74082
5.37045
4.20008
3.40685
2.47876
1.00001
0.999887
1.0021
1.63136
6.79424
6.68968
5.37055
4.20053
3.46716
2.55449
1.00001
0.999898
1.00201
1.70976
6.78547
6.65898
5.36047
4.20206
3.41849
2.49913
1.00078
1.00086
1.00098
1.00112
1.00131
1.00153
1.00185
1.00222
1.00276
1.00339
1.00048
1.00053
1.00061
1.0007
1.00083
1.00097
1.00118
1.0014
1.00181
1.00209
1.0003
1.00033
1.00037
1.00043
1.0005
1.00059
1.00072
1.00085
1.00111
1.00129
1.00019
1.00021
1.00023
1.00026
1.0003
1.00036
1.00042
1.00051
1.00064
1.00077
1.00011
1.00013
1.00014
1.00016
1.00018
1.00022
1.00025
1.00031
1.00038
1.00045
1.00007
1.00008
1.00009
1.0001
1.00011
1.00014
1.00016
1.00019
1.00023
1.00032
1.00004
1.00005
1.00005
1.00006
1.00007
1.00008
1.0001
1.00012
1.00014
1.00021
1.00003
1.00003
1.00003
1.00004
1.00004
1.00005
1.00006
1.00007
1.00009
1.00013
1.00002
1.00002
1.00002
1.00002
1.00003
1.00003
1.00004
1.00005
1.00005
1.00008
1.00001
1.00001
1.00001
1.00001
1.00002
1.00002
1.00002
1.00003
1.00003
1.00005
1.00001
1.00001
1.00001
1.00001
1.00001
1.00001
1.00001
1.00002
1.00002
1.00003
1
1
1
1.00001
1.00001
1.00001
1.00001
1.00001
1.00001
1.00002
1
1
1
1
1
1
1.00001
1.00001
1.00001
1.00001
1
1
1
1
1
1
1
1
1
1.00001
1
1
1
1
1
1
1
1
1
1
1
1
1
1
1
1
1
1
1
1
1
1
1
1
1
1
1
1
1
1
1
1
1
1
1
1
1
1
1
1
1
1
1
1
1
1
1
1
1
1
1
1
1
1
1
1
1
1
1
1
1
1
1
1
1
1
1
1
1
1.00045
1
1
1
1
1
1
1
1
1
1.00027
1
1
1
1
1
1
1
1
1
1.00018
1
1
1
1
1
1
1
1
1
1.00011
1
1
1
1
1
1
1
1
1
1.00007
1
1
1
1
1
1
1
1
1
1.00004
1
1
1
1
1
1
1
1
1
1.00002
1
1
1
1
1
1
1
1
1
1.00002
1
1
1
1
1
1
1
1
1
1.00001
1
1
1
1
1
1
1
1
1
1.00001
1
1
1
1
1
1
1
1
1
1
1
1
1
1
1
1
1
1
1
1
1
1
1
1
1
1
1
1
1
1
1
1
1
1
1
1
1
1
1
1
1
1
1
1
1
1
1
1
1
1
1
1
1
1
1
1
1
1
1
1
1
1
1
1
1
1
1
1
1
1
1
1
1
1
1
1
1
1
1
1
1
1
1
1
1
1
1
1
1
1
1
1
1
1
1
1
1
1
1
1
1
1
1
1
1
1
1
1
1
1
1
1
1
1
1
1
1
1
1
1
1
1
1
1
1
1
1
1
1
1
1
1
1
1
1
1
1
1
1
1
1
1
1
1
1
1
1
1
1
1
1
1
1
1
1
1
1
1
1
1
1
1
1
1
1
1
1
1
1
1
1
1
1
1
1
1
1
1
1
1
1
1
1
1
1
1
1
1
1
1
1
1
1
1
1
1
1
1
1
1
1
1
1
1
1
1
1
1
1
1.00001
1
1
1
1
1
1
1
1
1
1.00001
1
1
1
1
1
1
1
1
1
1.00002
1
1
1
1
1
1
1
1
1
1.00002
1
1
1
1
1
1
1
1
1
1.00004
1
1
1
1
1
1
1
1
1
1.00007
1
1
1
1
1
1
1
1
1
1.00011
1
1
1
1
1
1
1
1
1
1.00018
1
1
1
1
1
1
1
1
1
1.00027
1
1
1
1
1
1
1
1
1
1.00045
1
1
1
1
1
1
1
1
1
1
1
1
1
1
1
1
1
1
1
1
1
1
1
1
1
1
1
1
1
1
1
1
1
1
1
1
1
1
1
1
1
1
1
1
1
1
1
1
1
1
1
1
1
1
1
1
1
1
1
1
1
1
1
1
1
1
1
1
1
1.00001
1
1
1
1
1
1
1.00001
1.00001
1.00001
1.00001
1
1
1
1.00001
1.00001
1.00001
1.00001
1.00001
1.00001
1.00002
1.00001
1.00001
1.00001
1.00001
1.00001
1.00001
1.00001
1.00002
1.00002
1.00003
1.00001
1.00001
1.00001
1.00001
1.00002
1.00002
1.00002
1.00003
1.00003
1.00005
1.00002
1.00002
1.00002
1.00002
1.00003
1.00003
1.00004
1.00005
1.00006
1.00008
1.00003
1.00003
1.00003
1.00004
1.00004
1.00005
1.00006
1.00007
1.00009
1.00013
1.00004
1.00005
1.00005
1.00006
1.00007
1.00008
1.0001
1.00012
1.00014
1.00021
1.00007
1.00008
1.00009
1.0001
1.00011
1.00014
1.00016
1.00019
1.00023
1.00032
1.00011
1.00013
1.00014
1.00016
1.00018
1.00022
1.00025
1.00031
1.00038
1.00045
1.00019
1.00021
1.00023
1.00026
1.0003
1.00036
1.00042
1.00051
1.00064
1.00077
1.0003
1.00033
1.00037
1.00043
1.0005
1.00059
1.00072
1.00085
1.00111
1.00129
1.00048
1.00053
1.00061
1.00071
1.00083
1.00097
1.00118
1.0014
1.00181
1.00209
1.00078
1.00086
1.00098
1.00112
1.00131
1.00153
1.00185
1.00222
1.00276
1.00339
)
;

boundaryField
{
    inlet
    {
        type            fixedValue;
        value           uniform 1;
    }
    outlet
    {
        type            zeroGradient;
    }
    triangle
    {
        type            zeroGradient;
    }
    top
    {
        type            symmetryPlane;
    }
    bottom
    {
        type            symmetryPlane;
    }
    defaultFaces
    {
        type            empty;
    }
}


// ************************************************************************* //
