/*--------------------------------*- C++ -*----------------------------------*\
  =========                 |
  \\      /  F ield         | OpenFOAM: The Open Source CFD Toolbox
   \\    /   O peration     | Website:  https://openfoam.org
    \\  /    A nd           | Version:  8
     \\/     M anipulation  |
\*---------------------------------------------------------------------------*/
FoamFile
{
    version     2.0;
    format      ascii;
    class       volScalarField;
    location    "1";
    object      p;
}
// * * * * * * * * * * * * * * * * * * * * * * * * * * * * * * * * * * * * * //

dimensions      [1 -1 -2 0 0 0 0];

internalField   nonuniform List<scalar> 
2600
(
1.01596
0.968346
0.994144
0.998376
1.10366
1.41084
1.85888
2.15608
2.41175
3.15853
1.03606
0.992662
1.02205
1.02222
1.13098
1.4219
1.8632
2.16929
2.37706
3.141
1.02128
1.00278
1.04249
1.04616
1.15826
1.42927
1.86613
2.18126
2.35326
3.1211
0.995321
1.00269
1.04105
1.05597
1.17662
1.43784
1.87259
2.18613
2.33473
3.12131
0.972831
0.979429
1.0221
1.06121
1.18589
1.44969
1.88734
2.18367
2.3164
3.13793
0.962241
0.972438
1.0075
1.05536
1.18635
1.45355
1.9049
2.17855
2.30269
3.14678
0.959725
0.958384
0.994583
1.04592
1.18147
1.47032
1.92574
2.16979
2.29418
3.16469
0.968238
0.946637
0.97976
1.03691
1.17658
1.48902
1.93711
2.16252
2.28309
3.17342
0.981806
0.951216
0.973417
1.02988
1.16511
1.50102
1.94725
2.16963
2.27571
3.18208
0.991801
0.951663
0.973648
1.02909
1.16268
1.51269
1.94897
2.15368
2.27028
3.18809
0.991959
0.951853
0.97351
1.02861
1.16171
1.51163
1.94774
2.15745
2.28332
3.2068
0.982308
0.9515
0.973585
1.03092
1.1639
1.50047
1.94648
2.15987
2.28761
3.20035
0.968952
0.946953
0.978809
1.03557
1.17553
1.4886
1.93303
2.16706
2.28209
3.17442
0.960427
0.958741
0.99387
1.0453
1.18102
1.47162
1.92576
2.17767
2.28789
3.16071
0.962714
0.972695
1.00645
1.05345
1.18636
1.45484
1.90867
2.17875
2.29901
3.14176
0.973082
0.979414
1.02095
1.05919
1.186
1.45159
1.89053
2.18141
2.31774
3.12788
0.995462
1.00275
1.03972
1.05435
1.17538
1.44317
1.87502
2.1826
2.33447
3.13057
1.02127
1.00281
1.04142
1.04433
1.15729
1.4363
1.86212
2.17748
2.3579
3.13501
1.03597
0.99257
1.02149
1.01982
1.13115
1.42353
1.85615
2.16947
2.38462
3.13374
1.01632
0.968109
0.993628
0.995914
1.1024
1.41083
1.85805
2.15972
2.409
3.14727
1.57852
0.956067
0.944186
0.968602
1.076
1.40443
1.86215
2.148
2.44757
3.18137
2.16064
1.01013
0.926215
0.946418
1.05245
1.38047
1.85251
2.13273
2.50985
3.22997
2.59405
1.13507
0.934465
0.93459
1.02784
1.34226
1.82583
2.11436
2.58756
3.29311
2.96932
1.30416
0.955001
0.929673
1.00278
1.30733
1.7902
2.09868
2.67634
3.36897
3.31471
1.48683
0.997591
0.935534
0.982718
1.27593
1.741
2.08466
2.78024
3.44682
3.59482
1.69206
1.07568
0.938948
0.972764
1.25409
1.689
2.07701
2.89514
3.51594
3.8709
1.88705
1.17533
0.949183
0.973951
1.22003
1.64445
2.08111
3.01016
3.57205
4.11913
2.10081
1.29658
0.975649
0.990258
1.18738
1.61116
2.09753
3.11958
3.62368
4.31103
2.313
1.44159
1.00645
1.01214
1.15315
1.57643
2.12846
3.22557
3.67249
4.46649
2.50524
1.58415
1.04336
1.05035
1.13982
1.53654
2.1789
3.33057
3.71906
4.60151
2.69624
1.7442
1.1081
1.07904
1.12663
1.49144
2.25443
3.42432
3.75527
4.70843
2.87819
1.88273
1.21275
1.10727
1.11762
1.4406
2.34552
3.50769
3.78964
4.81219
3.05786
2.02831
1.33948
1.13646
1.11288
1.39313
2.44212
3.56968
3.81632
4.92466
3.24579
2.17081
1.46932
1.17575
1.1191
1.35784
2.53243
3.6173
3.8417
4.82157
3.41482
2.29733
1.6019
1.25121
1.13565
1.33096
2.60666
3.64197
3.8269
4.76066
3.60375
2.45065
1.73262
1.32918
1.1599
1.33948
2.6509
3.65601
3.80039
4.54217
3.75316
2.59614
1.87605
1.41958
1.20053
1.35907
2.65924
3.63523
3.76047
4.15259
3.88079
2.74903
2.01486
1.50787
1.2448
1.39555
2.65954
3.60754
3.71493
3.78753
3.93161
2.91303
2.15308
1.60208
1.29304
1.45184
2.62565
3.56437
3.67169
3.52474
3.93398
3.04489
2.29518
1.69318
1.34348
1.5316
2.56458
3.52109
3.61689
2.14626
7.61583
9.7966
8.3892
7.78465
7.53898
7.37607
7.20316
6.9114
6.36253
1.03957
3.33274
7.42237
7.36886
7.40404
7.42136
7.30442
7.13227
6.81536
6.15429
1.022
1.09448
4.48835
7.68138
7.57599
7.48715
7.30257
7.10366
6.77083
6.10973
1.02245
1.02513
1.36783
5.67201
7.63359
7.40787
7.24013
7.02088
6.65771
6.07772
1.02322
1.02589
1.02942
2.00933
6.73267
7.41619
7.19868
6.99936
6.61232
6.13383
1.02304
1.02484
1.02675
1.03278
3.99391
7.03241
7.11137
6.94669
6.58375
6.17342
1.02083
1.02238
1.02405
1.02706
1.33987
5.4682
7.10959
6.93488
6.60573
6.22514
1.01897
1.02055
1.02267
1.02496
1.02853
2.27719
6.48763
6.88867
6.62153
6.24763
1.01616
1.01729
1.01889
1.02022
1.02167
1.06106
4.39467
6.79362
6.60418
6.23975
1.01398
1.01483
1.01576
1.01701
1.01836
1.02099
1.72839
5.91045
6.56004
6.22115
1.01149
1.01236
1.01335
1.01462
1.01603
1.01735
1.0362
3.76239
6.34963
6.2105
1.00966
1.01025
1.01099
1.01178
1.01281
1.01374
1.01609
1.5736
5.49071
6.23131
1.0076
1.00809
1.00867
1.00939
1.01029
1.01127
1.01238
1.03389
3.63604
6.01777
1.00581
1.00635
1.00697
1.00779
1.00862
1.00978
1.01077
1.01308
1.68548
5.39338
1.00475
1.00513
1.00563
1.00624
1.00692
1.00784
1.0087
1.00989
1.05597
4.15444
1.00362
1.00391
1.00428
1.00473
1.00533
1.00601
1.00693
1.00786
1.01179
2.6633
1.00271
1.00298
1.00331
1.00373
1.00421
1.00479
1.00555
1.00634
1.00794
1.39814
1.00208
1.00227
1.00254
1.00286
1.00325
1.00373
1.00431
1.005
1.00602
1.01352
1.00152
1.00167
1.00187
1.00212
1.00244
1.00284
1.00333
1.00397
1.00499
1.00483
1.00113
1.00124
1.00139
1.00159
1.00184
1.00216
1.00256
1.00311
1.00376
1.00468
1
1
1
1
1
1
1
1
1
1.01421
1
1
1
1
1
1
1
1
1
1.0139
1
1
1
1
1
1
1
1
1
1.01348
1
1
1
1
1
1
1
1
1
1.01313
1
1
1
1
1
1
1
1
1
1.01338
1
1
1
1
1
1
1
1
1
1.01367
1
1
1
1
1
1
1
1
1
1.01308
1
1
1
1
1
1
1
1
1
1.01172
1
1
1
1
1
1
1
1
1
1.01014
1
1
1
1
1
1
1
1
1
1.00917
1
1
1
1
1
1
1
1
1
1.00719
1
1
1
1
1
1
1
1
1
1.00613
1
1
1
1
1
1
1
1
1
1.00493
1
1
1
1
1
1
1
1
1
1.0036
1
1
1
1
1
1
1
1
1
1.00292
1
1
1
1
1
1
1
1
1
1.00224
1
1
1
1
1
1
1
1
1
1.00164
1
1
1
1
1
1
1
1
1
1.00124
1
1
1
1
1
1
1
1
1
1.00091
1
1
1
1
1
1
1
1
1
1.00067
1
1
1
1
1
1
1
1
1
1.00067
1
1
1
1
1
1
1
1
1
1.00091
1
1
1
1
1
1
1
1
1
1.00124
1
1
1
1
1
1
1
1
1
1.00164
1
1
1
1
1
1
1
1
1
1.00224
1
1
1
1
1
1
1
1
1
1.00292
1
1
1
1
1
1
1
1
1
1.0036
1
1
1
1
1
1
1
1
1
1.00493
1
1
1
1
1
1
1
1
1
1.00614
1
1
1
1
1
1
1
1
1
1.00719
1
1
1
1
1
1
1
1
1
1.00917
1
1
1
1
1
1
1
1
1
1.01015
1
1
1
1
1
1
1
1
1
1.01172
1
1
1
1
1
1
1
1
1
1.01308
1
1
1
1
1
1
1
1
1
1.01367
1
1
1
1
1
1
1
1
1
1.01338
1
1
1
1
1
1
1
1
1
1.01313
1
1
1
1
1
1
1
1
1
1.01348
1
1
1
1
1
1
1
1
1
1.01391
1
1
1
1
1
1
1
1
1
1.01421
1.00113
1.00124
1.00139
1.00159
1.00184
1.00216
1.00256
1.00311
1.00376
1.00468
1.00152
1.00167
1.00187
1.00212
1.00244
1.00284
1.00333
1.00397
1.00499
1.00484
1.00208
1.00227
1.00254
1.00286
1.00325
1.00373
1.00431
1.005
1.00602
1.01348
1.00271
1.00298
1.00331
1.00373
1.00421
1.00479
1.00555
1.00635
1.00794
1.39777
1.00362
1.00391
1.00428
1.00473
1.00533
1.00601
1.00693
1.00786
1.01179
2.66264
1.00475
1.00513
1.00563
1.00624
1.00692
1.00784
1.0087
1.00989
1.05592
4.15393
1.00581
1.00635
1.00697
1.00779
1.00862
1.00978
1.01077
1.01308
1.68512
5.39303
1.0076
1.00809
1.00867
1.00939
1.0103
1.01127
1.01238
1.03388
3.63545
6.01761
1.00966
1.01025
1.011
1.01178
1.01281
1.01374
1.01609
1.57338
5.49041
6.23123
1.01149
1.01236
1.01335
1.01462
1.01603
1.01735
1.0362
3.76196
6.34953
6.21042
1.01398
1.01483
1.01576
1.01701
1.01836
1.02099
1.72828
5.91021
6.55992
6.2211
1.01616
1.01729
1.01889
1.02022
1.02168
1.06106
4.39451
6.79342
6.60404
6.23961
1.01897
1.02055
1.02267
1.02497
1.02854
2.27721
6.48754
6.8885
6.62138
6.2475
1.02083
1.02239
1.02405
1.02707
1.33998
5.46819
7.10947
6.93476
6.60561
6.225
1.02304
1.02485
1.02676
1.03279
3.99431
7.0324
7.11128
6.94656
6.58366
6.17332
1.02322
1.02589
1.02942
2.00979
6.73282
7.41598
7.19854
6.99922
6.61219
6.13368
1.02245
1.02512
1.36803
5.67245
7.63349
7.40769
7.23999
7.02077
6.65758
6.07754
1.022
1.0946
4.48894
7.68152
7.57587
7.48704
7.30245
7.10357
6.77071
6.10955
1.03965
3.33383
7.42247
7.36887
7.40401
7.42127
7.30432
7.13216
6.81521
6.15407
2.14692
7.61736
9.79585
8.38887
7.78453
7.53888
7.37596
7.20302
6.91126
6.36231
3.52498
3.93354
3.04456
2.29505
1.69322
1.34347
1.53154
2.56393
3.52179
3.61655
3.78748
3.93129
2.91278
2.15303
1.60224
1.293
1.45174
2.62567
3.56456
3.67063
4.15225
3.88057
2.7489
2.01485
1.50808
1.24476
1.39543
2.65947
3.60709
3.71384
4.54182
3.75289
2.59623
1.87589
1.41976
1.20043
1.35893
2.65832
3.6348
3.76026
4.76034
3.60358
2.4506
1.7325
1.32956
1.15987
1.33914
2.64954
3.65599
3.80151
4.82119
3.41468
2.29727
1.602
1.25149
1.13553
1.32912
2.6052
3.6423
3.82834
4.9243
3.24591
2.1707
1.46948
1.17595
1.11891
1.3578
2.5315
3.61743
3.84252
4.81183
3.05765
2.02838
1.33989
1.1365
1.11267
1.39358
2.44199
3.56803
3.81616
4.70788
2.87827
1.88298
1.21305
1.10697
1.11757
1.4407
2.3464
3.50492
3.7891
4.60127
2.69643
1.74426
1.10819
1.07889
1.1267
1.49088
2.25576
3.42319
3.75415
4.46619
2.50535
1.58404
1.04374
1.05072
1.13969
1.53546
2.17921
3.33205
3.71863
4.31066
2.31319
1.44156
1.00686
1.01248
1.15275
1.57549
2.12808
3.22702
3.67363
4.11891
2.10049
1.29688
0.976085
0.990655
1.18641
1.61031
2.09807
3.11955
3.62508
3.87048
1.88701
1.17588
0.949775
0.974458
1.21889
1.64208
2.08208
3.00958
3.57164
3.59453
1.69203
1.076
0.9401
0.973469
1.25301
1.68597
2.07661
2.89638
3.5143
3.31433
1.4868
0.998377
0.936902
0.983484
1.27595
1.74069
2.08355
2.78223
3.4467
2.96891
1.30438
0.956261
0.93094
1.00338
1.30817
1.79417
2.09943
2.67486
3.37044
2.59358
1.13566
0.935525
0.936047
1.02826
1.34247
1.8297
2.11754
2.58286
3.29206
2.16025
1.01089
0.927166
0.948114
1.05337
1.37752
1.84956
2.13432
2.50997
3.22335
1.57831
0.956588
0.944921
0.970719
1.07808
1.40066
1.85542
2.14556
2.4558
3.17847
1.00001
0.999899
1.002
1.70856
6.78295
6.65857
5.36046
4.20208
3.4185
2.49907
1.00001
0.999887
1.00209
1.63025
6.79176
6.68928
5.37058
4.20054
3.46709
2.55441
1.00001
0.999871
1.00224
1.54566
6.73113
6.74074
5.37057
4.20006
3.40681
2.4787
1.00001
0.999854
1.00241
1.60162
6.67025
6.7431
5.34685
4.19564
3.39406
2.45824
1.00001
0.999837
1.00367
1.64904
6.51126
6.67049
5.31139
4.18219
3.37514
2.43811
1.00001
0.999821
1.00827
1.66245
6.38829
6.45484
5.24489
4.15457
3.34638
2.41147
1
0.999858
1.02547
1.73696
6.15736
6.23117
5.15741
4.11144
3.3063
2.38432
1
0.999955
1.08226
2.03292
5.86983
6.04047
5.05197
4.04763
3.2565
2.35522
1
1.00016
1.2408
2.45322
5.3478
5.83871
4.92792
3.97579
3.2027
2.32998
1
1.00087
1.55926
2.81767
4.70093
5.56463
4.76634
3.89213
3.14402
2.30964
0.999985
1.00486
1.98556
3.11604
4.05027
5.17345
4.57255
3.7992
3.08401
2.29312
0.999926
1.02753
2.41216
3.3629
3.55243
4.64781
4.33066
3.69596
3.01494
2.28247
0.999825
1.14443
2.78703
3.51816
3.30293
4.01155
4.07629
3.58576
2.94806
2.283
0.999685
1.47471
3.15652
3.55907
3.10888
3.42214
3.81107
3.45917
2.87887
2.30033
0.99958
1.98308
3.46674
3.43822
2.86397
2.86554
3.54826
3.3159
2.81338
2.33639
1.00275
2.52695
3.60187
3.32533
2.61016
2.39544
3.27364
3.11154
2.73736
2.46245
1.13138
2.9888
3.66966
3.21809
2.40864
2.01335
2.91501
2.89494
2.6741
2.7112
1.5468
3.45487
3.59866
3.04229
2.23101
1.75167
2.48652
2.70896
2.67448
3.02338
2.27427
3.7512
3.38625
2.77804
2.04659
1.5705
2.06917
2.53888
2.92634
3.36846
2.98408
3.87685
3.19933
2.50142
1.84727
1.43385
1.72104
2.45318
3.34809
3.54807
2.98495
3.87739
3.19969
2.5015
1.84734
1.43384
1.72101
2.45423
3.34866
3.54762
2.27467
3.75174
3.38662
2.77824
2.04666
1.57048
2.06908
2.53929
2.92686
3.36812
1.54704
3.4556
3.59895
3.04246
2.23099
1.75161
2.48652
2.70921
2.67473
3.0236
1.13157
2.98952
3.67014
3.21833
2.40855
2.0132
2.91518
2.89505
2.67431
2.71153
1.00276
2.52763
3.60246
3.32542
2.6099
2.39539
3.27405
3.11179
2.73754
2.46254
0.999575
1.98386
3.46762
3.4382
2.86377
2.86555
3.54871
3.31615
2.81357
2.33647
0.999682
1.4754
3.15771
3.55928
3.10878
3.42227
3.81142
3.45939
2.87903
2.30043
0.999822
1.14481
2.78815
3.5188
3.30289
4.01165
4.07651
3.58597
2.94823
2.28314
0.999925
1.02761
2.41334
3.36338
3.55233
4.64789
4.33081
3.69613
3.01511
2.28263
0.999984
1.00487
1.98677
3.11676
4.05
5.17354
4.57262
3.79928
3.08416
2.2933
0.999999
1.00087
1.56036
2.81885
4.70076
5.56459
4.76628
3.89212
3.14414
2.30983
1
1.00016
1.24158
2.45484
5.34804
5.83866
4.92776
3.97574
3.20279
2.33013
1
0.999954
1.08263
2.03463
5.87108
6.04029
5.05179
4.0476
3.25659
2.35535
1
0.999857
1.02561
1.73822
6.1595
6.2309
5.15723
4.11148
3.3064
2.38444
1.00001
0.999821
1.00832
1.66333
6.39072
6.45466
5.24476
4.15467
3.34651
2.41157
1.00001
0.999836
1.00369
1.65005
6.51408
6.67041
5.31129
4.1823
3.37526
2.4382
1.00001
0.999853
1.00243
1.60276
6.67303
6.74305
5.34677
4.19573
3.39414
2.45832
1.00001
0.99987
1.00225
1.54687
6.73394
6.74082
5.37043
4.20009
3.40686
2.47877
1.00001
0.999887
1.0021
1.63145
6.79445
6.68971
5.37056
4.20053
3.46717
2.5545
1.00001
0.999898
1.00201
1.70986
6.7857
6.65905
5.3605
4.20207
3.4185
2.49913
1.00078
1.00086
1.00098
1.00112
1.00131
1.00153
1.00185
1.00222
1.00276
1.00339
1.00048
1.00053
1.00061
1.0007
1.00083
1.00097
1.00118
1.0014
1.00181
1.00209
1.0003
1.00033
1.00037
1.00043
1.0005
1.00059
1.00072
1.00085
1.00111
1.00129
1.00019
1.00021
1.00023
1.00026
1.0003
1.00036
1.00042
1.00051
1.00064
1.00077
1.00011
1.00013
1.00014
1.00016
1.00018
1.00022
1.00025
1.00031
1.00038
1.00045
1.00007
1.00008
1.00009
1.0001
1.00011
1.00014
1.00016
1.00019
1.00023
1.00032
1.00004
1.00005
1.00005
1.00006
1.00007
1.00008
1.0001
1.00012
1.00014
1.00021
1.00003
1.00003
1.00003
1.00004
1.00004
1.00005
1.00006
1.00007
1.00009
1.00013
1.00002
1.00002
1.00002
1.00002
1.00003
1.00003
1.00004
1.00005
1.00005
1.00008
1.00001
1.00001
1.00001
1.00001
1.00002
1.00002
1.00002
1.00003
1.00003
1.00005
1.00001
1.00001
1.00001
1.00001
1.00001
1.00001
1.00001
1.00002
1.00002
1.00003
1
1
1
1.00001
1.00001
1.00001
1.00001
1.00001
1.00001
1.00002
1
1
1
1
1
1
1.00001
1.00001
1.00001
1.00001
1
1
1
1
1
1
1
1
1
1.00001
1
1
1
1
1
1
1
1
1
1
1
1
1
1
1
1
1
1
1
1
1
1
1
1
1
1
1
1
1
1
1
1
1
1
1
1
1
1
1
1
1
1
1
1
1
1
1
1
1
1
1
1
1
1
1
1
1
1
1
1
1
1
1
1
1
1
1
1
1
1.00045
1
1
1
1
1
1
1
1
1
1.00027
1
1
1
1
1
1
1
1
1
1.00018
1
1
1
1
1
1
1
1
1
1.00011
1
1
1
1
1
1
1
1
1
1.00007
1
1
1
1
1
1
1
1
1
1.00004
1
1
1
1
1
1
1
1
1
1.00002
1
1
1
1
1
1
1
1
1
1.00002
1
1
1
1
1
1
1
1
1
1.00001
1
1
1
1
1
1
1
1
1
1.00001
1
1
1
1
1
1
1
1
1
1
1
1
1
1
1
1
1
1
1
1
1
1
1
1
1
1
1
1
1
1
1
1
1
1
1
1
1
1
1
1
1
1
1
1
1
1
1
1
1
1
1
1
1
1
1
1
1
1
1
1
1
1
1
1
1
1
1
1
1
1
1
1
1
1
1
1
1
1
1
1
1
1
1
1
1
1
1
1
1
1
1
1
1
1
1
1
1
1
1
1
1
1
1
1
1
1
1
1
1
1
1
1
1
1
1
1
1
1
1
1
1
1
1
1
1
1
1
1
1
1
1
1
1
1
1
1
1
1
1
1
1
1
1
1
1
1
1
1
1
1
1
1
1
1
1
1
1
1
1
1
1
1
1
1
1
1
1
1
1
1
1
1
1
1
1
1
1
1
1
1
1
1
1
1
1
1
1
1
1
1
1
1
1
1
1
1
1
1
1
1
1
1
1
1
1
1
1
1
1
1.00001
1
1
1
1
1
1
1
1
1
1.00001
1
1
1
1
1
1
1
1
1
1.00002
1
1
1
1
1
1
1
1
1
1.00002
1
1
1
1
1
1
1
1
1
1.00004
1
1
1
1
1
1
1
1
1
1.00007
1
1
1
1
1
1
1
1
1
1.00011
1
1
1
1
1
1
1
1
1
1.00018
1
1
1
1
1
1
1
1
1
1.00027
1
1
1
1
1
1
1
1
1
1.00045
1
1
1
1
1
1
1
1
1
1
1
1
1
1
1
1
1
1
1
1
1
1
1
1
1
1
1
1
1
1
1
1
1
1
1
1
1
1
1
1
1
1
1
1
1
1
1
1
1
1
1
1
1
1
1
1
1
1
1
1
1
1
1
1
1
1
1
1
1
1.00001
1
1
1
1
1
1
1.00001
1.00001
1.00001
1.00001
1
1
1
1.00001
1.00001
1.00001
1.00001
1.00001
1.00001
1.00002
1.00001
1.00001
1.00001
1.00001
1.00001
1.00001
1.00001
1.00002
1.00002
1.00003
1.00001
1.00001
1.00001
1.00001
1.00002
1.00002
1.00002
1.00003
1.00003
1.00005
1.00002
1.00002
1.00002
1.00002
1.00003
1.00003
1.00004
1.00005
1.00006
1.00008
1.00003
1.00003
1.00003
1.00004
1.00004
1.00005
1.00006
1.00007
1.00009
1.00013
1.00004
1.00005
1.00005
1.00006
1.00007
1.00008
1.0001
1.00012
1.00014
1.00021
1.00007
1.00008
1.00009
1.0001
1.00011
1.00014
1.00016
1.00019
1.00023
1.00032
1.00011
1.00013
1.00014
1.00016
1.00018
1.00022
1.00025
1.00031
1.00038
1.00045
1.00019
1.00021
1.00023
1.00026
1.0003
1.00036
1.00042
1.00051
1.00064
1.00077
1.0003
1.00033
1.00037
1.00043
1.0005
1.00059
1.00072
1.00085
1.00111
1.00129
1.00048
1.00053
1.00061
1.00071
1.00083
1.00097
1.00118
1.0014
1.00181
1.00209
1.00078
1.00086
1.00098
1.00112
1.00131
1.00153
1.00185
1.00222
1.00276
1.00339
)
;

boundaryField
{
    inlet
    {
        type            fixedValue;
        value           uniform 1;
    }
    outlet
    {
        type            zeroGradient;
    }
    triangle
    {
        type            zeroGradient;
    }
    top
    {
        type            symmetryPlane;
    }
    bottom
    {
        type            symmetryPlane;
    }
    defaultFaces
    {
        type            empty;
    }
}


// ************************************************************************* //
