/*--------------------------------*- C++ -*----------------------------------*\
  =========                 |
  \\      /  F ield         | OpenFOAM: The Open Source CFD Toolbox
   \\    /   O peration     | Website:  https://openfoam.org
    \\  /    A nd           | Version:  7
     \\/     M anipulation  |
\*---------------------------------------------------------------------------*/
FoamFile
{
    version     2.0;
    format      ascii;
    class       volScalarField;
    location    "1";
    object      rho;
}
// * * * * * * * * * * * * * * * * * * * * * * * * * * * * * * * * * * * * * //

dimensions      [1 -3 0 0 0 0 0];

internalField   nonuniform List<scalar> 
2600
(
0.824209
0.822188
0.871585
0.890591
0.969538
1.18363
1.44575
1.62262
1.84156
2.57508
0.829804
0.806116
0.848734
0.867586
0.946412
1.14571
1.40181
1.59166
1.79024
2.5279
0.833094
0.798873
0.829702
0.848168
0.926904
1.11294
1.35937
1.55607
1.73745
2.47123
0.843601
0.807072
0.817659
0.835507
0.913761
1.08228
1.3206
1.52314
1.69216
2.39379
0.855004
0.814362
0.812423
0.834007
0.905142
1.05536
1.29212
1.49982
1.66335
2.30316
0.863506
0.832731
0.818146
0.831959
0.894579
1.03412
1.28364
1.4907
1.6447
2.22836
0.867427
0.83819
0.823381
0.827848
0.886022
1.03463
1.29181
1.49406
1.63546
2.18456
0.873733
0.835474
0.819568
0.822667
0.883332
1.0497
1.31038
1.50194
1.63259
2.16815
0.882022
0.838132
0.816214
0.818902
0.880487
1.07113
1.34099
1.51638
1.63649
2.17349
0.887805
0.838113
0.816038
0.818319
0.882824
1.08758
1.35624
1.52421
1.63479
2.17308
0.887918
0.838248
0.816047
0.817905
0.882607
1.08731
1.35775
1.51772
1.63153
2.16457
0.882366
0.838392
0.816345
0.819043
0.880973
1.07196
1.34369
1.51866
1.63215
2.16128
0.874154
0.835698
0.819455
0.82205
0.882644
1.05118
1.3133
1.50051
1.63322
2.16676
0.86775
0.838327
0.823309
0.827747
0.885174
1.03591
1.29253
1.49115
1.63791
2.18943
0.863646
0.832753
0.817861
0.831361
0.893756
1.03534
1.2825
1.49164
1.64548
2.23211
0.85503
0.814214
0.811935
0.833309
0.904129
1.05596
1.29159
1.50097
1.66199
2.30515
0.84359
0.806979
0.81716
0.83496
0.913195
1.08131
1.3212
1.52438
1.69145
2.38568
0.832986
0.79877
0.829223
0.84808
0.925913
1.11226
1.36287
1.55659
1.73337
2.46703
0.829692
0.806088
0.848415
0.867837
0.945263
1.14733
1.40489
1.5897
1.78657
2.53528
0.82425
0.822198
0.871487
0.890441
0.969431
1.18407
1.44449
1.61996
1.8446
2.57924
1.21758
0.850847
0.875473
0.908314
0.995797
1.22912
1.48907
1.64952
1.90476
2.61373
1.65342
0.923867
0.890235
0.927644
1.02118
1.2677
1.53531
1.67654
1.96784
2.65742
1.98805
1.05112
0.917188
0.952215
1.04078
1.29047
1.56955
1.69856
2.03358
2.71061
2.28172
1.21347
0.955655
0.981414
1.05577
1.30679
1.59059
1.72073
2.10548
2.76945
2.56027
1.38671
1.01554
1.01752
1.06982
1.31847
1.59738
1.74607
2.18554
2.83042
2.79475
1.57305
1.10874
1.04593
1.0874
1.33081
1.60007
1.77842
2.27296
2.89064
3.00513
1.74719
1.21949
1.07414
1.11013
1.32913
1.60547
1.81926
2.36583
2.94961
3.18149
1.92605
1.34464
1.11179
1.14326
1.32299
1.61255
1.86678
2.46646
3.00976
3.30813
2.09399
1.48294
1.15024
1.17799
1.30996
1.61093
1.92295
2.5772
3.06754
3.40159
2.2384
1.6094
1.19302
1.22406
1.30977
1.59954
1.99325
2.69331
3.1197
3.47572
2.37379
1.74042
1.25765
1.26054
1.30632
1.57989
2.08164
2.79839
3.15818
3.53138
2.4965
1.84876
1.35508
1.28943
1.30458
1.55393
2.17877
2.88662
3.18855
3.58697
2.61197
1.95616
1.46569
1.31433
1.30399
1.52721
2.27332
2.94756
3.20374
3.65852
2.72602
2.05541
1.57079
1.3457
1.31054
1.50555
2.35314
2.98308
3.21096
3.60099
2.82237
2.13775
1.67184
1.40643
1.32405
1.48519
2.40348
2.98975
3.18962
3.57733
2.93249
2.23452
1.76567
1.46771
1.3421
1.49238
2.42025
2.9864
3.15983
3.47617
3.02565
2.32596
1.86515
1.53674
1.37294
1.50623
2.41299
2.9635
3.12305
3.2394
3.09788
2.42244
1.95898
1.60211
1.40623
1.53216
2.40426
2.93824
3.08415
2.99907
3.12406
2.52435
2.05016
1.6703
1.4424
1.57318
2.37141
2.90328
3.04735
2.81371
3.12592
2.60488
2.14158
1.73456
1.47974
1.63096
2.32088
2.86595
3.00446
2.27222
5.02058
5.63591
5.0134
4.72062
4.5745
4.4676
4.34998
4.18296
3.9219
1.43079
2.82523
4.6848
4.6124
4.59157
4.566
4.47773
4.35096
4.16822
3.8712
1.41633
1.47221
3.35497
4.78101
4.74333
4.69388
4.5747
4.42287
4.2233
3.9423
1.41872
1.4215
1.6673
3.93203
4.86946
4.76146
4.64919
4.49168
4.27429
4.03461
1.42129
1.42411
1.42786
2.10397
4.59803
4.80701
4.68551
4.56007
4.34503
4.1529
1.42223
1.42417
1.42618
1.43183
3.20193
4.63101
4.65267
4.57312
4.39829
4.23469
1.4205
1.42208
1.42377
1.42663
1.66235
3.88358
4.66555
4.59565
4.45143
4.29022
1.41883
1.4204
1.42251
1.4248
1.42832
2.28349
4.4202
4.60238
4.47847
4.30831
1.41605
1.41717
1.41876
1.42008
1.42151
1.45521
3.35186
4.53658
4.46221
4.30151
1.4139
1.41474
1.41567
1.41692
1.41826
1.42088
1.93648
4.12031
4.44758
4.28983
1.41144
1.41231
1.41329
1.41456
1.41597
1.41728
1.43398
3.05541
4.34099
4.28063
1.40963
1.41021
1.41096
1.41175
1.41277
1.4137
1.41604
1.84502
3.94209
4.29558
1.40759
1.40807
1.40865
1.40937
1.41027
1.41125
1.41234
1.43174
3.00844
4.19522
1.4058
1.40635
1.40696
1.40778
1.40861
1.40976
1.41075
1.41305
1.93545
3.91136
1.40475
1.40512
1.40563
1.40623
1.40691
1.40783
1.4087
1.40986
1.45129
3.18799
1.40362
1.40391
1.40428
1.40473
1.40533
1.40601
1.40692
1.40785
1.41175
2.44467
1.40272
1.40299
1.40331
1.40374
1.40421
1.40479
1.40555
1.40634
1.40794
1.73646
1.40208
1.40228
1.40254
1.40286
1.40325
1.40373
1.40431
1.405
1.40602
1.41349
1.40153
1.40167
1.40188
1.40212
1.40244
1.40285
1.40333
1.40397
1.40498
1.40484
1.40113
1.40125
1.4014
1.4016
1.40184
1.40216
1.40256
1.40312
1.40376
1.40467
1.40001
1.40001
1.40001
1.40001
1.40001
1.40001
1.40001
1.40001
1.4
1.41002
1.40001
1.40001
1.40001
1.40001
1.40001
1.40001
1.40001
1.40001
1.4
1.40967
1.40001
1.40001
1.40001
1.40001
1.40001
1.40001
1.40001
1.40001
1.4
1.40927
1.40001
1.40001
1.40001
1.40001
1.40001
1.40001
1.40001
1.40001
1.4
1.40999
1.40001
1.40001
1.40001
1.40001
1.40001
1.40001
1.40001
1.40001
1.4
1.41166
1.40001
1.40001
1.40001
1.40001
1.40001
1.40001
1.40001
1.40001
1.4
1.41286
1.40001
1.40001
1.40001
1.40001
1.40001
1.40001
1.40001
1.40001
1.4
1.41277
1.40001
1.40001
1.40001
1.40001
1.40001
1.40001
1.40001
1.40001
1.4
1.41163
1.40001
1.40001
1.40001
1.40001
1.40001
1.40001
1.40001
1.40001
1.4
1.41009
1.40001
1.40001
1.40001
1.40001
1.40001
1.40001
1.40001
1.40001
1.4
1.40913
1.40001
1.40001
1.40001
1.40001
1.40001
1.40001
1.40001
1.40001
1.4
1.40716
1.40001
1.40001
1.40001
1.40001
1.40001
1.40001
1.40001
1.40001
1.4
1.40612
1.40001
1.40001
1.40001
1.40001
1.40001
1.40001
1.40001
1.40001
1.4
1.40492
1.40001
1.40001
1.40001
1.40001
1.40001
1.40001
1.40001
1.40001
1.4
1.40359
1.40001
1.40001
1.40001
1.40001
1.40001
1.40001
1.40001
1.40001
1.4
1.40292
1.40001
1.40001
1.40001
1.40001
1.40001
1.40001
1.40001
1.40001
1.4
1.40225
1.40001
1.40001
1.40001
1.40001
1.40001
1.40001
1.40001
1.40001
1.4
1.40164
1.40001
1.40001
1.40001
1.40001
1.40001
1.40001
1.40001
1.40001
1.4
1.40125
1.40001
1.40001
1.40001
1.40001
1.40001
1.40001
1.40001
1.40001
1.4
1.40092
1.40001
1.40001
1.40001
1.40001
1.40001
1.40001
1.40001
1.40001
1.4
1.40068
1.40001
1.40001
1.40001
1.40001
1.40001
1.40001
1.40001
1.40001
1.4
1.40068
1.40001
1.40001
1.40001
1.40001
1.40001
1.40001
1.40001
1.40001
1.4
1.40092
1.40001
1.40001
1.40001
1.40001
1.40001
1.40001
1.40001
1.40001
1.4
1.40125
1.40001
1.40001
1.40001
1.40001
1.40001
1.40001
1.40001
1.40001
1.4
1.40164
1.40001
1.40001
1.40001
1.40001
1.40001
1.40001
1.40001
1.40001
1.4
1.40225
1.40001
1.40001
1.40001
1.40001
1.40001
1.40001
1.40001
1.40001
1.4
1.40292
1.40001
1.40001
1.40001
1.40001
1.40001
1.40001
1.40001
1.40001
1.4
1.40359
1.40001
1.40001
1.40001
1.40001
1.40001
1.40001
1.40001
1.40001
1.4
1.40492
1.40001
1.40001
1.40001
1.40001
1.40001
1.40001
1.40001
1.40001
1.4
1.40612
1.40001
1.40001
1.40001
1.40001
1.40001
1.40001
1.40001
1.40001
1.4
1.40716
1.40001
1.40001
1.40001
1.40001
1.40001
1.40001
1.40001
1.40001
1.4
1.40913
1.40001
1.40001
1.40001
1.40001
1.40001
1.40001
1.40001
1.40001
1.4
1.41009
1.40001
1.40001
1.40001
1.40001
1.40001
1.40001
1.40001
1.40001
1.4
1.41163
1.40001
1.40001
1.40001
1.40001
1.40001
1.40001
1.40001
1.40001
1.4
1.41277
1.40001
1.40001
1.40001
1.40001
1.40001
1.40001
1.40001
1.40001
1.4
1.41286
1.40001
1.40001
1.40001
1.40001
1.40001
1.40001
1.40001
1.40001
1.4
1.41166
1.40001
1.40001
1.40001
1.40001
1.40001
1.40001
1.40001
1.40001
1.4
1.40999
1.40001
1.40001
1.40001
1.40001
1.40001
1.40001
1.40001
1.40001
1.4
1.40927
1.40001
1.40001
1.40001
1.40001
1.40001
1.40001
1.40001
1.40001
1.4
1.40967
1.40001
1.40001
1.40001
1.40001
1.40001
1.40001
1.40001
1.40001
1.4
1.41002
1.40113
1.40125
1.4014
1.4016
1.40184
1.40216
1.40256
1.40312
1.40376
1.40467
1.40153
1.40167
1.40188
1.40212
1.40244
1.40285
1.40333
1.40397
1.40498
1.40484
1.40208
1.40228
1.40254
1.40286
1.40325
1.40373
1.40431
1.405
1.40602
1.41345
1.40272
1.40299
1.40331
1.40374
1.40421
1.40479
1.40555
1.40634
1.40794
1.7362
1.40362
1.40391
1.40428
1.40473
1.40533
1.40601
1.40692
1.40785
1.41175
2.44436
1.40475
1.40512
1.40563
1.40624
1.40691
1.40783
1.4087
1.40986
1.45125
3.18774
1.4058
1.40635
1.40697
1.40779
1.40861
1.40976
1.41075
1.41305
1.93522
3.91119
1.40759
1.40807
1.40865
1.40937
1.41027
1.41125
1.41234
1.43173
3.00819
4.19517
1.40963
1.41022
1.41096
1.41175
1.41277
1.4137
1.41604
1.84489
3.94195
4.29556
1.41144
1.41231
1.41329
1.41456
1.41597
1.41728
1.43398
3.05524
4.34096
4.28061
1.4139
1.41474
1.41567
1.41692
1.41826
1.42088
1.93643
4.12021
4.44754
4.28982
1.41605
1.41718
1.41877
1.42008
1.42151
1.45522
3.35183
4.53652
4.46217
4.30147
1.41884
1.42041
1.42251
1.4248
1.42833
2.28355
4.4202
4.60233
4.47843
4.30827
1.42051
1.42208
1.42378
1.42663
1.66245
3.88364
4.66552
4.59561
4.4514
4.29018
1.42224
1.42417
1.42618
1.43184
3.2022
4.63101
4.65263
4.57306
4.39826
4.23467
1.42129
1.42411
1.42786
2.10437
4.59826
4.80689
4.68541
4.55997
4.34495
4.15283
1.41872
1.42149
1.66746
3.93241
4.86948
4.76138
4.64907
4.49153
4.27415
4.03448
1.41633
1.47232
3.35532
4.78112
4.74329
4.6938
4.57456
4.4227
4.22314
3.94213
1.43088
2.82587
4.68475
4.61235
4.59149
4.56588
4.47757
4.35078
4.16803
3.87101
2.27263
5.02115
5.63534
5.01311
4.72046
4.57434
4.46743
4.34979
4.18278
3.92169
2.81384
3.12577
2.60475
2.14161
1.73456
1.47972
1.63087
2.32018
2.86451
3.00433
2.99904
3.12395
2.52426
2.05019
1.67037
1.44232
1.57295
2.37028
2.90238
3.04782
3.23922
3.09783
2.42241
1.95899
1.60226
1.40611
1.53184
2.40312
2.93842
3.08495
3.47604
3.02559
2.32596
1.86507
1.53687
1.37279
1.50592
2.41251
2.96384
3.12363
3.57721
2.93243
2.23451
1.7656
1.46793
1.34197
1.4922
2.42032
2.98637
3.1597
3.60082
2.82227
2.13778
1.67183
1.40659
1.32388
1.48543
2.40398
2.98916
3.18917
3.65838
2.72599
2.05545
1.57079
1.34574
1.31036
1.50519
2.35381
2.98251
3.21046
3.58685
2.61191
1.95618
1.46583
1.31432
1.30379
1.52661
2.27398
2.94804
3.20369
3.53122
2.49655
1.84876
1.35527
1.2893
1.30437
1.55328
2.17893
2.88819
3.18876
3.47564
2.37387
1.74038
1.25777
1.26053
1.30618
1.57955
2.08114
2.80015
3.15898
3.40149
2.2385
1.6093
1.19315
1.22429
1.30972
1.59945
1.99314
2.69342
3.12052
3.30799
2.09414
1.48287
1.15038
1.17816
1.30998
1.61062
1.92354
2.57693
3.06773
3.18136
1.92608
1.34462
1.11193
1.14344
1.32323
1.61201
1.86687
2.46676
3.00937
3.00495
1.74725
1.21952
1.07437
1.11038
1.32952
1.60589
1.81878
2.36689
2.94971
2.7946
1.5731
1.10863
1.04637
1.08773
1.33133
1.60155
1.77859
2.2729
2.89138
2.56009
1.38675
1.01569
1.01795
1.07017
1.31894
1.59792
1.74712
2.18434
2.83047
2.28159
1.21352
0.956051
0.981813
1.0562
1.30633
1.58815
1.72114
2.10548
2.76779
1.98792
1.05122
0.917511
0.95274
1.04149
1.28885
1.56564
1.6972
2.03651
2.70957
1.65334
0.923935
0.890485
0.92831
1.02194
1.26663
1.53468
1.67501
1.96964
2.66057
1.21754
0.850848
0.87559
0.9089
0.995856
1.22988
1.49243
1.65011
1.90082
2.61818
1.40001
1.3999
1.40201
1.86634
4.52208
4.48782
3.89435
3.3392
2.95834
2.46265
1.40001
1.39989
1.4021
1.84762
4.57608
4.53013
3.90177
3.33461
2.98687
2.50154
1.40001
1.39988
1.40225
1.86784
4.66692
4.61978
3.91064
3.32663
2.94458
2.44721
1.40001
1.39986
1.40241
1.94891
4.74116
4.68671
3.91766
3.31686
2.92702
2.42845
1.40001
1.39984
1.40366
1.98687
4.70396
4.69983
3.9218
3.30352
2.90341
2.40837
1.40001
1.39983
1.40831
1.97858
4.64832
4.61334
3.89466
3.2784
2.8709
2.38134
1.40001
1.39986
1.42583
2.02187
4.54603
4.48017
3.83463
3.2377
2.82759
2.3512
1.40001
1.39996
1.48323
2.24873
4.43774
4.33821
3.75362
3.18179
2.77562
2.31657
1.40001
1.40016
1.63468
2.53662
4.17706
4.18282
3.66329
3.12279
2.72071
2.28214
1.4
1.40088
1.90207
2.74047
3.78098
4.01424
3.55567
3.0585
2.66353
2.24947
1.39999
1.40491
2.20573
2.87779
3.3561
3.79401
3.43667
2.99078
2.60713
2.21894
1.39993
1.42806
2.48552
2.97968
3.02145
3.50798
3.29703
2.92056
2.54816
2.19334
1.39983
1.54354
2.72033
3.02381
2.84351
3.18908
3.15094
2.85385
2.49485
2.17807
1.39971
1.83088
2.90401
3.0242
2.70467
2.86282
3.0078
2.78582
2.4455
2.17807
1.39962
2.17479
3.00271
2.92906
2.53344
2.51817
2.8624
2.7093
2.40296
2.19166
1.40319
2.48558
3.02222
2.83134
2.3599
2.20318
2.70081
2.59283
2.35412
2.26609
1.53276
2.74567
3.0301
2.73825
2.217
1.94367
2.48594
2.46345
2.31545
2.41723
1.87336
2.95025
2.95016
2.60767
2.09456
1.76552
2.23441
2.35163
2.32978
2.59529
2.23419
3.02708
2.80925
2.43978
1.97315
1.64108
1.98487
2.26263
2.49248
2.80638
2.5162
3.0869
2.69625
2.27101
1.84115
1.54545
1.76215
2.24155
2.75334
2.94476
2.51673
3.08712
2.69639
2.27099
1.84109
1.5454
1.76212
2.24175
2.75331
2.94543
2.23434
3.02727
2.80937
2.4398
1.9731
1.64101
1.98474
2.26279
2.49269
2.80696
1.87348
2.95049
2.95027
2.60768
2.09447
1.7654
2.23432
2.35184
2.32983
2.5953
1.53294
2.74601
3.03029
2.73827
2.21685
1.94348
2.48591
2.46353
2.31551
2.41705
1.4032
2.48592
3.02242
2.83127
2.35965
2.20298
2.70085
2.59286
2.35416
2.26605
1.39962
2.17523
3.00297
2.92893
2.53316
2.51796
2.86245
2.70932
2.403
2.19171
1.39971
1.83139
2.9045
3.02413
2.70444
2.86264
3.0078
2.78583
2.44554
2.17814
1.39983
1.54387
2.72089
3.02402
2.84331
3.18891
3.1509
2.85388
2.4949
2.17815
1.39993
1.42813
2.48615
2.97976
3.02121
3.50784
3.29698
2.92058
2.54821
2.19342
1.39999
1.40493
2.2064
2.87797
3.35571
3.79391
3.43661
2.99076
2.60717
2.21902
1.4
1.40088
1.90278
2.74094
3.78059
4.01408
3.55554
3.05842
2.66356
2.24955
1.40001
1.40016
1.63529
2.53748
4.17686
4.18264
3.66311
3.12269
2.72073
2.28221
1.40001
1.39996
1.48354
2.24983
4.43809
4.33803
3.75342
3.18171
2.77565
2.31664
1.40001
1.39986
1.42595
2.02277
4.54688
4.48002
3.83442
3.23765
2.82763
2.35127
1.40001
1.39983
1.40835
1.97922
4.64934
4.61327
3.89448
3.2784
2.87095
2.3814
1.40001
1.39984
1.40368
1.98757
4.70511
4.69982
3.92165
3.30354
2.90346
2.40842
1.40001
1.39986
1.40242
1.9497
4.74225
4.68671
3.91755
3.31689
2.92706
2.4285
1.40001
1.39988
1.40225
1.86863
4.66801
4.61981
3.91054
3.32664
2.94459
2.44725
1.40001
1.39989
1.4021
1.84831
4.57711
4.53026
3.90175
3.33461
2.9869
2.50158
1.40001
1.3999
1.40201
1.86707
4.52313
4.48796
3.89435
3.33919
2.95833
2.46269
1.40078
1.40087
1.40099
1.40113
1.40132
1.40153
1.40185
1.40222
1.40276
1.40339
1.40048
1.40054
1.40062
1.40071
1.40084
1.40097
1.40119
1.4014
1.40182
1.4021
1.4003
1.40034
1.40038
1.40043
1.40051
1.40059
1.40072
1.40086
1.40111
1.40129
1.40019
1.40021
1.40023
1.40027
1.40031
1.40036
1.40043
1.40052
1.40065
1.40077
1.40012
1.40013
1.40015
1.40017
1.40019
1.40022
1.40026
1.40031
1.40038
1.40046
1.40008
1.40008
1.40009
1.40011
1.40012
1.40014
1.40016
1.4002
1.40023
1.40032
1.40005
1.40005
1.40006
1.40007
1.40008
1.40009
1.4001
1.40013
1.40015
1.40021
1.40003
1.40003
1.40004
1.40004
1.40005
1.40006
1.40007
1.40008
1.40009
1.40013
1.40002
1.40002
1.40003
1.40003
1.40003
1.40004
1.40004
1.40005
1.40006
1.40009
1.40001
1.40002
1.40002
1.40002
1.40002
1.40002
1.40003
1.40003
1.40004
1.40005
1.40001
1.40001
1.40001
1.40001
1.40001
1.40002
1.40002
1.40002
1.40003
1.40003
1.40001
1.40001
1.40001
1.40001
1.40001
1.40001
1.40001
1.40002
1.40002
1.40002
1.40001
1.40001
1.40001
1.40001
1.40001
1.40001
1.40001
1.40001
1.40001
1.40002
1.40001
1.40001
1.40001
1.40001
1.40001
1.40001
1.40001
1.40001
1.40001
1.40001
1.40001
1.40001
1.40001
1.40001
1.40001
1.40001
1.40001
1.40001
1.40001
1.40001
1.40001
1.40001
1.40001
1.40001
1.40001
1.40001
1.40001
1.40001
1.40001
1.40001
1.40001
1.40001
1.40001
1.40001
1.40001
1.40001
1.40001
1.40001
1.40001
1.40001
1.40001
1.40001
1.40001
1.40001
1.40001
1.40001
1.40001
1.40001
1.40001
1.40001
1.40001
1.40001
1.40001
1.40001
1.40001
1.40001
1.40001
1.40001
1.40001
1.40001
1.40001
1.40001
1.40001
1.40001
1.40001
1.40001
1.40001
1.40001
1.40001
1.40001
1.40001
1.40001
1.40001
1.40001
1.40001
1.40001
1.40001
1.40001
1.4
1.40045
1.40001
1.40001
1.40001
1.40001
1.40001
1.40001
1.40001
1.40001
1.4
1.40028
1.40001
1.40001
1.40001
1.40001
1.40001
1.40001
1.40001
1.40001
1.4
1.40018
1.40001
1.40001
1.40001
1.40001
1.40001
1.40001
1.40001
1.40001
1.4
1.40011
1.40001
1.40001
1.40001
1.40001
1.40001
1.40001
1.40001
1.40001
1.4
1.40007
1.40001
1.40001
1.40001
1.40001
1.40001
1.40001
1.40001
1.40001
1.4
1.40005
1.40001
1.40001
1.40001
1.40001
1.40001
1.40001
1.40001
1.40001
1.4
1.40003
1.40001
1.40001
1.40001
1.40001
1.40001
1.40001
1.40001
1.40001
1.4
1.40002
1.40001
1.40001
1.40001
1.40001
1.40001
1.40001
1.40001
1.40001
1.4
1.40001
1.40001
1.40001
1.40001
1.40001
1.40001
1.40001
1.40001
1.40001
1.4
1.40001
1.40001
1.40001
1.40001
1.40001
1.40001
1.40001
1.40001
1.40001
1.4
1.40001
1.40001
1.40001
1.40001
1.40001
1.40001
1.40001
1.40001
1.40001
1.4
1.40001
1.40001
1.40001
1.40001
1.40001
1.40001
1.40001
1.40001
1.40001
1.4
1.40001
1.40001
1.40001
1.40001
1.40001
1.40001
1.40001
1.40001
1.40001
1.4
1.40001
1.40001
1.40001
1.40001
1.40001
1.40001
1.40001
1.40001
1.40001
1.40001
1.40001
1.40001
1.40001
1.40001
1.40001
1.40001
1.40001
1.40001
1.40001
1.40001
1.40001
1.40001
1.40001
1.40001
1.40001
1.40001
1.40001
1.40001
1.40001
1.40001
1.40001
1.40001
1.40001
1.40001
1.40001
1.40001
1.40001
1.40001
1.40001
1.40001
1.40001
1.40001
1.40001
1.40001
1.40001
1.40001
1.40001
1.40001
1.40001
1.40001
1.40001
1.40001
1.40001
1.40001
1.40001
1.40001
1.40001
1.40001
1.40001
1.40001
1.40001
1.40001
1.40001
1.40001
1.40001
1.40001
1.40001
1.40001
1.40001
1.40001
1.40001
1.40001
1.40001
1.40001
1.40001
1.40001
1.40001
1.40001
1.40001
1.40001
1.40001
1.40001
1.40001
1.40001
1.40001
1.40001
1.40001
1.40001
1.40001
1.40001
1.40001
1.40001
1.40001
1.40001
1.40001
1.40001
1.40001
1.40001
1.40001
1.40001
1.40001
1.40001
1.40001
1.40001
1.40001
1.40001
1.40001
1.40001
1.40001
1.40001
1.40001
1.40001
1.40001
1.40001
1.40001
1.40001
1.40001
1.40001
1.40001
1.40001
1.40001
1.40001
1.40001
1.40001
1.40001
1.40001
1.40001
1.40001
1.40001
1.4
1.40001
1.40001
1.40001
1.40001
1.40001
1.40001
1.40001
1.40001
1.40001
1.4
1.40001
1.40001
1.40001
1.40001
1.40001
1.40001
1.40001
1.40001
1.40001
1.4
1.40001
1.40001
1.40001
1.40001
1.40001
1.40001
1.40001
1.40001
1.40001
1.4
1.40001
1.40001
1.40001
1.40001
1.40001
1.40001
1.40001
1.40001
1.40001
1.4
1.40001
1.40001
1.40001
1.40001
1.40001
1.40001
1.40001
1.40001
1.40001
1.4
1.40001
1.40001
1.40001
1.40001
1.40001
1.40001
1.40001
1.40001
1.40001
1.4
1.40002
1.40001
1.40001
1.40001
1.40001
1.40001
1.40001
1.40001
1.40001
1.4
1.40003
1.40001
1.40001
1.40001
1.40001
1.40001
1.40001
1.40001
1.40001
1.4
1.40005
1.40001
1.40001
1.40001
1.40001
1.40001
1.40001
1.40001
1.40001
1.4
1.40007
1.40001
1.40001
1.40001
1.40001
1.40001
1.40001
1.40001
1.40001
1.4
1.40011
1.40001
1.40001
1.40001
1.40001
1.40001
1.40001
1.40001
1.40001
1.4
1.40018
1.40001
1.40001
1.40001
1.40001
1.40001
1.40001
1.40001
1.40001
1.4
1.40028
1.40001
1.40001
1.40001
1.40001
1.40001
1.40001
1.40001
1.40001
1.4
1.40045
1.40001
1.40001
1.40001
1.40001
1.40001
1.40001
1.40001
1.40001
1.40001
1.40001
1.40001
1.40001
1.40001
1.40001
1.40001
1.40001
1.40001
1.40001
1.40001
1.40001
1.40001
1.40001
1.40001
1.40001
1.40001
1.40001
1.40001
1.40001
1.40001
1.40001
1.40001
1.40001
1.40001
1.40001
1.40001
1.40001
1.40001
1.40001
1.40001
1.40001
1.40001
1.40001
1.40001
1.40001
1.40001
1.40001
1.40001
1.40001
1.40001
1.40001
1.40001
1.40001
1.40001
1.40001
1.40001
1.40001
1.40001
1.40001
1.40001
1.40001
1.40001
1.40001
1.40001
1.40001
1.40001
1.40001
1.40001
1.40001
1.40001
1.40001
1.40001
1.40001
1.40001
1.40001
1.40001
1.40001
1.40001
1.40001
1.40001
1.40002
1.40001
1.40001
1.40001
1.40001
1.40001
1.40001
1.40001
1.40002
1.40002
1.40002
1.40001
1.40001
1.40001
1.40001
1.40001
1.40002
1.40002
1.40002
1.40003
1.40003
1.40001
1.40002
1.40002
1.40002
1.40002
1.40002
1.40003
1.40003
1.40004
1.40005
1.40002
1.40002
1.40003
1.40003
1.40003
1.40004
1.40004
1.40005
1.40006
1.40009
1.40003
1.40003
1.40004
1.40004
1.40005
1.40006
1.40007
1.40008
1.40009
1.40013
1.40005
1.40005
1.40006
1.40007
1.40008
1.40009
1.40011
1.40013
1.40015
1.40021
1.40008
1.40008
1.40009
1.40011
1.40012
1.40014
1.40016
1.4002
1.40023
1.40032
1.40012
1.40013
1.40015
1.40017
1.40019
1.40022
1.40026
1.40031
1.40038
1.40046
1.40019
1.40021
1.40023
1.40027
1.40031
1.40036
1.40043
1.40052
1.40065
1.40077
1.4003
1.40034
1.40038
1.40043
1.40051
1.40059
1.40072
1.40086
1.40111
1.40129
1.40048
1.40054
1.40062
1.40071
1.40084
1.40097
1.40119
1.4014
1.40182
1.4021
1.40078
1.40087
1.40099
1.40113
1.40132
1.40153
1.40185
1.40222
1.40276
1.40339
)
;

boundaryField
{
    inlet
    {
        type            calculated;
        value           uniform 1.40001;
    }
    outlet
    {
        type            calculated;
        value           nonuniform List<scalar> 
100
(
2.94565
2.80736
2.59602
2.41781
2.2667
2.19222
2.17863
2.17865
2.19395
2.2196
2.25015
2.28285
2.31732
2.35195
2.38206
2.40907
2.42913
2.44785
2.50216
2.46328
2.61539
2.6591
2.71231
2.77114
2.83203
2.89202
2.95072
3.01069
3.06834
3.12044
3.15882
3.18911
3.20421
3.21135
3.18991
3.16005
3.12314
3.08422
3.04746
3.00463
2.57642
2.52923
2.47245
2.39463
2.30373
2.22896
2.18521
2.1687
2.17405
2.17372
2.16508
2.16184
2.16734
2.18993
2.2327
2.30597
2.38659
2.46795
2.53648
2.58077
3.00452
3.04793
3.08501
3.12371
3.15992
3.18945
3.21084
3.20418
3.18934
3.15961
3.12125
3.06853
3.0103
2.95084
2.89275
2.83205
2.76948
2.71134
2.6623
2.61972
2.46325
2.50211
2.4478
2.42908
2.40901
2.382
2.35188
2.31724
2.28278
2.25007
2.21952
2.19387
2.17856
2.17856
2.19217
2.26674
2.418
2.59601
2.80677
2.94499
)
;
    }
    triangle
    {
        type            calculated;
        value           nonuniform List<scalar> 
40
(
2.27222
5.02058
5.63591
5.0134
4.72062
4.5745
4.4676
4.34998
4.18296
3.9219
0.824209
0.829804
0.833094
0.843601
0.855004
0.863506
0.867427
0.873733
0.882022
0.887805
0.887918
0.882366
0.874154
0.86775
0.863646
0.85503
0.84359
0.832986
0.829692
0.82425
2.27263
5.02115
5.63534
5.01311
4.72046
4.57434
4.46743
4.34979
4.18278
3.92169
)
;
    }
    top
    {
        type            symmetryPlane;
    }
    bottom
    {
        type            symmetryPlane;
    }
    defaultFaces
    {
        type            empty;
    }
}


// ************************************************************************* //
