/*--------------------------------*- C++ -*----------------------------------*\
  =========                 |
  \\      /  F ield         | OpenFOAM: The Open Source CFD Toolbox
   \\    /   O peration     | Website:  https://openfoam.org
    \\  /    A nd           | Version:  8
     \\/     M anipulation  |
\*---------------------------------------------------------------------------*/
FoamFile
{
    version     2.0;
    format      ascii;
    class       volScalarField;
    location    "1";
    object      rho;
}
// * * * * * * * * * * * * * * * * * * * * * * * * * * * * * * * * * * * * * //

dimensions      [1 -3 0 0 0 0 0];

internalField   nonuniform List<scalar> 
2600
(
0.824085
0.822314
0.871634
0.891018
0.969582
1.18374
1.44541
1.62032
1.8439
2.58083
0.829735
0.806197
0.848762
0.86811
0.945528
1.14598
1.40546
1.59073
1.78627
2.53388
0.833056
0.798907
0.829806
0.848403
0.92654
1.11059
1.36233
1.55746
1.73409
2.46516
0.843612
0.807096
0.817801
0.83557
0.913757
1.08046
1.32043
1.5248
1.69193
2.38731
0.854991
0.814353
0.812535
0.834179
0.904606
1.05529
1.29114
1.50118
1.66249
2.30696
0.863467
0.832709
0.818329
0.832191
0.894166
1.03431
1.28199
1.49126
1.6462
2.23137
0.867401
0.838193
0.823561
0.828006
0.885723
1.03462
1.29187
1.4906
1.63827
2.18762
0.873751
0.835529
0.819839
0.822777
0.88315
1.05012
1.31245
1.49998
1.63289
2.16725
0.882084
0.838222
0.816262
0.818718
0.880875
1.0714
1.34209
1.51993
1.63115
2.16327
0.887848
0.838175
0.8161
0.818332
0.883001
1.08752
1.35717
1.5204
1.62964
2.16391
0.88794
0.838296
0.816003
0.818028
0.882529
1.08717
1.35683
1.52192
1.63632
2.17276
0.882375
0.838398
0.816323
0.819267
0.88038
1.07174
1.34242
1.51444
1.63739
2.17167
0.874163
0.835704
0.819267
0.822002
0.882733
1.05062
1.31113
1.50242
1.63277
2.1677
0.867779
0.838364
0.823133
0.827597
0.885536
1.03577
1.2925
1.49484
1.63533
2.18616
0.863684
0.832775
0.817639
0.831029
0.894156
1.03512
1.28415
1.49135
1.6443
2.22918
0.855067
0.814228
0.811788
0.833012
0.904669
1.05601
1.29249
1.49994
1.663
2.30153
0.843617
0.806998
0.817008
0.834782
0.91324
1.08299
1.32126
1.52292
1.69165
2.39195
0.833029
0.798786
0.829155
0.847748
0.926383
1.11445
1.35994
1.55534
1.73648
2.47273
0.829748
0.806034
0.84846
0.867236
0.946175
1.14715
1.40143
1.5907
1.79029
2.52938
0.824367
0.822106
0.871423
0.890029
0.969358
1.18405
1.44479
1.62227
1.84227
2.57374
1.21768
0.85069
0.875328
0.908174
0.995396
1.23053
1.49246
1.65049
1.9005
2.61666
1.65354
0.923668
0.890081
0.927585
1.02143
1.26791
1.53571
1.67538
1.96876
2.66068
1.98817
1.051
0.917028
0.952079
1.0411
1.28964
1.56646
1.69712
2.03647
2.71024
2.2818
1.21346
0.955432
0.981222
1.05582
1.30649
1.58833
1.72091
2.10601
2.76824
2.56029
1.3868
1.01537
1.01727
1.06969
1.31888
1.59793
1.74714
2.18447
2.83054
2.79476
1.57315
1.10864
1.0457
1.08727
1.33156
1.60193
1.77881
2.27271
2.89148
3.00516
1.74728
1.21935
1.07403
1.11006
1.32979
1.60659
1.81885
2.36661
2.94972
3.18147
1.92619
1.34457
1.11171
1.1432
1.32347
1.61264
1.86673
2.46662
3.00911
3.30814
2.09401
1.48295
1.15017
1.17793
1.31007
1.61119
1.92343
2.57663
3.06728
3.40161
2.23842
1.60942
1.19297
1.22403
1.30975
1.59993
1.99316
2.69289
3.12018
3.47573
2.37377
1.74039
1.25768
1.26063
1.30622
1.57991
2.08098
2.79962
3.15888
3.53145
2.49649
1.84869
1.355
1.28952
1.30452
1.5535
2.17861
2.88823
3.1888
3.587
2.61199
1.95616
1.46554
1.31432
1.30399
1.52666
2.2737
2.94818
3.20372
3.65853
2.72595
2.05548
1.57068
1.34563
1.31053
1.50531
2.35366
2.98282
3.21049
3.60099
2.82235
2.13779
1.67177
1.40638
1.32401
1.48592
2.40401
2.98944
3.18902
3.57734
2.9325
2.23453
1.76566
1.46765
1.34204
1.49239
2.42056
2.9864
3.15946
3.47618
3.02569
2.32592
1.86516
1.53671
1.3729
1.5061
2.41298
2.96373
3.1234
3.23938
3.09791
2.42246
1.95898
1.60208
1.40618
1.53203
2.40367
2.93837
3.08488
2.99903
3.1241
2.52437
2.05019
1.67025
1.44236
1.57309
2.37078
2.90274
3.04792
2.81369
3.12596
2.60491
2.14163
1.73452
1.47971
1.63092
2.3206
2.86505
3.00453
2.2722
5.02055
5.63594
5.01341
4.72062
4.5745
4.4676
4.34998
4.18296
3.9219
1.43079
2.8252
4.6848
4.6124
4.59156
4.566
4.47773
4.35096
4.16822
3.8712
1.41633
1.47221
3.35495
4.78099
4.74332
4.69388
4.5747
4.42286
4.2233
3.94229
1.41872
1.4215
1.66729
3.932
4.86945
4.76146
4.64919
4.49168
4.27428
4.03461
1.42128
1.42411
1.42786
2.10394
4.598
4.80701
4.68552
4.56007
4.34503
4.1529
1.42223
1.42417
1.42618
1.43182
3.20189
4.63101
4.65267
4.57311
4.39828
4.23469
1.4205
1.42208
1.42377
1.42663
1.66234
3.88355
4.66555
4.59565
4.45142
4.29021
1.41883
1.4204
1.42251
1.4248
1.42832
2.28345
4.42018
4.60238
4.47847
4.30831
1.41605
1.41717
1.41876
1.42008
1.42151
1.45521
3.35182
4.53657
4.4622
4.30151
1.4139
1.41474
1.41567
1.41692
1.41826
1.42088
1.93645
4.12028
4.44758
4.28983
1.41144
1.41231
1.41329
1.41456
1.41597
1.41728
1.43398
3.05537
4.34098
4.28063
1.40963
1.41021
1.41096
1.41174
1.41277
1.4137
1.41604
1.84499
3.94207
4.29558
1.40759
1.40807
1.40865
1.40937
1.41027
1.41125
1.41234
1.43174
3.0084
4.19521
1.4058
1.40635
1.40696
1.40778
1.40861
1.40976
1.41075
1.41305
1.93542
3.91133
1.40475
1.40512
1.40563
1.40623
1.40691
1.40783
1.4087
1.40986
1.45128
3.18795
1.40362
1.40391
1.40428
1.40473
1.40533
1.40601
1.40692
1.40785
1.41175
2.44462
1.40272
1.40299
1.40331
1.40374
1.40421
1.40479
1.40555
1.40634
1.40794
1.73642
1.40208
1.40228
1.40254
1.40286
1.40325
1.40373
1.40431
1.405
1.40602
1.41348
1.40153
1.40167
1.40188
1.40212
1.40244
1.40285
1.40333
1.40397
1.40498
1.40484
1.40113
1.40125
1.4014
1.4016
1.40184
1.40216
1.40256
1.40312
1.40376
1.40467
1.40001
1.40001
1.40001
1.40001
1.40001
1.40001
1.40001
1.40001
1.4
1.41002
1.40001
1.40001
1.40001
1.40001
1.40001
1.40001
1.40001
1.40001
1.4
1.40967
1.40001
1.40001
1.40001
1.40001
1.40001
1.40001
1.40001
1.40001
1.4
1.40927
1.40001
1.40001
1.40001
1.40001
1.40001
1.40001
1.40001
1.40001
1.4
1.40999
1.40001
1.40001
1.40001
1.40001
1.40001
1.40001
1.40001
1.40001
1.4
1.41166
1.40001
1.40001
1.40001
1.40001
1.40001
1.40001
1.40001
1.40001
1.4
1.41286
1.40001
1.40001
1.40001
1.40001
1.40001
1.40001
1.40001
1.40001
1.4
1.41277
1.40001
1.40001
1.40001
1.40001
1.40001
1.40001
1.40001
1.40001
1.4
1.41163
1.40001
1.40001
1.40001
1.40001
1.40001
1.40001
1.40001
1.40001
1.4
1.41009
1.40001
1.40001
1.40001
1.40001
1.40001
1.40001
1.40001
1.40001
1.4
1.40913
1.40001
1.40001
1.40001
1.40001
1.40001
1.40001
1.40001
1.40001
1.4
1.40716
1.40001
1.40001
1.40001
1.40001
1.40001
1.40001
1.40001
1.40001
1.4
1.40612
1.40001
1.40001
1.40001
1.40001
1.40001
1.40001
1.40001
1.40001
1.4
1.40492
1.40001
1.40001
1.40001
1.40001
1.40001
1.40001
1.40001
1.40001
1.4
1.40359
1.40001
1.40001
1.40001
1.40001
1.40001
1.40001
1.40001
1.40001
1.4
1.40292
1.40001
1.40001
1.40001
1.40001
1.40001
1.40001
1.40001
1.40001
1.4
1.40225
1.40001
1.40001
1.40001
1.40001
1.40001
1.40001
1.40001
1.40001
1.4
1.40164
1.40001
1.40001
1.40001
1.40001
1.40001
1.40001
1.40001
1.40001
1.4
1.40125
1.40001
1.40001
1.40001
1.40001
1.40001
1.40001
1.40001
1.40001
1.4
1.40092
1.40001
1.40001
1.40001
1.40001
1.40001
1.40001
1.40001
1.40001
1.4
1.40068
1.40001
1.40001
1.40001
1.40001
1.40001
1.40001
1.40001
1.40001
1.4
1.40068
1.40001
1.40001
1.40001
1.40001
1.40001
1.40001
1.40001
1.40001
1.4
1.40092
1.40001
1.40001
1.40001
1.40001
1.40001
1.40001
1.40001
1.40001
1.4
1.40125
1.40001
1.40001
1.40001
1.40001
1.40001
1.40001
1.40001
1.40001
1.4
1.40164
1.40001
1.40001
1.40001
1.40001
1.40001
1.40001
1.40001
1.40001
1.4
1.40225
1.40001
1.40001
1.40001
1.40001
1.40001
1.40001
1.40001
1.40001
1.4
1.40292
1.40001
1.40001
1.40001
1.40001
1.40001
1.40001
1.40001
1.40001
1.4
1.40359
1.40001
1.40001
1.40001
1.40001
1.40001
1.40001
1.40001
1.40001
1.4
1.40492
1.40001
1.40001
1.40001
1.40001
1.40001
1.40001
1.40001
1.40001
1.4
1.40612
1.40001
1.40001
1.40001
1.40001
1.40001
1.40001
1.40001
1.40001
1.4
1.40716
1.40001
1.40001
1.40001
1.40001
1.40001
1.40001
1.40001
1.40001
1.4
1.40913
1.40001
1.40001
1.40001
1.40001
1.40001
1.40001
1.40001
1.40001
1.4
1.41009
1.40001
1.40001
1.40001
1.40001
1.40001
1.40001
1.40001
1.40001
1.4
1.41163
1.40001
1.40001
1.40001
1.40001
1.40001
1.40001
1.40001
1.40001
1.4
1.41277
1.40001
1.40001
1.40001
1.40001
1.40001
1.40001
1.40001
1.40001
1.4
1.41286
1.40001
1.40001
1.40001
1.40001
1.40001
1.40001
1.40001
1.40001
1.4
1.41166
1.40001
1.40001
1.40001
1.40001
1.40001
1.40001
1.40001
1.40001
1.4
1.40999
1.40001
1.40001
1.40001
1.40001
1.40001
1.40001
1.40001
1.40001
1.4
1.40927
1.40001
1.40001
1.40001
1.40001
1.40001
1.40001
1.40001
1.40001
1.4
1.40967
1.40001
1.40001
1.40001
1.40001
1.40001
1.40001
1.40001
1.40001
1.4
1.41002
1.40113
1.40125
1.4014
1.4016
1.40184
1.40216
1.40256
1.40312
1.40376
1.40467
1.40153
1.40167
1.40188
1.40212
1.40244
1.40285
1.40333
1.40397
1.40498
1.40484
1.40208
1.40228
1.40254
1.40286
1.40325
1.40373
1.40431
1.405
1.40602
1.41344
1.40272
1.40299
1.40331
1.40374
1.40421
1.40479
1.40555
1.40634
1.40794
1.73616
1.40362
1.40391
1.40428
1.40473
1.40533
1.40601
1.40692
1.40785
1.41175
2.4443
1.40475
1.40512
1.40563
1.40624
1.40691
1.40783
1.4087
1.40986
1.45124
3.18768
1.4058
1.40635
1.40697
1.40778
1.40861
1.40976
1.41075
1.41305
1.93517
3.91116
1.40759
1.40807
1.40865
1.40937
1.41027
1.41125
1.41234
1.43173
3.00813
4.19516
1.40963
1.41022
1.41096
1.41175
1.41277
1.4137
1.41604
1.84484
3.94192
4.29557
1.41144
1.41231
1.41329
1.41456
1.41597
1.41728
1.43398
3.05518
4.34096
4.28061
1.4139
1.41474
1.41567
1.41692
1.41826
1.42088
1.93638
4.12017
4.44754
4.28983
1.41605
1.41718
1.41877
1.42008
1.42151
1.45521
3.35175
4.53651
4.46217
4.30147
1.41884
1.42041
1.42251
1.4248
1.42832
2.28347
4.42016
4.60233
4.47843
4.30827
1.4205
1.42208
1.42377
1.42663
1.66241
3.88358
4.66553
4.59562
4.45139
4.29018
1.42224
1.42417
1.42618
1.43183
3.2021
4.631
4.65263
4.57306
4.39825
4.23467
1.42128
1.42411
1.42786
2.10427
4.59819
4.80691
4.68543
4.55998
4.34495
4.15283
1.41872
1.42149
1.66743
3.93231
4.86946
4.76138
4.64909
4.49156
4.27417
4.03449
1.41633
1.4723
3.35525
4.78108
4.74328
4.6938
4.57458
4.42272
4.22315
3.94215
1.43086
2.82574
4.68475
4.61235
4.5915
4.56589
4.47759
4.3508
4.16805
3.87103
2.27255
5.02104
5.63546
5.01316
4.72048
4.57436
4.46745
4.34982
4.1828
3.92171
2.81384
3.12574
2.60474
2.14159
1.73461
1.47975
1.63092
2.32026
2.86547
3.00436
2.99903
3.12393
2.52424
2.0502
1.67043
1.44237
1.57304
2.37081
2.90291
3.0473
3.2392
3.09781
2.4224
1.95902
1.60229
1.40617
1.53197
2.40371
2.93821
3.0842
3.47602
3.02557
2.326
1.86508
1.53691
1.37284
1.50602
2.41245
2.9636
3.12325
3.5772
2.93242
2.23451
1.76562
1.46801
1.34204
1.49214
2.41975
2.98651
3.16013
3.6008
2.82228
2.13775
1.6719
1.40666
1.32391
1.48446
2.40314
2.98972
3.18992
3.65836
2.72605
2.05539
1.57087
1.34584
1.31035
1.50528
2.35312
2.98303
3.21116
3.58683
2.61187
1.95619
1.46596
1.31437
1.30377
1.527
2.27374
2.9475
3.20381
3.53118
2.49654
1.84884
1.35532
1.28924
1.3044
1.55355
2.17936
2.88678
3.18858
3.47564
2.37388
1.74041
1.25775
1.26045
1.30621
1.57944
2.08194
2.79922
3.15846
3.40149
2.23848
1.6093
1.19321
1.22432
1.30961
1.59905
1.99332
2.69404
3.12028
3.30799
2.0941
1.48288
1.15046
1.17821
1.3097
1.61039
1.92309
2.57768
3.0682
3.18139
1.92592
1.34471
1.11202
1.14349
1.32261
1.61191
1.86694
2.4668
3.0101
3.00494
1.74715
1.21968
1.07447
1.11044
1.32883
1.60481
1.81927
2.36637
2.94964
2.79462
1.57298
1.10879
1.04655
1.08783
1.33066
1.59977
1.77833
2.27346
2.89064
2.56008
1.38662
1.0159
1.01816
1.07025
1.31873
1.59755
1.74623
2.18575
2.8306
2.28153
1.21347
0.956285
0.981986
1.05609
1.30688
1.59058
1.72113
2.10523
2.76942
1.98782
1.05128
0.917704
0.952886
1.04112
1.28954
1.56858
1.69873
2.03388
2.7102
1.65322
0.924113
0.890653
0.928423
1.02169
1.26577
1.53381
1.67615
1.96903
2.65735
1.21744
0.851039
0.875704
0.90911
0.996279
1.22794
1.48865
1.64908
1.90539
2.61525
1.40001
1.3999
1.40201
1.86627
4.52196
4.4878
3.89435
3.3392
2.95833
2.46265
1.40001
1.39989
1.4021
1.84755
4.57597
4.53013
3.90178
3.33462
2.98686
2.50153
1.40001
1.39988
1.40225
1.86777
4.66682
4.61979
3.91066
3.32664
2.94458
2.44721
1.40001
1.39986
1.40241
1.94884
4.74106
4.68673
3.91768
3.31687
2.92702
2.42845
1.40001
1.39984
1.40366
1.9868
4.70386
4.69985
3.92183
3.30353
2.90341
2.40837
1.40001
1.39983
1.4083
1.97852
4.64822
4.61336
3.89469
3.27841
2.8709
2.38134
1.40001
1.39986
1.42582
2.02178
4.54594
4.48019
3.83466
3.2377
2.82759
2.3512
1.40001
1.39996
1.4832
2.24862
4.4377
4.33823
3.75364
3.18179
2.77562
2.31656
1.40001
1.40016
1.63462
2.53654
4.17707
4.18284
3.66331
3.12279
2.72071
2.28213
1.4
1.40088
1.902
2.74043
3.78099
4.01426
3.55569
3.0585
2.66353
2.24945
1.39999
1.40491
2.20566
2.87778
3.35612
3.79402
3.43668
2.99079
2.60713
2.21893
1.39993
1.42805
2.48546
2.97968
3.02146
3.50798
3.29703
2.92056
2.54817
2.19333
1.39983
1.54351
2.72027
3.02379
2.84352
3.18906
3.15093
2.85385
2.49485
2.17807
1.39971
1.83084
2.90397
3.02421
2.70469
2.86279
3.00778
2.78581
2.4455
2.17809
1.39962
2.17475
3.00269
2.92908
2.53347
2.51815
2.86237
2.7093
2.40295
2.19166
1.40319
2.48555
3.02221
2.83135
2.35995
2.20316
2.70078
2.59282
2.3541
2.26605
1.53274
2.74564
3.03009
2.73824
2.21703
1.94368
2.48593
2.4635
2.31543
2.41706
1.87334
2.95023
2.95015
2.60766
2.09457
1.76553
2.23441
2.35168
2.32972
2.59526
2.23417
3.02706
2.80924
2.43976
1.97314
1.64109
1.98488
2.26258
2.4924
2.80679
2.51618
3.08687
2.69624
2.27101
1.84114
1.54546
1.76219
2.24126
2.75313
2.94528
2.51669
3.08715
2.69641
2.27101
1.84113
1.54541
1.7621
2.24188
2.75346
2.94498
2.23433
3.02728
2.80939
2.43983
1.97313
1.64101
1.98474
2.26277
2.49268
2.80657
1.87348
2.9505
2.95029
2.6077
2.09447
1.76541
2.23432
2.35177
2.32985
2.59536
1.53294
2.74602
3.03031
2.73829
2.21684
1.94348
2.48591
2.46349
2.31552
2.41725
1.4032
2.48593
3.02244
2.83128
2.35962
2.203
2.70089
2.59287
2.35417
2.26609
1.39962
2.17523
3.00299
2.92894
2.53315
2.51798
2.86249
2.70934
2.40301
2.1917
1.39971
1.8314
2.90452
3.02413
2.70443
2.86267
3.00783
2.78584
2.44555
2.17813
1.39983
1.54387
2.72092
3.02404
2.8433
3.18893
3.15091
2.85388
2.4949
2.17815
1.39993
1.42813
2.48618
2.97977
3.0212
3.50783
3.29697
2.92057
2.54822
2.19343
1.39999
1.40493
2.20643
2.87797
3.35569
3.79389
3.43659
2.99075
2.60717
2.21904
1.4
1.40088
1.90282
2.74097
3.78056
4.01406
3.55552
3.05841
2.66355
2.24957
1.40001
1.40016
1.63532
2.53754
4.17684
4.18261
3.66309
3.12268
2.72072
2.28222
1.40001
1.39996
1.48356
2.24991
4.43811
4.338
3.75339
3.18169
2.77564
2.31665
1.40001
1.39986
1.42596
2.02284
4.54695
4.47999
3.83439
3.23764
2.82763
2.35128
1.40001
1.39983
1.40835
1.97927
4.64942
4.61325
3.89445
3.2784
2.87095
2.3814
1.40001
1.39984
1.40368
1.98762
4.70519
4.6998
3.92163
3.30354
2.90347
2.40843
1.40001
1.39986
1.40242
1.94977
4.74233
4.6867
3.91753
3.31689
2.92707
2.42851
1.40001
1.39988
1.40225
1.8687
4.6681
4.61981
3.91053
3.32665
2.9446
2.44726
1.40001
1.39989
1.4021
1.84838
4.57721
4.53028
3.90175
3.33462
2.98691
2.50159
1.40001
1.3999
1.40201
1.86713
4.52324
4.48799
3.89436
3.3392
2.95833
2.4627
1.40078
1.40087
1.40099
1.40113
1.40132
1.40153
1.40185
1.40222
1.40276
1.40339
1.40048
1.40054
1.40062
1.40071
1.40084
1.40097
1.40119
1.4014
1.40182
1.4021
1.4003
1.40034
1.40038
1.40043
1.40051
1.40059
1.40072
1.40086
1.40111
1.40129
1.40019
1.40021
1.40023
1.40027
1.40031
1.40036
1.40043
1.40052
1.40065
1.40077
1.40012
1.40013
1.40015
1.40017
1.40019
1.40022
1.40026
1.40031
1.40038
1.40046
1.40008
1.40008
1.40009
1.40011
1.40012
1.40014
1.40016
1.4002
1.40023
1.40032
1.40005
1.40005
1.40006
1.40007
1.40008
1.40009
1.4001
1.40013
1.40015
1.40021
1.40003
1.40003
1.40004
1.40004
1.40005
1.40006
1.40007
1.40008
1.40009
1.40013
1.40002
1.40002
1.40003
1.40003
1.40003
1.40004
1.40004
1.40005
1.40006
1.40009
1.40001
1.40002
1.40002
1.40002
1.40002
1.40002
1.40003
1.40003
1.40004
1.40005
1.40001
1.40001
1.40001
1.40001
1.40001
1.40002
1.40002
1.40002
1.40003
1.40003
1.40001
1.40001
1.40001
1.40001
1.40001
1.40001
1.40001
1.40002
1.40002
1.40002
1.40001
1.40001
1.40001
1.40001
1.40001
1.40001
1.40001
1.40001
1.40001
1.40002
1.40001
1.40001
1.40001
1.40001
1.40001
1.40001
1.40001
1.40001
1.40001
1.40001
1.40001
1.40001
1.40001
1.40001
1.40001
1.40001
1.40001
1.40001
1.40001
1.40001
1.40001
1.40001
1.40001
1.40001
1.40001
1.40001
1.40001
1.40001
1.40001
1.40001
1.40001
1.40001
1.40001
1.40001
1.40001
1.40001
1.40001
1.40001
1.40001
1.40001
1.40001
1.40001
1.40001
1.40001
1.40001
1.40001
1.40001
1.40001
1.40001
1.40001
1.40001
1.40001
1.40001
1.40001
1.40001
1.40001
1.40001
1.40001
1.40001
1.40001
1.40001
1.40001
1.40001
1.40001
1.40001
1.40001
1.40001
1.40001
1.40001
1.40001
1.40001
1.40001
1.40001
1.40001
1.40001
1.40001
1.40001
1.40001
1.4
1.40045
1.40001
1.40001
1.40001
1.40001
1.40001
1.40001
1.40001
1.40001
1.4
1.40028
1.40001
1.40001
1.40001
1.40001
1.40001
1.40001
1.40001
1.40001
1.4
1.40018
1.40001
1.40001
1.40001
1.40001
1.40001
1.40001
1.40001
1.40001
1.4
1.40011
1.40001
1.40001
1.40001
1.40001
1.40001
1.40001
1.40001
1.40001
1.4
1.40007
1.40001
1.40001
1.40001
1.40001
1.40001
1.40001
1.40001
1.40001
1.4
1.40005
1.40001
1.40001
1.40001
1.40001
1.40001
1.40001
1.40001
1.40001
1.4
1.40003
1.40001
1.40001
1.40001
1.40001
1.40001
1.40001
1.40001
1.40001
1.4
1.40002
1.40001
1.40001
1.40001
1.40001
1.40001
1.40001
1.40001
1.40001
1.4
1.40001
1.40001
1.40001
1.40001
1.40001
1.40001
1.40001
1.40001
1.40001
1.4
1.40001
1.40001
1.40001
1.40001
1.40001
1.40001
1.40001
1.40001
1.40001
1.4
1.40001
1.40001
1.40001
1.40001
1.40001
1.40001
1.40001
1.40001
1.40001
1.4
1.40001
1.40001
1.40001
1.40001
1.40001
1.40001
1.40001
1.40001
1.40001
1.4
1.40001
1.40001
1.40001
1.40001
1.40001
1.40001
1.40001
1.40001
1.40001
1.4
1.40001
1.40001
1.40001
1.40001
1.40001
1.40001
1.40001
1.40001
1.40001
1.40001
1.40001
1.40001
1.40001
1.40001
1.40001
1.40001
1.40001
1.40001
1.40001
1.40001
1.40001
1.40001
1.40001
1.40001
1.40001
1.40001
1.40001
1.40001
1.40001
1.40001
1.40001
1.40001
1.40001
1.40001
1.40001
1.40001
1.40001
1.40001
1.40001
1.40001
1.40001
1.40001
1.40001
1.40001
1.40001
1.40001
1.40001
1.40001
1.40001
1.40001
1.40001
1.40001
1.40001
1.40001
1.40001
1.40001
1.40001
1.40001
1.40001
1.40001
1.40001
1.40001
1.40001
1.40001
1.40001
1.40001
1.40001
1.40001
1.40001
1.40001
1.40001
1.40001
1.40001
1.40001
1.40001
1.40001
1.40001
1.40001
1.40001
1.40001
1.40001
1.40001
1.40001
1.40001
1.40001
1.40001
1.40001
1.40001
1.40001
1.40001
1.40001
1.40001
1.40001
1.40001
1.40001
1.40001
1.40001
1.40001
1.40001
1.40001
1.40001
1.40001
1.40001
1.40001
1.40001
1.40001
1.40001
1.40001
1.40001
1.40001
1.40001
1.40001
1.40001
1.40001
1.40001
1.40001
1.40001
1.40001
1.40001
1.40001
1.40001
1.40001
1.40001
1.40001
1.40001
1.40001
1.40001
1.40001
1.40001
1.4
1.40001
1.40001
1.40001
1.40001
1.40001
1.40001
1.40001
1.40001
1.40001
1.4
1.40001
1.40001
1.40001
1.40001
1.40001
1.40001
1.40001
1.40001
1.40001
1.4
1.40001
1.40001
1.40001
1.40001
1.40001
1.40001
1.40001
1.40001
1.40001
1.4
1.40001
1.40001
1.40001
1.40001
1.40001
1.40001
1.40001
1.40001
1.40001
1.4
1.40001
1.40001
1.40001
1.40001
1.40001
1.40001
1.40001
1.40001
1.40001
1.4
1.40001
1.40001
1.40001
1.40001
1.40001
1.40001
1.40001
1.40001
1.40001
1.4
1.40002
1.40001
1.40001
1.40001
1.40001
1.40001
1.40001
1.40001
1.40001
1.4
1.40003
1.40001
1.40001
1.40001
1.40001
1.40001
1.40001
1.40001
1.40001
1.4
1.40005
1.40001
1.40001
1.40001
1.40001
1.40001
1.40001
1.40001
1.40001
1.4
1.40007
1.40001
1.40001
1.40001
1.40001
1.40001
1.40001
1.40001
1.40001
1.4
1.40011
1.40001
1.40001
1.40001
1.40001
1.40001
1.40001
1.40001
1.40001
1.4
1.40018
1.40001
1.40001
1.40001
1.40001
1.40001
1.40001
1.40001
1.40001
1.4
1.40028
1.40001
1.40001
1.40001
1.40001
1.40001
1.40001
1.40001
1.40001
1.4
1.40045
1.40001
1.40001
1.40001
1.40001
1.40001
1.40001
1.40001
1.40001
1.40001
1.40001
1.40001
1.40001
1.40001
1.40001
1.40001
1.40001
1.40001
1.40001
1.40001
1.40001
1.40001
1.40001
1.40001
1.40001
1.40001
1.40001
1.40001
1.40001
1.40001
1.40001
1.40001
1.40001
1.40001
1.40001
1.40001
1.40001
1.40001
1.40001
1.40001
1.40001
1.40001
1.40001
1.40001
1.40001
1.40001
1.40001
1.40001
1.40001
1.40001
1.40001
1.40001
1.40001
1.40001
1.40001
1.40001
1.40001
1.40001
1.40001
1.40001
1.40001
1.40001
1.40001
1.40001
1.40001
1.40001
1.40001
1.40001
1.40001
1.40001
1.40001
1.40001
1.40001
1.40001
1.40001
1.40001
1.40001
1.40001
1.40001
1.40001
1.40002
1.40001
1.40001
1.40001
1.40001
1.40001
1.40001
1.40001
1.40002
1.40002
1.40002
1.40001
1.40001
1.40001
1.40001
1.40001
1.40002
1.40002
1.40002
1.40003
1.40003
1.40001
1.40002
1.40002
1.40002
1.40002
1.40002
1.40003
1.40003
1.40004
1.40005
1.40002
1.40002
1.40003
1.40003
1.40003
1.40004
1.40004
1.40005
1.40006
1.40009
1.40003
1.40003
1.40004
1.40004
1.40005
1.40006
1.40007
1.40008
1.40009
1.40013
1.40005
1.40005
1.40006
1.40007
1.40008
1.40009
1.40011
1.40013
1.40015
1.40021
1.40008
1.40008
1.40009
1.40011
1.40012
1.40014
1.40016
1.4002
1.40023
1.40032
1.40012
1.40013
1.40015
1.40017
1.40019
1.40022
1.40026
1.40031
1.40038
1.40046
1.40019
1.40021
1.40023
1.40027
1.40031
1.40036
1.40043
1.40052
1.40065
1.40077
1.4003
1.40034
1.40038
1.40043
1.40051
1.40059
1.40072
1.40086
1.40111
1.40129
1.40048
1.40054
1.40062
1.40071
1.40084
1.40097
1.40119
1.4014
1.40182
1.4021
1.40078
1.40087
1.40099
1.40113
1.40132
1.40153
1.40185
1.40222
1.40276
1.40339
)
;

boundaryField
{
    inlet
    {
        type            calculated;
        value           uniform 1.40001;
    }
    outlet
    {
        type            calculated;
        value           nonuniform List<scalar> 
100
(
2.94521
2.80696
2.59608
2.41801
2.26674
2.19221
2.17862
2.17864
2.19396
2.21962
2.25017
2.28286
2.31732
2.35195
2.38207
2.40908
2.42913
2.44785
2.50217
2.46329
2.61819
2.66238
2.712
2.76993
2.83212
2.89285
2.95085
3.01005
3.06808
3.12091
3.15951
3.18937
3.20421
3.21088
3.18931
3.15968
3.12349
3.08495
3.04803
3.00472
2.58232
2.53503
2.46614
2.38828
2.30775
2.23191
2.18807
2.16786
2.16395
2.16449
2.1733
2.17215
2.16825
2.18682
2.22982
2.30216
2.39273
2.47389
2.53075
2.57512
3.00454
3.0474
3.08427
3.12334
3.16035
3.19022
3.21154
3.20428
3.18914
3.1591
3.12103
3.069
3.01103
2.95076
2.89202
2.83221
2.77111
2.71191
2.65906
2.61691
2.46324
2.50211
2.4478
2.42908
2.40901
2.382
2.35187
2.31724
2.28277
2.25006
2.21951
2.19387
2.17857
2.17857
2.19217
2.2667
2.41782
2.59598
2.80719
2.9455
)
;
    }
    triangle
    {
        type            calculated;
        value           nonuniform List<scalar> 
40
(
2.2722
5.02055
5.63594
5.01341
4.72062
4.5745
4.4676
4.34998
4.18296
3.9219
0.824085
0.829735
0.833056
0.843612
0.854991
0.863467
0.867401
0.873751
0.882084
0.887848
0.88794
0.882375
0.874163
0.867779
0.863684
0.855067
0.843617
0.833029
0.829748
0.824367
2.27255
5.02104
5.63546
5.01316
4.72048
4.57436
4.46745
4.34982
4.1828
3.92171
)
;
    }
    top
    {
        type            symmetryPlane;
    }
    bottom
    {
        type            symmetryPlane;
    }
    defaultFaces
    {
        type            empty;
    }
}


// ************************************************************************* //
