/*--------------------------------*- C++ -*----------------------------------*\
  =========                 |
  \\      /  F ield         | OpenFOAM: The Open Source CFD Toolbox
   \\    /   O peration     | Website:  https://openfoam.org
    \\  /    A nd           | Version:  7
     \\/     M anipulation  |
\*---------------------------------------------------------------------------*/
FoamFile
{
    version     2.0;
    format      ascii;
    class       volScalarField;
    location    "1";
    object      T;
}
// * * * * * * * * * * * * * * * * * * * * * * * * * * * * * * * * * * * * * //

dimensions      [0 0 0 1 0 0 0];

internalField   nonuniform List<scalar> 
2600
(
1.726
1.64871
1.59667
1.56816
1.59337
1.66849
1.80094
1.86376
1.83001
1.71201
1.74814
1.7239
1.6858
1.6478
1.67505
1.73694
1.85427
1.90948
1.86425
1.73372
1.71638
1.75736
1.75874
1.7258
1.75028
1.80356
1.91617
1.95995
1.90091
1.77407
1.65187
1.73937
1.78204
1.76909
1.80281
1.86509
1.98564
2.00621
1.93174
1.83252
1.59312
1.68389
1.76099
1.78095
1.83606
1.92404
2.04722
2.03586
1.95101
1.90309
1.56034
1.63505
1.72354
1.77538
1.85808
1.96738
2.08117
2.04507
1.95741
1.97291
1.5492
1.60088
1.69061
1.76848
1.86769
1.98905
2.08676
2.03942
1.95866
2.02351
1.55155
1.58626
1.67293
1.76435
1.86502
1.98391
2.06501
2.01958
1.9567
2.05024
1.55839
1.58879
1.66961
1.76128
1.85113
1.96045
2.03032
1.99823
1.95529
2.0634
1.56401
1.58963
1.67028
1.76061
1.8432
1.94731
2.00972
1.98576
1.95254
2.06581
1.56408
1.5897
1.67033
1.76036
1.84314
1.94704
2.01042
1.98119
1.95118
2.06295
1.55861
1.58892
1.66981
1.76157
1.85195
1.96111
2.0311
1.99742
1.95349
2.05884
1.55182
1.5864
1.67285
1.76378
1.8648
1.98497
2.06544
2.01822
1.95738
2.04965
1.54944
1.60099
1.69058
1.7683
1.86686
1.98988
2.08616
2.03779
1.96025
2.02572
1.56046
1.63515
1.72347
1.77487
1.85687
1.96788
2.08
2.04529
1.95792
1.97434
1.59315
1.68394
1.76082
1.78033
1.83459
1.92365
2.04705
2.03655
1.95048
1.90358
1.65194
1.73949
1.78178
1.76852
1.80175
1.86365
1.98656
2.00733
1.9319
1.83018
1.71634
1.75747
1.75847
1.72528
1.74873
1.80247
1.91848
1.96074
1.89993
1.77348
1.74795
1.72392
1.68554
1.64715
1.67328
1.73728
1.85578
1.90908
1.8636
1.73627
1.72593
1.64857
1.5965
1.5671
1.59245
1.6681
1.79998
1.86297
1.83182
1.7134
1.81488
1.57341
1.51033
1.49344
1.51383
1.59699
1.74504
1.82172
1.80454
1.70153
1.82934
1.5311
1.45699
1.42863
1.44253
1.52417
1.68874
1.78275
1.78448
1.69852
1.82663
1.51204
1.42675
1.3745
1.38211
1.4576
1.63328
1.74488
1.77793
1.70087
1.82183
1.50465
1.39951
1.32665
1.32971
1.40108
1.57896
1.70733
1.77899
1.70399
1.81252
1.50098
1.37557
1.28773
1.28622
1.35426
1.52514
1.67017
1.78213
1.70481
1.80078
1.50583
1.35843
1.25723
1.2526
1.31825
1.47539
1.63467
1.78357
1.70222
1.80331
1.51199
1.34952
1.23734
1.22838
1.28419
1.43262
1.60209
1.78053
1.6954
1.81262
1.52689
1.35008
1.22872
1.21274
1.25588
1.39871
1.57317
1.77059
1.68613
1.82442
1.54642
1.36096
1.22512
1.20297
1.23227
1.36972
1.54915
1.75283
1.6763
1.83827
1.56689
1.37803
1.22449
1.20136
1.21836
1.34441
1.53057
1.73167
1.66853
1.85346
1.5902
1.40308
1.23352
1.19831
1.20757
1.3216
1.51691
1.71216
1.66415
1.86659
1.61406
1.42581
1.25306
1.20209
1.19947
1.29842
1.50732
1.69998
1.66381
1.87819
1.63898
1.45165
1.27963
1.21054
1.19482
1.27775
1.50364
1.69496
1.66768
1.88451
1.667
1.47855
1.30969
1.22327
1.19551
1.26294
1.50625
1.69788
1.67528
1.87455
1.6939
1.50448
1.34151
1.24555
1.20085
1.25376
1.51789
1.70565
1.68017
1.8631
1.72047
1.53542
1.37381
1.26794
1.21002
1.25656
1.53316
1.71388
1.68412
1.82932
1.7366
1.56267
1.40818
1.2933
1.22424
1.26337
1.5429
1.71709
1.68554
1.79469
1.7538
1.58874
1.43994
1.31769
1.23935
1.27533
1.54918
1.71874
1.68584
1.76809
1.76187
1.61554
1.47026
1.34288
1.25509
1.29214
1.55073
1.7192
1.68642
1.7538
1.76188
1.63646
1.50037
1.36664
1.27112
1.31476
1.54726
1.7208
1.68533
1.32242
2.12372
2.43354
2.3427
2.30871
2.30727
2.31143
2.31827
2.31319
2.27124
1.0172
1.65152
2.2181
2.23668
2.25755
2.2755
2.2838
2.29495
2.28911
2.22567
1.01022
1.04081
1.87297
2.24932
2.23607
2.23313
2.23482
2.24858
2.2445
2.16972
1.00897
1.00963
1.14856
2.01954
2.19472
2.17812
2.18021
2.18833
2.18067
2.10896
1.0079
1.00853
1.00934
1.33706
2.04997
2.15991
2.15092
2.1489
2.13054
2.0678
1.00705
1.00745
1.00791
1.00983
1.74633
2.12598
2.13984
2.12665
2.09566
2.04095
1.0061
1.00651
1.00695
1.0079
1.12844
1.97127
2.13339
2.11262
2.07755
2.03142
1.00545
1.00589
1.00649
1.00713
1.00814
1.39618
2.05483
2.09548
2.06994
2.0302
1.00464
1.00496
1.00542
1.00579
1.00622
1.02081
1.8356
2.09654
2.07204
2.03084
1.00402
1.00426
1.00452
1.00487
1.00525
1.00599
1.2496
2.00828
2.06496
2.0303
1.0033
1.00354
1.00382
1.00418
1.00458
1.00495
1.01165
1.72398
2.04781
2.03118
1.00277
1.00293
1.00314
1.00337
1.00366
1.00392
1.00458
1.19408
1.95
2.03089
1.00217
1.00231
1.00248
1.00268
1.00294
1.00321
1.00353
1.01098
1.69211
2.00822
1.00166
1.00182
1.00199
1.00222
1.00246
1.00279
1.00307
1.00373
1.21923
1.93049
1.00136
1.00146
1.00161
1.00178
1.00197
1.00224
1.00248
1.00283
1.01866
1.82446
1.00103
1.00112
1.00122
1.00135
1.00152
1.00172
1.00198
1.00224
1.00338
1.52527
1.00078
1.00085
1.00095
1.00107
1.0012
1.00137
1.00158
1.00181
1.00226
1.12728
1.00059
1.00065
1.00073
1.00082
1.00093
1.00106
1.00123
1.00143
1.00172
1.00385
1.00044
1.00048
1.00053
1.0006
1.0007
1.00081
1.00095
1.00113
1.00143
1.00138
1.00032
1.00036
1.0004
1.00045
1.00052
1.00062
1.00073
1.00089
1.00107
1.00134
1
1
1
1
1
1
1
1
1
1.00701
1
1
1
1
1
1
1
1
1
1.00695
1
1
1
1
1
1
1
1
1
1.00681
1
1
1
1
1
1
1
1
1
1.00596
1
1
1
1
1
1
1
1
1
1.00502
1
1
1
1
1
1
1
1
1
1.00445
1
1
1
1
1
1
1
1
1
1.00393
1
1
1
1
1
1
1
1
1
1.00339
1
1
1
1
1
1
1
1
1
1.00292
1
1
1
1
1
1
1
1
1
1.00264
1
1
1
1
1
1
1
1
1
1.00207
1
1
1
1
1
1
1
1
1
1.00176
1
1
1
1
1
1
1
1
1
1.00141
1
1
1
1
1
1
1
1
1
1.00103
1
1
1
1
1
1
1
1
1
1.00083
1
1
1
1
1
1
1
1
1
1.00064
1
1
1
1
1
1
1
1
1
1.00047
1
1
1
1
1
1
1
1
1
1.00036
1
1
1
1
1
1
1
1
1
1.00026
1
1
1
1
1
1
1
1
1
1.00019
1
1
1
1
1
1
1
1
1
1.00019
1
1
1
1
1
1
1
1
1
1.00026
1
1
1
1
1
1
1
1
1
1.00036
1
1
1
1
1
1
1
1
1
1.00047
1
1
1
1
1
1
1
1
1
1.00064
1
1
1
1
1
1
1
1
1
1.00083
1
1
1
1
1
1
1
1
1
1.00103
1
1
1
1
1
1
1
1
1
1.00141
1
1
1
1
1
1
1
1
1
1.00176
1
1
1
1
1
1
1
1
1
1.00207
1
1
1
1
1
1
1
1
1
1.00264
1
1
1
1
1
1
1
1
1
1.00292
1
1
1
1
1
1
1
1
1
1.00339
1
1
1
1
1
1
1
1
1
1.00393
1
1
1
1
1
1
1
1
1
1.00445
1
1
1
1
1
1
1
1
1
1.00502
1
1
1
1
1
1
1
1
1
1.00596
1
1
1
1
1
1
1
1
1
1.00682
1
1
1
1
1
1
1
1
1
1.00695
1
1
1
1
1
1
1
1
1
1.00701
1.00032
1.00036
1.0004
1.00045
1.00052
1.00062
1.00073
1.00089
1.00107
1.00134
1.00044
1.00048
1.00053
1.0006
1.0007
1.00081
1.00095
1.00113
1.00143
1.00138
1.00059
1.00065
1.00073
1.00082
1.00093
1.00106
1.00123
1.00143
1.00172
1.00384
1.00078
1.00085
1.00095
1.00107
1.0012
1.00137
1.00158
1.00181
1.00226
1.12716
1.00103
1.00112
1.00122
1.00135
1.00152
1.00172
1.00198
1.00224
1.00338
1.52509
1.00136
1.00146
1.00161
1.00178
1.00197
1.00224
1.00248
1.00283
1.01865
1.82438
1.00166
1.00182
1.00199
1.00223
1.00246
1.00279
1.00307
1.00373
1.21913
1.93045
1.00217
1.00231
1.00248
1.00268
1.00294
1.00321
1.00353
1.01098
1.69199
2.00819
1.00277
1.00293
1.00314
1.00337
1.00366
1.00392
1.00458
1.19402
1.94997
2.03087
1.0033
1.00354
1.00382
1.00418
1.00458
1.00495
1.01165
1.72391
2.04779
2.03116
1.00402
1.00426
1.00452
1.00487
1.00525
1.00599
1.24958
2.00825
2.06494
2.03028
1.00464
1.00497
1.00542
1.00579
1.00622
1.02081
1.83558
2.09651
2.07202
2.03081
1.00545
1.00589
1.00649
1.00713
1.00815
1.3962
2.05481
2.09544
2.06991
2.03017
1.0061
1.00651
1.00695
1.0079
1.12849
1.97126
2.13337
2.11259
2.07752
2.03139
1.00705
1.00745
1.00791
1.00983
1.74641
2.12598
2.13983
2.12663
2.09564
2.04093
1.0079
1.00853
1.00934
1.33717
2.04993
2.15989
2.15092
2.14891
2.13054
2.06779
1.00897
1.00963
1.14864
2.01954
2.19468
2.17811
2.18022
2.18836
2.1807
2.10896
1.01022
1.04087
1.87307
2.24932
2.23606
2.23314
2.23485
2.24863
2.24454
2.16973
1.01724
1.65179
2.21816
2.23671
2.25758
2.27554
2.28385
2.295
2.28917
2.2257
1.32266
2.12398
2.43357
2.34273
2.30875
2.30732
2.31148
2.31833
2.31325
2.27128
1.75383
1.76182
1.63641
1.50033
1.36659
1.27106
1.31468
1.54702
1.72042
1.68527
1.76807
1.76183
1.6155
1.47022
1.34285
1.25501
1.29201
1.55032
1.71902
1.68648
1.79464
1.75376
1.58871
1.4399
1.31768
1.23927
1.27519
1.54884
1.71881
1.68591
1.82927
1.73656
1.56265
1.40811
1.29328
1.22417
1.26324
1.54269
1.71718
1.68557
1.86305
1.72043
1.5354
1.37374
1.26796
1.20995
1.25648
1.5331
1.71384
1.68402
1.8745
1.69386
1.50447
1.34145
1.24555
1.20079
1.25383
1.51795
1.70547
1.68003
1.88447
1.66698
1.47856
1.30962
1.22326
1.19547
1.26282
1.50628
1.69761
1.6752
1.87815
1.63896
1.45167
1.27958
1.21055
1.1948
1.27755
1.50365
1.69495
1.6676
1.86654
1.61407
1.42583
1.25302
1.20211
1.19945
1.29823
1.50723
1.70007
1.66366
1.85342
1.59022
1.40309
1.2335
1.19838
1.20759
1.32157
1.51669
1.71228
1.66418
1.83823
1.56692
1.37803
1.22456
1.20149
1.21841
1.3445
1.53051
1.73141
1.6686
1.82436
1.54647
1.361
1.2252
1.20305
1.23233
1.36977
1.54939
1.75245
1.67616
1.81257
1.52693
1.35017
1.2288
1.21284
1.25603
1.39868
1.57334
1.77049
1.68584
1.80326
1.51208
1.34968
1.23746
1.22853
1.28442
1.43295
1.60211
1.78072
1.69523
1.80073
1.50597
1.35856
1.25747
1.2528
1.31858
1.47619
1.63492
1.78347
1.70223
1.81247
1.50116
1.37576
1.28808
1.28648
1.35464
1.52561
1.67078
1.7818
1.70476
1.8218
1.5049
1.39983
1.32706
1.33012
1.40108
1.57811
1.70774
1.77903
1.70369
1.82663
1.51238
1.42706
1.37508
1.3828
1.45704
1.63164
1.74449
1.77889
1.70088
1.82938
1.53147
1.45725
1.4295
1.44341
1.52401
1.68846
1.78214
1.78497
1.69936
1.81497
1.57368
1.51051
1.49458
1.51452
1.59799
1.74682
1.82181
1.80287
1.70224
1
0.999971
1.00057
1.28173
2.10003
2.0772
1.92707
1.76178
1.61777
1.42071
1
0.999968
1.0006
1.23537
2.07794
2.06728
1.92703
1.76356
1.6251
1.4296
1
0.999963
1.00064
1.1586
2.0193
2.04275
1.92265
1.76758
1.61978
1.41802
1
0.999958
1.00069
1.1506
1.96971
2.01428
1.91073
1.77092
1.62339
1.41718
1
0.999953
1.00105
1.16202
1.93796
1.98703
1.89605
1.77238
1.62747
1.4173
1
0.999949
1.00233
1.17637
1.92412
1.95883
1.88536
1.77416
1.63188
1.41772
1
0.999959
1.00691
1.2028
1.89629
1.94716
1.88294
1.77782
1.63702
1.41973
1
0.999987
1.02157
1.26574
1.85183
1.94934
1.88425
1.78098
1.64256
1.42337
1
1.00004
1.06273
1.35405
1.79241
1.95424
1.8833
1.78243
1.64803
1.42936
1
1.00025
1.14775
1.43949
1.74065
1.94071
1.87669
1.7816
1.65257
1.43747
0.999996
1.00135
1.26033
1.51594
1.68959
1.90903
1.86273
1.77843
1.65609
1.44682
0.999979
1.00735
1.35874
1.58008
1.64604
1.85491
1.83892
1.77171
1.65646
1.4569
0.999947
1.03804
1.43438
1.62891
1.62621
1.7611
1.81117
1.75907
1.65433
1.46745
0.999896
1.12769
1.52178
1.64762
1.60923
1.67356
1.77393
1.73841
1.64811
1.47858
0.999853
1.27664
1.61639
1.64336
1.58265
1.59316
1.73549
1.71347
1.63914
1.49245
1.00047
1.42334
1.66854
1.64426
1.54844
1.5222
1.69698
1.6801
1.62794
1.52136
1.0334
1.52401
1.69552
1.64535
1.52101
1.45019
1.64166
1.64518
1.61688
1.57043
1.15598
1.6395
1.70776
1.63335
1.4912
1.38901
1.55797
1.6127
1.6072
1.63099
1.42515
1.73493
1.68757
1.59413
1.45212
1.33978
1.45946
1.571
1.64378
1.68008
1.66035
1.75829
1.66123
1.54205
1.40468
1.29889
1.36731
1.53247
1.70258
1.68643
1.6605
1.75837
1.6613
1.54209
1.40471
1.29894
1.36736
1.53256
1.70262
1.68658
1.42528
1.73504
1.68765
1.59419
1.45217
1.33983
1.4595
1.57108
1.64386
1.68019
1.15606
1.63967
1.70781
1.63341
1.49126
1.38906
1.55803
1.6128
1.60723
1.63096
1.03344
1.52415
1.6956
1.64543
1.52107
1.45022
1.64174
1.64527
1.61693
1.57038
1.00047
1.42349
1.66867
1.64435
1.5485
1.52225
1.69708
1.68018
1.62798
1.52136
0.999852
1.27684
1.61661
1.64342
1.58272
1.59324
1.7356
1.71355
1.63919
1.49248
0.999895
1.12786
1.52203
1.64774
1.60932
1.67366
1.77402
1.73848
1.64816
1.47862
0.999946
1.03813
1.43459
1.62905
1.62629
1.76118
1.81125
1.75913
1.65438
1.46749
0.999979
1.00737
1.35898
1.58023
1.64612
1.85499
1.839
1.77177
1.65651
1.45694
0.999996
1.00135
1.26062
1.51615
1.68966
1.90911
1.8628
1.77848
1.65613
1.44685
1
1.00025
1.14802
1.43976
1.74076
1.94079
1.87674
1.78164
1.6526
1.4375
1
1.00004
1.06291
1.35436
1.79256
1.95431
1.88335
1.78246
1.64806
1.42939
1
0.999987
1.02165
1.26603
1.85202
1.94938
1.8843
1.78102
1.64259
1.42339
1
0.999959
1.00694
1.203
1.89649
1.94717
1.88299
1.77786
1.63705
1.41975
1
0.999949
1.00234
1.17652
1.92432
1.95883
1.88542
1.7742
1.63191
1.41774
1
0.999953
1.00106
1.16221
1.93821
1.98702
1.8961
1.77241
1.62749
1.41731
1
0.999958
1.0007
1.15082
1.96995
2.01428
1.91077
1.77095
1.6234
1.41719
1
0.999963
1.00064
1.15887
2.01955
2.04276
1.92266
1.76759
1.61978
1.41803
1
0.999968
1.0006
1.23567
2.07816
2.06734
1.92703
1.76355
1.62511
1.42961
1
0.999971
1.00057
1.28205
2.10025
2.07725
1.92707
1.76177
1.61777
1.42072
1.00022
1.00025
1.00028
1.00032
1.00037
1.00044
1.00053
1.00063
1.00079
1.00097
1.00014
1.00015
1.00018
1.0002
1.00024
1.00028
1.00034
1.0004
1.00052
1.0006
1.00009
1.00009
1.00011
1.00012
1.00014
1.00017
1.0002
1.00024
1.00032
1.00037
1.00005
1.00006
1.00007
1.00008
1.00009
1.0001
1.00012
1.00015
1.00018
1.00022
1.00003
1.00004
1.00004
1.00005
1.00005
1.00006
1.00007
1.00009
1.00011
1.00013
1.00002
1.00002
1.00002
1.00003
1.00003
1.00004
1.00004
1.00006
1.00006
1.00009
1.00001
1.00001
1.00002
1.00002
1.00002
1.00002
1.00003
1.00003
1.00004
1.00006
1.00001
1.00001
1.00001
1.00001
1.00001
1.00001
1.00002
1.00002
1.00003
1.00004
1
1.00001
1.00001
1.00001
1.00001
1.00001
1.00001
1.00001
1.00002
1.00002
1
1
1
1
1
1.00001
1.00001
1.00001
1.00001
1.00001
1
1
1
1
1
1
1
1
1.00001
1.00001
1
1
1
1
1
1
1
1
1
1.00001
1
1
1
1
1
1
1
1
1
1
1
1
1
1
1
1
1
1
1
1
1
1
1
1
1
1
1
1
1
1
1
1
1
1
1
1
1
1
1
1
1
1
1
1
1
1
1
1
1
1
1
1
1
1
1
1
1
1
1
1
1
1
1
1
1
1
1
1
1
1
1
1
1
1
1
1
1
1
1
1
1
1
1
1
1
1
1
1
1
1.00013
1
1
1
1
1
1
1
1
1
1.00008
1
1
1
1
1
1
1
1
1
1.00005
1
1
1
1
1
1
1
1
1
1.00003
1
1
1
1
1
1
1
1
1
1.00002
1
1
1
1
1
1
1
1
1
1.00001
1
1
1
1
1
1
1
1
1
1.00001
1
1
1
1
1
1
1
1
1
1
1
1
1
1
1
1
1
1
1
1
1
1
1
1
1
1
1
1
1
1
1
1
1
1
1
1
1
1
1
1
1
1
1
1
1
1
1
1
1
1
1
1
1
1
1
1
1
1
1
1
1
1
1
1
1
1
1
1
1
1
1
1
1
1
1
1
1
1
1
1
1
1
1
1
1
1
1
1
1
1
1
1
1
1
1
1
1
1
1
1
1
1
1
1
1
1
1
1
1
1
1
1
1
1
1
1
1
1
1
1
1
1
1
1
1
1
1
1
1
1
1
1
1
1
1
1
1
1
1
1
1
1
1
1
1
1
1
1
1
1
1
1
1
1
1
1
1
1
1
1
1
1
1
1
1
1
1
1
1
1
1
1
1
1
1
1
1
1
1
1
1
1
1
1
1
1
1
1
1
1
1
1
1
1
1
1
1
1
1
1
1
1
1
1
1
1
1
1
1
1
1
1
1
1
1
1
1
1
1
1
1
1
1
1
1
1
1
1
1
1
1
1
1
1
1
1
1
1
1
1
1
1
1
1
1
1
1
1
1
1
1
1
1
1
1
1
1
1
1
1
1
1
1
1
1
1
1
1
1
1.00001
1
1
1
1
1
1
1
1
1
1.00001
1
1
1
1
1
1
1
1
1
1.00002
1
1
1
1
1
1
1
1
1
1.00003
1
1
1
1
1
1
1
1
1
1.00005
1
1
1
1
1
1
1
1
1
1.00008
1
1
1
1
1
1
1
1
1
1.00013
1
1
1
1
1
1
1
1
1
1
1
1
1
1
1
1
1
1
1
1
1
1
1
1
1
1
1
1
1
1
1
1
1
1
1
1
1
1
1
1
1
1
1
1
1
1
1
1
1
1
1
1
1
1
1
1
1
1
1
1
1
1
1
1
1
1
1
1
1
1
1
1
1
1
1
1
1
1
1
1
1
1
1
1
1
1
1
1
1
1.00001
1
1
1
1
1
1
1
1
1.00001
1.00001
1
1
1
1
1
1.00001
1.00001
1.00001
1.00001
1.00001
1
1.00001
1.00001
1.00001
1.00001
1.00001
1.00001
1.00001
1.00002
1.00002
1.00001
1.00001
1.00001
1.00001
1.00001
1.00001
1.00002
1.00002
1.00003
1.00004
1.00001
1.00001
1.00002
1.00002
1.00002
1.00002
1.00003
1.00003
1.00004
1.00006
1.00002
1.00002
1.00002
1.00003
1.00003
1.00004
1.00005
1.00006
1.00006
1.00009
1.00003
1.00004
1.00004
1.00005
1.00005
1.00006
1.00007
1.00009
1.00011
1.00013
1.00005
1.00006
1.00007
1.00008
1.00009
1.0001
1.00012
1.00015
1.00018
1.00022
1.00009
1.00009
1.00011
1.00012
1.00014
1.00017
1.0002
1.00024
1.00032
1.00037
1.00014
1.00015
1.00018
1.0002
1.00024
1.00028
1.00034
1.0004
1.00052
1.0006
1.00022
1.00025
1.00028
1.00032
1.00037
1.00044
1.00053
1.00063
1.00079
1.00097
)
;

boundaryField
{
    inlet
    {
        type            fixedValue;
        value           uniform 1;
    }
    outlet
    {
        type            inletOutlet;
        inletValue      uniform 1;
        value           nonuniform List<scalar> 
100
(
1.68645
1.67996
1.63051
1.56989
1.52093
1.49213
1.47829
1.46716
1.45658
1.44647
1.43711
1.42899
1.42298
1.41934
1.41734
1.41693
1.41683
1.41769
1.42928
1.42038
1.70046
1.69744
1.6998
1.70295
1.70384
1.70141
1.69476
1.68561
1.67586
1.66814
1.66382
1.66352
1.66743
1.67508
1.68001
1.684
1.68549
1.6858
1.68636
1.68523
1.71112
1.73281
1.7732
1.83188
1.90261
1.97238
2.02291
2.04972
2.06287
2.06519
2.06247
2.05831
2.04909
2.02526
1.97382
1.9029
1.82948
1.77281
1.73545
1.71238
1.68517
1.68641
1.68588
1.68553
1.68391
1.67988
1.675
1.66735
1.66336
1.66384
1.66821
1.67573
1.68532
1.69459
1.70142
1.70381
1.70265
1.69977
1.69825
1.70124
1.42037
1.42927
1.41768
1.41682
1.41692
1.41733
1.41932
1.42295
1.42896
1.43708
1.44644
1.45655
1.46712
1.47825
1.4921
1.52092
1.56994
1.63053
1.67984
1.6863
)
;
    }
    triangle
    {
        type            zeroGradient;
    }
    top
    {
        type            symmetryPlane;
    }
    bottom
    {
        type            symmetryPlane;
    }
    defaultFaces
    {
        type            empty;
    }
}


// ************************************************************************* //
