/*--------------------------------*- C++ -*----------------------------------*\
  =========                 |
  \\      /  F ield         | OpenFOAM: The Open Source CFD Toolbox
   \\    /   O peration     | Website:  https://openfoam.org
    \\  /    A nd           | Version:  8
     \\/     M anipulation  |
\*---------------------------------------------------------------------------*/
FoamFile
{
    version     2.0;
    format      ascii;
    class       volScalarField;
    location    "1";
    object      T;
}
// * * * * * * * * * * * * * * * * * * * * * * * * * * * * * * * * * * * * * //

dimensions      [0 0 0 1 0 0 0];

internalField   nonuniform List<scalar> 
2600
(
1.72597
1.64863
1.59678
1.56869
1.5936
1.6686
1.80049
1.86292
1.83115
1.71338
1.74814
1.72381
1.68584
1.64854
1.6746
1.73709
1.85597
1.9092
1.86305
1.73545
1.71633
1.75726
1.75883
1.72633
1.75013
1.80172
1.91773
1.96074
1.89988
1.77252
1.65177
1.73928
1.78218
1.76928
1.80275
1.86309
1.98545
2.00721
1.93189
1.83045
1.59296
1.6838
1.76108
1.78104
1.83533
1.92324
2.04648
2.0365
1.95067
1.90429
1.56015
1.63493
1.72365
1.77545
1.85748
1.96747
2.08025
2.04524
1.95832
1.97435
1.54902
1.60076
1.69073
1.76846
1.86748
1.98958
2.08693
2.03792
1.96052
2.0253
1.5514
1.58618
1.6731
1.76436
1.86516
1.98514
2.06634
2.01839
1.95747
2.04997
1.55828
1.58873
1.66955
1.7611
1.85175
1.9614
2.03128
1.99844
1.95322
2.05936
1.56393
1.58956
1.67028
1.76056
1.84344
1.94733
2.01049
1.98313
1.95037
2.06263
1.56401
1.58965
1.67024
1.7604
1.84288
1.9466
2.00972
1.98463
1.95357
2.06628
1.55856
1.58887
1.66971
1.76168
1.85087
1.96005
2.02998
1.99666
1.95596
2.06317
1.55181
1.58637
1.67264
1.76374
1.86438
1.98363
2.06406
2.01935
1.95675
2.0502
1.54948
1.60103
1.6904
1.76828
1.86715
1.98913
2.08594
2.03952
1.95866
2.02411
1.56053
1.63523
1.7233
1.77471
1.85751
1.96767
2.08087
2.04531
1.95745
1.97314
1.59323
1.68403
1.76073
1.78014
1.83538
1.92444
2.04779
2.03608
1.95121
1.90266
1.652
1.73961
1.78164
1.76824
1.80187
1.86561
1.98676
2.00644
1.93199
1.83232
1.71637
1.75759
1.75841
1.72465
1.74897
1.80431
1.91699
1.96001
1.90101
1.77497
1.74796
1.724
1.68552
1.64633
1.67371
1.73731
1.85426
1.9094
1.86478
1.73451
1.726
1.64864
1.59634
1.56656
1.59215
1.66814
1.80047
1.86383
1.83068
1.71198
1.81488
1.57343
1.51014
1.49316
1.51337
1.59785
1.74679
1.82201
1.803
1.70214
1.82935
1.53105
1.45684
1.42843
1.44252
1.52429
1.68882
1.78218
1.78478
1.69956
1.82664
1.512
1.42663
1.37429
1.38218
1.45713
1.63181
1.7442
1.77886
1.70109
1.82184
1.50464
1.39937
1.32646
1.32968
1.4009
1.57794
1.70733
1.77914
1.70382
1.81253
1.50099
1.37549
1.28752
1.28618
1.35442
1.52536
1.67047
1.78183
1.70482
1.80079
1.50583
1.35839
1.25708
1.25257
1.31856
1.47611
1.6347
1.78343
1.70236
1.80333
1.512
1.34946
1.23727
1.22835
1.28445
1.433
1.60187
1.78071
1.69538
1.81262
1.52692
1.35004
1.22866
1.21271
1.25605
1.39872
1.5731
1.77061
1.68594
1.82442
1.54642
1.36095
1.22506
1.20295
1.23232
1.3698
1.54924
1.7526
1.67624
1.83828
1.56689
1.37803
1.22443
1.20136
1.21836
1.34454
1.53048
1.73152
1.66872
1.85346
1.59019
1.40307
1.2335
1.19834
1.20752
1.32161
1.5167
1.7124
1.66432
1.8666
1.61406
1.42579
1.25303
1.20214
1.19943
1.29826
1.50726
1.70028
1.6638
1.87819
1.63899
1.45164
1.27958
1.21055
1.19482
1.27755
1.50371
1.69514
1.66771
1.88451
1.66698
1.47856
1.30966
1.22326
1.1955
1.26286
1.50634
1.6978
1.67526
1.87455
1.6939
1.50449
1.34149
1.24554
1.20084
1.25401
1.51802
1.70559
1.68004
1.8631
1.72047
1.53542
1.37381
1.26792
1.21
1.25656
1.53323
1.71391
1.68401
1.82932
1.73661
1.56266
1.40818
1.29329
1.22423
1.26333
1.54289
1.71721
1.68556
1.79468
1.7538
1.58874
1.43994
1.31768
1.23934
1.27529
1.54904
1.71883
1.68594
1.76809
1.76187
1.61555
1.47027
1.34287
1.25507
1.2921
1.55051
1.71911
1.68652
1.7538
1.76189
1.63647
1.50038
1.36664
1.27111
1.31475
1.5472
1.72057
1.68534
1.32241
2.12371
2.43354
2.3427
2.30871
2.30727
2.31143
2.31827
2.31319
2.27124
1.0172
1.65151
2.2181
2.23668
2.25755
2.2755
2.2838
2.29495
2.28911
2.22568
1.01022
1.0408
1.87297
2.24932
2.23607
2.23313
2.23482
2.24858
2.2445
2.16972
1.00896
1.00963
1.14855
2.01954
2.19472
2.17813
2.18021
2.18833
2.18067
2.10897
1.0079
1.00853
1.00934
1.33705
2.04997
2.15991
2.15092
2.1489
2.13054
2.06781
1.00705
1.00745
1.00791
1.00983
1.74631
2.12598
2.13984
2.12665
2.09566
2.04095
1.0061
1.00651
1.00695
1.0079
1.12843
1.97127
2.13339
2.11262
2.07755
2.03142
1.00545
1.00589
1.00649
1.00713
1.00814
1.39617
2.05483
2.09548
2.06994
2.0302
1.00464
1.00496
1.00542
1.00579
1.00622
1.02081
1.83559
2.09654
2.07204
2.03084
1.00402
1.00426
1.00452
1.00487
1.00525
1.00599
1.24958
2.00828
2.06496
2.0303
1.0033
1.00354
1.00382
1.00418
1.00458
1.00495
1.01165
1.72397
2.04781
2.03118
1.00277
1.00293
1.00314
1.00337
1.00366
1.00392
1.00458
1.19407
1.95
2.03089
1.00217
1.00231
1.00248
1.00268
1.00294
1.00321
1.00353
1.01098
1.69209
2.00822
1.00166
1.00182
1.00199
1.00222
1.00246
1.00279
1.00307
1.00373
1.21921
1.93048
1.00136
1.00146
1.00161
1.00178
1.00197
1.00224
1.00248
1.00283
1.01866
1.82445
1.00103
1.00112
1.00122
1.00135
1.00152
1.00172
1.00198
1.00224
1.00338
1.52524
1.00078
1.00085
1.00095
1.00107
1.0012
1.00137
1.00158
1.00181
1.00226
1.12726
1.00059
1.00065
1.00073
1.00082
1.00093
1.00106
1.00123
1.00143
1.00172
1.00385
1.00044
1.00048
1.00053
1.0006
1.0007
1.00081
1.00095
1.00113
1.00143
1.00138
1.00032
1.00036
1.0004
1.00045
1.00052
1.00062
1.00073
1.00089
1.00107
1.00134
1
1
1
1
1
1
1
1
1
1.00701
1
1
1
1
1
1
1
1
1
1.00695
1
1
1
1
1
1
1
1
1
1.00681
1
1
1
1
1
1
1
1
1
1.00596
1
1
1
1
1
1
1
1
1
1.00502
1
1
1
1
1
1
1
1
1
1.00445
1
1
1
1
1
1
1
1
1
1.00393
1
1
1
1
1
1
1
1
1
1.00339
1
1
1
1
1
1
1
1
1
1.00292
1
1
1
1
1
1
1
1
1
1.00264
1
1
1
1
1
1
1
1
1
1.00207
1
1
1
1
1
1
1
1
1
1.00176
1
1
1
1
1
1
1
1
1
1.00141
1
1
1
1
1
1
1
1
1
1.00103
1
1
1
1
1
1
1
1
1
1.00083
1
1
1
1
1
1
1
1
1
1.00064
1
1
1
1
1
1
1
1
1
1.00047
1
1
1
1
1
1
1
1
1
1.00036
1
1
1
1
1
1
1
1
1
1.00026
1
1
1
1
1
1
1
1
1
1.00019
1
1
1
1
1
1
1
1
1
1.00019
1
1
1
1
1
1
1
1
1
1.00026
1
1
1
1
1
1
1
1
1
1.00036
1
1
1
1
1
1
1
1
1
1.00047
1
1
1
1
1
1
1
1
1
1.00064
1
1
1
1
1
1
1
1
1
1.00083
1
1
1
1
1
1
1
1
1
1.00103
1
1
1
1
1
1
1
1
1
1.00141
1
1
1
1
1
1
1
1
1
1.00176
1
1
1
1
1
1
1
1
1
1.00207
1
1
1
1
1
1
1
1
1
1.00264
1
1
1
1
1
1
1
1
1
1.00292
1
1
1
1
1
1
1
1
1
1.00339
1
1
1
1
1
1
1
1
1
1.00393
1
1
1
1
1
1
1
1
1
1.00445
1
1
1
1
1
1
1
1
1
1.00502
1
1
1
1
1
1
1
1
1
1.00596
1
1
1
1
1
1
1
1
1
1.00682
1
1
1
1
1
1
1
1
1
1.00695
1
1
1
1
1
1
1
1
1
1.00701
1.00032
1.00036
1.0004
1.00045
1.00052
1.00062
1.00073
1.00089
1.00107
1.00134
1.00044
1.00048
1.00053
1.0006
1.0007
1.00081
1.00095
1.00113
1.00143
1.00138
1.00059
1.00065
1.00073
1.00082
1.00093
1.00106
1.00123
1.00143
1.00172
1.00384
1.00078
1.00085
1.00095
1.00107
1.0012
1.00137
1.00158
1.00181
1.00226
1.12714
1.00103
1.00112
1.00122
1.00135
1.00152
1.00172
1.00198
1.00224
1.00338
1.52506
1.00136
1.00146
1.00161
1.00178
1.00197
1.00224
1.00248
1.00283
1.01864
1.82437
1.00166
1.00182
1.00199
1.00223
1.00246
1.00279
1.00307
1.00373
1.2191
1.93045
1.00217
1.00231
1.00248
1.00268
1.00294
1.00321
1.00353
1.01098
1.69196
2.00819
1.00277
1.00293
1.00314
1.00337
1.00366
1.00392
1.00458
1.194
1.94996
2.03088
1.0033
1.00354
1.00382
1.00418
1.00458
1.00495
1.01165
1.72388
2.04779
2.03116
1.00402
1.00426
1.00452
1.00487
1.00525
1.00599
1.24955
2.00825
2.06494
2.03028
1.00464
1.00497
1.00542
1.00579
1.00622
1.02081
1.83556
2.09651
2.07202
2.03082
1.00545
1.00589
1.00649
1.00713
1.00815
1.39617
2.05481
2.09544
2.06991
2.03017
1.0061
1.00651
1.00695
1.0079
1.12847
1.97125
2.13337
2.1126
2.07753
2.03139
1.00705
1.00745
1.00791
1.00983
1.74637
2.12598
2.13983
2.12663
2.09564
2.04093
1.0079
1.00853
1.00934
1.33714
2.04994
2.15989
2.15092
2.1489
2.13054
2.06779
1.00897
1.00963
1.14862
2.01954
2.19468
2.17811
2.18021
2.18835
2.18069
2.10896
1.01022
1.04086
1.87305
2.24932
2.23606
2.23314
2.23484
2.24862
2.24454
2.16973
1.01723
1.65174
2.21815
2.2367
2.25758
2.27553
2.28384
2.29499
2.28916
2.22569
1.32261
2.12393
2.43356
2.34272
2.30874
2.30731
2.31147
2.31832
2.31324
2.27127
1.75383
1.76181
1.6364
1.50033
1.3666
1.27107
1.31469
1.54703
1.72067
1.68528
1.76807
1.76183
1.6155
1.47022
1.34286
1.25503
1.29204
1.55051
1.7191
1.68638
1.79463
1.75376
1.5887
1.4399
1.31769
1.23929
1.27523
1.54897
1.71871
1.68582
1.82927
1.73656
1.56266
1.40811
1.29329
1.22418
1.26327
1.54269
1.71708
1.68555
1.86305
1.72043
1.5354
1.37374
1.26798
1.20997
1.25646
1.53296
1.71384
1.68415
1.8745
1.69386
1.50447
1.34147
1.24557
1.2008
1.2535
1.51772
1.70559
1.6802
1.88447
1.66699
1.47855
1.30964
1.22328
1.19547
1.26284
1.50613
1.69775
1.67526
1.87815
1.63895
1.45168
1.27961
1.21055
1.1948
1.27768
1.5036
1.69475
1.66759
1.86653
1.61407
1.42586
1.25304
1.20208
1.19948
1.2983
1.50731
1.69979
1.66368
1.85342
1.59023
1.4031
1.23353
1.19835
1.20761
1.3215
1.51689
1.71208
1.66405
1.83822
1.56692
1.37803
1.22462
1.20149
1.21836
1.34433
1.53056
1.73156
1.66847
1.82436
1.54647
1.361
1.22526
1.20307
1.23224
1.36966
1.54924
1.75268
1.67626
1.81257
1.5269
1.3502
1.22887
1.21288
1.25583
1.39862
1.57333
1.77046
1.68603
1.80326
1.51208
1.34973
1.23753
1.22856
1.28417
1.43252
1.60225
1.78055
1.69523
1.80073
1.50597
1.35861
1.2576
1.25283
1.31831
1.47545
1.63483
1.7836
1.70206
1.81247
1.50115
1.37585
1.28827
1.28651
1.35459
1.52544
1.67044
1.78206
1.70473
1.8218
1.5049
1.39997
1.32723
1.33013
1.40139
1.5792
1.70772
1.77882
1.70383
1.82663
1.51238
1.42719
1.37526
1.38272
1.45747
1.63307
1.74517
1.77789
1.70057
1.82938
1.53147
1.4574
1.4297
1.44342
1.5236
1.68821
1.78269
1.78462
1.6982
1.81499
1.57364
1.51066
1.49488
1.51496
1.59692
1.74494
1.8215
1.80443
1.70151
1
0.999971
1.00057
1.2817
2.10001
2.07719
1.92707
1.76178
1.61777
1.42071
1
0.999968
1.0006
1.23534
2.07792
2.06728
1.92703
1.76356
1.6251
1.4296
1
0.999963
1.00064
1.15857
2.01928
2.04275
1.92265
1.76758
1.61978
1.41802
1
0.999958
1.00069
1.15057
1.96968
2.01428
1.91073
1.77092
1.62339
1.41718
1
0.999953
1.00105
1.162
1.93794
1.98703
1.89605
1.77238
1.62747
1.4173
1
0.999949
1.00233
1.17635
1.9241
1.95883
1.88535
1.77416
1.63188
1.41772
1
0.999959
1.00691
1.20278
1.89627
1.94717
1.88293
1.77782
1.63702
1.41973
1
0.999987
1.02156
1.26571
1.85181
1.94934
1.88425
1.78098
1.64255
1.42336
1
1.00004
1.06271
1.35402
1.79239
1.95423
1.8833
1.78242
1.64802
1.42936
1
1.00025
1.14772
1.43946
1.74063
1.94071
1.87669
1.78159
1.65256
1.43747
0.999996
1.00135
1.2603
1.51592
1.68957
1.90902
1.86273
1.77843
1.65608
1.44681
0.999979
1.00735
1.35872
1.58006
1.64603
1.8549
1.83891
1.7717
1.65646
1.4569
0.999947
1.03803
1.43436
1.6289
1.6262
1.76108
1.81116
1.75906
1.65433
1.46745
0.999896
1.12768
1.52176
1.64761
1.60922
1.67354
1.77391
1.7384
1.6481
1.47858
0.999854
1.27662
1.61637
1.64336
1.58264
1.59314
1.73548
1.71346
1.63913
1.49245
1.00047
1.42332
1.66853
1.64426
1.54844
1.52219
1.69696
1.68009
1.62793
1.52135
1.0334
1.52399
1.69551
1.64534
1.521
1.45019
1.64165
1.64519
1.61687
1.57037
1.15597
1.63948
1.70776
1.63335
1.4912
1.38901
1.55797
1.6127
1.60718
1.63095
1.42513
1.73492
1.68756
1.59412
1.45212
1.33978
1.45946
1.57097
1.64375
1.68016
1.66034
1.75829
1.66123
1.54205
1.40467
1.29889
1.36732
1.53238
1.70255
1.68653
1.66049
1.75838
1.66131
1.5421
1.40473
1.29894
1.36736
1.53261
1.70264
1.68649
1.42528
1.73504
1.68766
1.59419
1.45218
1.33983
1.4595
1.57109
1.64386
1.68013
1.15606
1.63967
1.70782
1.63342
1.49126
1.38906
1.55803
1.61279
1.60724
1.63101
1.03344
1.52415
1.69561
1.64544
1.52108
1.45023
1.64176
1.64526
1.61693
1.57045
1.00047
1.42349
1.66867
1.64435
1.5485
1.52227
1.6971
1.68019
1.62799
1.52137
0.999852
1.27683
1.61662
1.64343
1.58273
1.59325
1.73563
1.71356
1.6392
1.49248
0.999895
1.12786
1.52204
1.64775
1.60933
1.67368
1.77404
1.73849
1.64816
1.47862
0.999946
1.03813
1.4346
1.62906
1.6263
1.7612
1.81127
1.75914
1.65439
1.46749
0.999979
1.00737
1.35899
1.58024
1.64613
1.85501
1.83901
1.77178
1.65652
1.45694
0.999996
1.00135
1.26063
1.51616
1.68967
1.90912
1.8628
1.77849
1.65614
1.44686
1
1.00025
1.14804
1.43978
1.74077
1.94079
1.87675
1.78164
1.65261
1.43751
1
1.00004
1.06292
1.35438
1.79257
1.95432
1.88335
1.78246
1.64806
1.42939
1
0.999987
1.02165
1.26605
1.85204
1.94938
1.88431
1.78102
1.64259
1.42339
1
0.999959
1.00694
1.20302
1.89651
1.94717
1.883
1.77787
1.63705
1.41975
1
0.999949
1.00234
1.17653
1.92434
1.95883
1.88542
1.77421
1.63191
1.41774
1
0.999953
1.00106
1.16223
1.93823
1.98702
1.89611
1.77242
1.6275
1.41731
1
0.999958
1.0007
1.15084
1.96998
2.01428
1.91077
1.77095
1.6234
1.41719
1
0.999963
1.00064
1.15889
2.01957
2.04277
1.92267
1.76759
1.61978
1.41803
1
0.999968
1.0006
1.2357
2.07818
2.06734
1.92703
1.76355
1.62511
1.42961
1
0.999971
1.00057
1.28208
2.10027
2.07725
1.92707
1.76177
1.61777
1.42072
1.00022
1.00025
1.00028
1.00032
1.00037
1.00044
1.00053
1.00063
1.00079
1.00097
1.00014
1.00015
1.00018
1.0002
1.00024
1.00028
1.00034
1.0004
1.00052
1.0006
1.00009
1.00009
1.00011
1.00012
1.00014
1.00017
1.0002
1.00024
1.00032
1.00037
1.00005
1.00006
1.00007
1.00008
1.00009
1.0001
1.00012
1.00015
1.00018
1.00022
1.00003
1.00004
1.00004
1.00005
1.00005
1.00006
1.00007
1.00009
1.00011
1.00013
1.00002
1.00002
1.00002
1.00003
1.00003
1.00004
1.00004
1.00006
1.00006
1.00009
1.00001
1.00001
1.00002
1.00002
1.00002
1.00002
1.00003
1.00003
1.00004
1.00006
1.00001
1.00001
1.00001
1.00001
1.00001
1.00001
1.00002
1.00002
1.00003
1.00004
1
1.00001
1.00001
1.00001
1.00001
1.00001
1.00001
1.00001
1.00002
1.00002
1
1
1
1
1
1.00001
1.00001
1.00001
1.00001
1.00001
1
1
1
1
1
1
1
1
1.00001
1.00001
1
1
1
1
1
1
1
1
1
1.00001
1
1
1
1
1
1
1
1
1
1
1
1
1
1
1
1
1
1
1
1
1
1
1
1
1
1
1
1
1
1
1
1
1
1
1
1
1
1
1
1
1
1
1
1
1
1
1
1
1
1
1
1
1
1
1
1
1
1
1
1
1
1
1
1
1
1
1
1
1
1
1
1
1
1
1
1
1
1
1
1
1
1
1
1
1
1
1
1
1
1.00013
1
1
1
1
1
1
1
1
1
1.00008
1
1
1
1
1
1
1
1
1
1.00005
1
1
1
1
1
1
1
1
1
1.00003
1
1
1
1
1
1
1
1
1
1.00002
1
1
1
1
1
1
1
1
1
1.00001
1
1
1
1
1
1
1
1
1
1.00001
1
1
1
1
1
1
1
1
1
1
1
1
1
1
1
1
1
1
1
1
1
1
1
1
1
1
1
1
1
1
1
1
1
1
1
1
1
1
1
1
1
1
1
1
1
1
1
1
1
1
1
1
1
1
1
1
1
1
1
1
1
1
1
1
1
1
1
1
1
1
1
1
1
1
1
1
1
1
1
1
1
1
1
1
1
1
1
1
1
1
1
1
1
1
1
1
1
1
1
1
1
1
1
1
1
1
1
1
1
1
1
1
1
1
1
1
1
1
1
1
1
1
1
1
1
1
1
1
1
1
1
1
1
1
1
1
1
1
1
1
1
1
1
1
1
1
1
1
1
1
1
1
1
1
1
1
1
1
1
1
1
1
1
1
1
1
1
1
1
1
1
1
1
1
1
1
1
1
1
1
1
1
1
1
1
1
1
1
1
1
1
1
1
1
1
1
1
1
1
1
1
1
1
1
1
1
1
1
1
1
1
1
1
1
1
1
1
1
1
1
1
1
1
1
1
1
1
1
1
1
1
1
1
1
1
1
1
1
1
1
1
1
1
1
1
1
1
1
1
1
1
1
1
1
1
1
1
1
1
1
1
1
1
1
1
1
1
1
1
1.00001
1
1
1
1
1
1
1
1
1
1.00001
1
1
1
1
1
1
1
1
1
1.00002
1
1
1
1
1
1
1
1
1
1.00003
1
1
1
1
1
1
1
1
1
1.00005
1
1
1
1
1
1
1
1
1
1.00008
1
1
1
1
1
1
1
1
1
1.00013
1
1
1
1
1
1
1
1
1
1
1
1
1
1
1
1
1
1
1
1
1
1
1
1
1
1
1
1
1
1
1
1
1
1
1
1
1
1
1
1
1
1
1
1
1
1
1
1
1
1
1
1
1
1
1
1
1
1
1
1
1
1
1
1
1
1
1
1
1
1
1
1
1
1
1
1
1
1
1
1
1
1
1
1
1
1
1
1
1
1.00001
1
1
1
1
1
1
1
1
1.00001
1.00001
1
1
1
1
1
1.00001
1.00001
1.00001
1.00001
1.00001
1
1.00001
1.00001
1.00001
1.00001
1.00001
1.00001
1.00001
1.00002
1.00002
1.00001
1.00001
1.00001
1.00001
1.00001
1.00001
1.00002
1.00002
1.00003
1.00004
1.00001
1.00001
1.00002
1.00002
1.00002
1.00002
1.00003
1.00003
1.00004
1.00006
1.00002
1.00002
1.00002
1.00003
1.00003
1.00004
1.00005
1.00006
1.00006
1.00009
1.00003
1.00004
1.00004
1.00005
1.00005
1.00006
1.00007
1.00009
1.00011
1.00013
1.00005
1.00006
1.00007
1.00008
1.00009
1.0001
1.00012
1.00015
1.00018
1.00022
1.00009
1.00009
1.00011
1.00012
1.00014
1.00017
1.0002
1.00024
1.00032
1.00037
1.00014
1.00015
1.00018
1.0002
1.00024
1.00028
1.00034
1.0004
1.00052
1.0006
1.00022
1.00025
1.00028
1.00032
1.00037
1.00044
1.00053
1.00063
1.00079
1.00097
)
;

boundaryField
{
    inlet
    {
        type            fixedValue;
        value           uniform 1;
    }
    outlet
    {
        type            inletOutlet;
        inletValue      uniform 1;
        value           nonuniform List<scalar> 
100
(
1.68636
1.67989
1.63056
1.56995
1.52094
1.49213
1.47829
1.46716
1.45658
1.44648
1.43712
1.42899
1.42298
1.41934
1.41734
1.41693
1.41683
1.41769
1.42928
1.42038
1.70115
1.69847
1.69999
1.70278
1.70387
1.70155
1.69473
1.68541
1.67581
1.66833
1.66399
1.6635
1.66745
1.67506
1.67989
1.68389
1.68552
1.6859
1.68646
1.68524
1.7124
1.73466
1.77182
1.82971
1.90364
1.97387
2.02488
2.0494
2.05871
2.06208
2.06577
2.06271
2.04967
2.02349
1.97258
1.90215
1.83172
1.77414
1.73358
1.71106
1.68518
1.68632
1.68578
1.6855
1.68403
1.68004
1.67507
1.66735
1.66338
1.66371
1.66807
1.67582
1.68551
1.69459
1.70125
1.70376
1.7028
1.6995
1.69711
1.70043
1.42037
1.42927
1.41768
1.41682
1.41692
1.41733
1.41932
1.42295
1.42896
1.43708
1.44643
1.45654
1.46712
1.47825
1.4921
1.52091
1.56988
1.6305
1.67992
1.68641
)
;
    }
    triangle
    {
        type            zeroGradient;
    }
    top
    {
        type            symmetryPlane;
    }
    bottom
    {
        type            symmetryPlane;
    }
    defaultFaces
    {
        type            empty;
    }
}


// ************************************************************************* //
