/*--------------------------------*- C++ -*----------------------------------*\
  =========                 |
  \\      /  F ield         | OpenFOAM: The Open Source CFD Toolbox
   \\    /   O peration     | Website:  https://openfoam.org
    \\  /    A nd           | Version:  8
     \\/     M anipulation  |
\*---------------------------------------------------------------------------*/
FoamFile
{
    version     2.0;
    format      ascii;
    class       volVectorField;
    location    "1";
    object      U;
}
// * * * * * * * * * * * * * * * * * * * * * * * * * * * * * * * * * * * * * //

dimensions      [0 1 -1 0 0 0 0];

internalField   nonuniform List<vector> 
2600
(
(1.53605 0.370945 0)
(2.26647 0.37581 0)
(2.47075 0.238442 0)
(2.51401 0.19606 0)
(2.51158 0.16451 0)
(2.41867 0.105665 0)
(2.04456 0.0746164 0)
(1.82516 0.01051 0)
(1.70345 0.0513717 0)
(1.68498 0.176954 0)
(0.624138 -0.00673398 0)
(1.80347 0.245192 0)
(2.28999 0.215437 0)
(2.43344 0.179507 0)
(2.48337 0.130077 0)
(2.39727 0.102032 0)
(2.06334 0.0885211 0)
(1.83138 0.0173037 0)
(1.71849 0.0501519 0)
(1.67842 0.154524 0)
(0.190091 -0.00651988 0)
(1.20857 0.200674 0)
(1.92329 0.165146 0)
(2.23394 0.135067 0)
(2.36352 0.101102 0)
(2.31805 0.0983247 0)
(2.06273 0.103264 0)
(1.82498 0.0229717 0)
(1.72057 0.0459588 0)
(1.66772 0.140299 0)
(0.0381131 -0.0816927 0)
(0.686384 0.0609702 0)
(1.42553 0.115764 0)
(1.87492 0.114052 0)
(2.09758 0.0624005 0)
(2.1406 0.0929091 0)
(2.00445 0.110182 0)
(1.78036 0.0292528 0)
(1.68815 0.0435753 0)
(1.63773 0.120021 0)
(-0.0667596 -0.0648309 0)
(0.287789 0.040932 0)
(0.903586 0.0674291 0)
(1.40266 0.0634703 0)
(1.67795 0.0422233 0)
(1.8355 0.0772559 0)
(1.83375 0.112528 0)
(1.66765 0.0329211 0)
(1.59659 0.0427835 0)
(1.55972 0.0966117 0)
(-0.147231 -0.0631593 0)
(0.0253782 0.0223905 0)
(0.441681 0.0354576 0)
(0.885198 0.0378437 0)
(1.15827 0.00546573 0)
(1.39517 0.0426009 0)
(1.52705 0.104102 0)
(1.47506 0.0367883 0)
(1.43836 0.0376985 0)
(1.41364 0.0734653 0)
(-0.197974 -0.0391436 0)
(-0.142247 0.0102684 0)
(0.0852692 0.00425068 0)
(0.40049 0.00104667 0)
(0.627685 -0.00415353 0)
(0.902968 0.0472229 0)
(1.14096 0.0894749 0)
(1.23354 0.038103 0)
(1.24154 0.0322912 0)
(1.22207 0.0653714 0)
(-0.237047 -0.0308814 0)
(-0.248091 0.00391892 0)
(-0.155588 -0.00881506 0)
(0.0317104 -0.00312784 0)
(0.210514 -0.0211412 0)
(0.489028 0.0108921 0)
(0.786566 0.0621117 0)
(1.00412 0.0335511 0)
(1.06413 0.0246772 0)
(1.04866 0.0417673 0)
(-0.253912 -0.0162223 0)
(-0.304372 0.0134191 0)
(-0.284223 -0.0117542 0)
(-0.171004 -0.0108663 0)
(-0.0205379 -0.0185541 0)
(0.240582 0.00422584 0)
(0.55842 0.0478424 0)
(0.852037 0.0318481 0)
(0.955438 0.0192192 0)
(0.938291 0.0296838 0)
(-0.257162 -0.00276969 0)
(-0.32502 0.00606268 0)
(-0.325988 -0.00469504 0)
(-0.233314 -0.00431451 0)
(-0.092192 -0.0115678 0)
(0.160136 0.00220399 0)
(0.471544 0.0219617 0)
(0.796666 0.00547359 0)
(0.918699 0.010088 0)
(0.895775 0.00981945 0)
(-0.257123 0.00384354 0)
(-0.324902 -0.00449371 0)
(-0.32581 0.00729407 0)
(-0.232942 0.00513537 0)
(-0.0920392 0.00670011 0)
(0.160017 -0.00622285 0)
(0.470494 -0.0183107 0)
(0.797247 -0.0165716 0)
(0.918245 -0.0067492 0)
(0.895562 -0.0130708 0)
(-0.253892 0.0173243 0)
(-0.304101 -0.0119556 0)
(-0.283451 0.0130133 0)
(-0.168794 0.00877241 0)
(-0.0185631 0.0138639 0)
(0.239118 -0.00715414 0)
(0.555159 -0.0487871 0)
(0.853311 -0.0221875 0)
(0.956524 -0.0210571 0)
(0.937914 -0.0310551 0)
(-0.237052 0.0319963 0)
(-0.247644 -0.00246002 0)
(-0.153781 0.0114942 0)
(0.0372047 0.00586912 0)
(0.215268 0.0170529 0)
(0.485577 -0.0116607 0)
(0.780431 -0.064331 0)
(1.00279 -0.0284293 0)
(1.06468 -0.0252696 0)
(1.0477 -0.0376237 0)
(-0.198096 0.0404056 0)
(-0.141657 -0.00901976 0)
(0.0881268 -0.00316807 0)
(0.409412 -0.00250151 0)
(0.635126 0.000881398 0)
(0.898113 -0.0481638 0)
(1.13351 -0.086452 0)
(1.2312 -0.0366288 0)
(1.24196 -0.0336644 0)
(1.2229 -0.0623273 0)
(-0.147342 0.064284 0)
(0.0261365 -0.0214533 0)
(0.445305 -0.0350629 0)
(0.895665 -0.039518 0)
(1.16683 -0.00789359 0)
(1.39092 -0.0429539 0)
(1.51999 -0.103556 0)
(1.47441 -0.0358303 0)
(1.43966 -0.0378597 0)
(1.41565 -0.0779634 0)
(-0.0669377 0.0658968 0)
(0.288792 -0.0404732 0)
(0.907698 -0.0671149 0)
(1.41229 -0.0654446 0)
(1.68555 -0.0435002 0)
(1.83258 -0.0774589 0)
(1.82979 -0.108262 0)
(1.66767 -0.0345096 0)
(1.59796 -0.0436447 0)
(1.56162 -0.101101 0)
(0.0378634 0.0824385 0)
(0.687488 -0.0607445 0)
(1.42956 -0.116802 0)
(1.88212 -0.115872 0)
(2.10302 -0.064743 0)
(2.1383 -0.0892213 0)
(2.00354 -0.108536 0)
(1.78095 -0.0298996 0)
(1.68996 -0.0449269 0)
(1.63921 -0.115007 0)
(0.189288 0.00734093 0)
(1.20938 -0.201129 0)
(1.92688 -0.165654 0)
(2.23826 -0.137152 0)
(2.36639 -0.102223 0)
(2.31516 -0.094457 0)
(2.06318 -0.105205 0)
(1.82582 -0.024653 0)
(1.72243 -0.0445748 0)
(1.668 -0.135714 0)
(0.621934 0.00732443 0)
(1.80417 -0.245375 0)
(2.29237 -0.216315 0)
(2.43566 -0.182175 0)
(2.48372 -0.129824 0)
(2.39437 -0.103216 0)
(2.06453 -0.0915919 0)
(1.83241 -0.0164321 0)
(1.71951 -0.0467827 0)
(1.67716 -0.159646 0)
(1.53343 -0.369298 0)
(2.26704 -0.376476 0)
(2.47227 -0.238911 0)
(2.51518 -0.198792 0)
(2.51074 -0.166349 0)
(2.41628 -0.106391 0)
(2.04519 -0.0740567 0)
(1.82603 -0.00831747 0)
(1.70423 -0.0542588 0)
(1.68536 -0.179876 0)
(2.20068 -0.0323386 0)
(2.54443 -0.344776 0)
(2.53568 -0.300977 0)
(2.53842 -0.237803 0)
(2.51147 -0.193855 0)
(2.41759 -0.102554 0)
(2.02495 -0.0545052 0)
(1.82116 0.00209654 0)
(1.68899 -0.0621411 0)
(1.70088 -0.201099 0)
(2.20099 0.22459 0)
(2.61457 -0.301448 0)
(2.59213 -0.28557 0)
(2.56759 -0.248253 0)
(2.51797 -0.217294 0)
(2.42347 -0.11862 0)
(2.02126 -0.0482617 0)
(1.82676 0.0121089 0)
(1.6807 -0.0733299 0)
(1.72681 -0.226879 0)
(2.14545 0.3442 0)
(2.56795 -0.143324 0)
(2.61685 -0.293642 0)
(2.58645 -0.26531 0)
(2.53867 -0.238672 0)
(2.45472 -0.141126 0)
(2.0415 -0.0457273 0)
(1.84403 0.0244683 0)
(1.68417 -0.0927969 0)
(1.76164 -0.25412 0)
(2.08041 0.460995 0)
(2.52411 -0.0539215 0)
(2.62359 -0.250555 0)
(2.60232 -0.261332 0)
(2.56898 -0.260086 0)
(2.51459 -0.161169 0)
(2.08837 -0.0420486 0)
(1.87426 0.0333207 0)
(1.70106 -0.11602 0)
(1.80177 -0.283407 0)
(2.06237 0.517194 0)
(2.46706 0.0946952 0)
(2.62381 -0.230549 0)
(2.62109 -0.259855 0)
(2.60417 -0.273873 0)
(2.58573 -0.183895 0)
(2.15383 -0.037996 0)
(1.91552 0.0402821 0)
(1.72909 -0.147563 0)
(1.846 -0.310557 0)
(2.03668 0.591715 0)
(2.44329 0.171781 0)
(2.61583 -0.157566 0)
(2.64541 -0.246137 0)
(2.63351 -0.281439 0)
(2.64065 -0.191097 0)
(2.22173 -0.0253745 0)
(1.9677 0.043804 0)
(1.76997 -0.179306 0)
(1.89155 -0.335812 0)
(2.0155 0.641335 0)
(2.40764 0.280845 0)
(2.61312 -0.124333 0)
(2.66749 -0.230082 0)
(2.65557 -0.285889 0)
(2.66145 -0.219538 0)
(2.28414 -0.0138601 0)
(2.03237 0.0438017 0)
(1.82347 -0.215013 0)
(1.93715 -0.355046 0)
(1.99011 0.684576 0)
(2.38071 0.352685 0)
(2.59123 -0.0153896 0)
(2.68309 -0.202378 0)
(2.67033 -0.278926 0)
(2.66358 -0.240557 0)
(2.34071 -0.00415691 0)
(2.10511 0.0406129 0)
(1.89241 -0.245688 0)
(1.97998 -0.369069 0)
(1.97597 0.715498 0)
(2.35062 0.423864 0)
(2.58671 0.0210465 0)
(2.69232 -0.173818 0)
(2.6777 -0.281961 0)
(2.66533 -0.252926 0)
(2.38854 -0.0069091 0)
(2.17608 0.0329966 0)
(1.96933 -0.280048 0)
(2.01725 -0.378802 0)
(1.95005 0.749955 0)
(2.32319 0.478409 0)
(2.55952 0.110858 0)
(2.67955 -0.113535 0)
(2.67909 -0.250721 0)
(2.67705 -0.258818 0)
(2.43259 -0.0160339 0)
(2.24025 0.00826278 0)
(2.04724 -0.312089 0)
(2.0475 -0.383049 0)
(1.93732 0.771949 0)
(2.28773 0.536071 0)
(2.54394 0.158289 0)
(2.66083 -0.0620419 0)
(2.69207 -0.267284 0)
(2.68379 -0.267693 0)
(2.4776 -0.0393706 0)
(2.29486 -0.0291819 0)
(2.11796 -0.349924 0)
(2.06973 -0.386947 0)
(1.92518 0.794793 0)
(2.26736 0.566011 0)
(2.52037 0.218937 0)
(2.61792 0.00985606 0)
(2.71937 -0.244404 0)
(2.68358 -0.274534 0)
(2.51609 -0.0706871 0)
(2.32857 -0.0836993 0)
(2.18115 -0.375426 0)
(2.08522 -0.381907 0)
(1.89814 0.819671 0)
(2.22165 0.608812 0)
(2.48642 0.280575 0)
(2.59872 0.052179 0)
(2.72254 -0.250027 0)
(2.67361 -0.276435 0)
(2.56116 -0.108662 0)
(2.33767 -0.145042 0)
(2.22505 -0.400707 0)
(2.09333 -0.379836 0)
(1.89533 0.835795 0)
(2.20082 0.632059 0)
(2.46588 0.318746 0)
(2.57896 0.118264 0)
(2.68867 -0.193108 0)
(2.67469 -0.274631 0)
(2.60376 -0.1521 0)
(2.31839 -0.213976 0)
(2.24953 -0.411319 0)
(2.09604 -0.373091 0)
(1.89319 0.855861 0)
(2.15124 0.679509 0)
(2.42291 0.377135 0)
(2.56163 0.15694 0)
(2.67467 -0.173943 0)
(2.67867 -0.278792 0)
(2.61446 -0.197248 0)
(2.28061 -0.289528 0)
(2.25386 -0.428759 0)
(2.10212 -0.364744 0)
(1.91555 0.851956 0)
(2.12062 0.706643 0)
(2.38713 0.420692 0)
(2.53501 0.199674 0)
(2.64208 -0.100345 0)
(2.67544 -0.258671 0)
(2.63189 -0.229721 0)
(2.25358 -0.361004 0)
(2.24201 -0.444943 0)
(2.10284 -0.357965 0)
(1.97499 0.827768 0)
(2.10769 0.721462 0)
(2.36083 0.457046 0)
(2.50705 0.232091 0)
(2.62611 -0.064758 0)
(2.66979 -0.251681 0)
(2.62795 -0.266542 0)
(2.23301 -0.429232 0)
(2.22545 -0.450066 0)
(2.09492 -0.349003 0)
(2.03052 0.817143 0)
(2.10133 0.734081 0)
(2.31297 0.511116 0)
(2.48036 0.257603 0)
(2.58795 0.00273638 0)
(2.65562 -0.224047 0)
(2.61262 -0.292894 0)
(2.26566 -0.498051 0)
(2.21527 -0.458668 0)
(2.07991 -0.339958 0)
(2.07981 0.796873 0)
(2.08504 0.725746 0)
(2.28437 0.544728 0)
(2.4518 0.293506 0)
(2.5711 0.0382694 0)
(2.64348 -0.205328 0)
(2.59276 -0.316254 0)
(2.3073 -0.565448 0)
(2.20444 -0.464207 0)
(2.06355 -0.326462 0)
(2.15184 0.724835 0)
(2.07946 0.723419 0)
(2.24859 0.584728 0)
(2.43034 0.321152 0)
(2.54216 0.0943565 0)
(2.62574 -0.171837 0)
(2.579 -0.331066 0)
(2.32812 -0.6377 0)
(2.18733 -0.467538 0)
(2.05223 -0.322751 0)
(2.64186 0.10642 0)
(1.53373 0.383839 0)
(1.23942 0.562946 0)
(1.30119 0.673057 0)
(1.30078 0.740079 0)
(1.29454 0.749459 0)
(1.29138 0.747635 0)
(1.29239 0.747045 0)
(1.2984 0.742355 0)
(1.39752 0.756162 0)
(2.9554 0.0118942 0)
(2.08003 0.570084 0)
(1.18177 0.837283 0)
(1.22263 0.794416 0)
(1.25972 0.778505 0)
(1.27288 0.763467 0)
(1.28384 0.766993 0)
(1.28967 0.773144 0)
(1.29976 0.763275 0)
(1.40997 0.790544 0)
(2.97361 0.00641452 0)
(2.96925 0.0182559 0)
(1.92563 0.717169 0)
(1.31665 0.801453 0)
(1.33037 0.768867 0)
(1.32475 0.77064 0)
(1.32473 0.778939 0)
(1.32466 0.789843 0)
(1.33665 0.771673 0)
(1.45641 0.799688 0)
(2.98072 0.00836066 0)
(2.97933 0.00990625 0)
(2.92904 0.101729 0)
(1.68654 0.795056 0)
(1.36325 0.828871 0)
(1.37887 0.825705 0)
(1.36729 0.834589 0)
(1.37197 0.834386 0)
(1.39453 0.815324 0)
(1.51161 0.840876 0)
(2.98346 0.0109559 0)
(2.98243 0.0120773 0)
(2.9806 0.0147123 0)
(2.7485 0.30909 0)
(1.54052 0.805599 0)
(1.407 0.856818 0)
(1.41112 0.863107 0)
(1.42849 0.868534 0)
(1.46897 0.849843 0)
(1.57702 0.855888 0)
(2.98485 0.0117496 0)
(2.98419 0.0126793 0)
(2.98374 0.015128 0)
(2.98171 0.0163051 0)
(2.05563 0.665951 0)
(1.41527 0.875534 0)
(1.45084 0.884169 0)
(1.48619 0.880817 0)
(1.52753 0.871761 0)
(1.61303 0.87455 0)
(2.98811 0.0113467 0)
(2.98765 0.0126308 0)
(2.98742 0.0137705 0)
(2.98686 0.0159577 0)
(2.94269 0.0929357 0)
(1.75123 0.811449 0)
(1.49535 0.89453 0)
(1.51857 0.89718 0)
(1.55415 0.890357 0)
(1.62551 0.886367 0)
(2.99087 0.0116904 0)
(2.99088 0.0120357 0)
(2.99042 0.0141514 0)
(2.99055 0.0139239 0)
(2.98891 0.0174585 0)
(2.67471 0.407765 0)
(1.62095 0.872454 0)
(1.53012 0.89514 0)
(1.5648 0.893666 0)
(1.63007 0.892292 0)
(2.99365 0.0086583 0)
(2.99325 0.00963055 0)
(2.99307 0.0100055 0)
(2.99235 0.0113581 0)
(2.99177 0.0128668 0)
(2.99595 0.0233158 0)
(1.93985 0.776166 0)
(1.54839 0.900104 0)
(1.57765 0.897299 0)
(1.6375 0.89673 0)
(2.99476 0.00875628 0)
(2.99437 0.00936122 0)
(2.99403 0.00979657 0)
(2.99335 0.0110431 0)
(2.99294 0.0113991 0)
(2.99198 0.0136926 0)
(2.85193 0.242168 0)
(1.74381 0.85135 0)
(1.59004 0.904071 0)
(1.64185 0.904818 0)
(2.99563 0.00724175 0)
(2.99531 0.00760512 0)
(2.9949 0.00826275 0)
(2.99456 0.00873521 0)
(2.99417 0.0095868 0)
(2.99393 0.0101197 0)
(2.99292 0.0189942 0)
(2.12413 0.731644 0)
(1.60982 0.91571 0)
(1.64306 0.909146 0)
(2.99653 0.00546311 0)
(2.99638 0.00587089 0)
(2.99624 0.00630156 0)
(2.99604 0.0068736 0)
(2.9957 0.00766787 0)
(2.99536 0.00833208 0)
(2.99438 0.0104313 0)
(2.91249 0.193893 0)
(1.83223 0.85106 0)
(1.65444 0.90314 0)
(2.99758 0.00460258 0)
(2.99735 0.00510954 0)
(2.99717 0.00544145 0)
(2.9968 0.00609991 0)
(2.99649 0.00650511 0)
(2.996 0.00734804 0)
(2.99562 0.00781689 0)
(2.99498 0.0187455 0)
(2.18284 0.734249 0)
(1.67416 0.922398 0)
(2.99804 0.00393447 0)
(2.99785 0.00415643 0)
(2.99758 0.00457771 0)
(2.99727 0.00499704 0)
(2.99701 0.00534121 0)
(2.99656 0.00615295 0)
(2.99636 0.00633134 0)
(2.9956 0.00839275 0)
(2.91335 0.245172 0)
(1.83986 0.860802 0)
(2.9984 0.00283387 0)
(2.99831 0.00296801 0)
(2.99812 0.00336644 0)
(2.998 0.00354563 0)
(2.99766 0.00426829 0)
(2.99746 0.00455783 0)
(2.99703 0.00537947 0)
(2.99679 0.00622936 0)
(3.00769 0.0236607 0)
(2.01346 0.786264 0)
(2.9988 0.00219782 0)
(2.99867 0.0024729 0)
(2.99855 0.00270543 0)
(2.99837 0.00305299 0)
(2.99815 0.00345137 0)
(2.99795 0.00383504 0)
(2.99756 0.00468884 0)
(2.99734 0.00496639 0)
(2.99642 0.00841359 0)
(2.48948 0.580426 0)
(2.99906 0.00185675 0)
(2.99899 0.00194625 0)
(2.99886 0.00219665 0)
(2.99874 0.00238057 0)
(2.99858 0.0026843 0)
(2.9984 0.00298537 0)
(2.99818 0.00343262 0)
(2.99793 0.00381017 0)
(2.9976 0.00498416 0)
(3.03081 0.140454 0)
(2.99934 0.00126314 0)
(2.99929 0.00134837 0)
(2.99918 0.00157601 0)
(2.99912 0.00167728 0)
(2.99894 0.00205628 0)
(2.99882 0.00223842 0)
(2.99855 0.00280442 0)
(2.99834 0.0031066 0)
(2.99825 0.00431401 0)
(3.03144 -0.00884214 0)
(2.9995 0.000970233 0)
(2.99945 0.00106676 0)
(2.99938 0.00121515 0)
(2.99931 0.00135646 0)
(2.99918 0.00162543 0)
(2.99908 0.00178576 0)
(2.99888 0.00219549 0)
(2.99876 0.00248037 0)
(2.99794 0.00293175 0)
(2.99959 0.00370878 0)
(2.99963 0.000737852 0)
(2.9996 0.000794892 0)
(2.99954 0.00091446 0)
(2.99949 0.000993694 0)
(2.99938 0.00122797 0)
(2.99933 0.00129921 0)
(2.99912 0.00176077 0)
(2.99908 0.00182203 0)
(2.99865 0.00264775 0)
(2.99844 0.0027882 0)
(3 -4.66826e-14 0)
(3 -3.90881e-14 0)
(3 -2.05959e-14 0)
(3 -1.72661e-13 0)
(3 -2.38004e-13 0)
(3 -7.11824e-14 0)
(3 3.41832e-13 0)
(3 8.50573e-12 0)
(3 -2.31402e-08 0)
(2.97093 0.00121072 0)
(3 -5.40762e-15 0)
(3 -1.23973e-13 0)
(3 -1.22754e-13 0)
(3 -1.73017e-13 0)
(3 -1.7285e-13 0)
(3 -9.6588e-14 0)
(3 8.99642e-13 0)
(3 3.62769e-11 0)
(3 -5.63124e-08 0)
(2.97544 0.0025051 0)
(3 5.66365e-14 0)
(3 -1.98562e-13 0)
(3 -1.79449e-13 0)
(3 -3.18717e-14 0)
(3 -1.82089e-13 0)
(3 -1.18564e-13 0)
(3 1.55412e-12 0)
(3 6.76811e-11 0)
(3 -3.92432e-08 0)
(2.98115 0.0041814 0)
(3 2.53741e-15 0)
(3 -3.0101e-14 0)
(3 -1.23176e-13 0)
(3 -8.60391e-14 0)
(3 -1.41368e-13 0)
(3 -1.56017e-13 0)
(3 2.32559e-12 0)
(3 1.0212e-10 0)
(3 -6.88436e-08 0)
(2.9865 0.00488929 0)
(3 -2.9116e-14 0)
(3 1.60554e-14 0)
(3 8.91594e-14 0)
(3 -1.42707e-13 0)
(3 -1.78954e-13 0)
(3 -2.51143e-13 0)
(3 2.89325e-12 0)
(3 1.48462e-10 0)
(3 -7.91044e-08 0)
(2.98929 0.00576221 0)
(3 -4.87889e-14 0)
(3 4.47525e-14 0)
(3 2.15295e-13 0)
(3 -1.51659e-13 0)
(3 -3.09627e-13 0)
(3 -1.8548e-13 0)
(3 3.59778e-12 0)
(3 1.89278e-10 0)
(3 -9.09604e-08 0)
(2.99053 0.00682647 0)
(3 -7.59357e-14 0)
(3 8.10371e-14 0)
(3 1.12965e-13 0)
(3 -5.39943e-14 0)
(3 -4.04412e-13 0)
(3 -1.33115e-13 0)
(3 4.21273e-12 0)
(3 2.37508e-10 0)
(3 -9.74746e-08 0)
(2.99173 0.00708278 0)
(3 -2.7784e-14 0)
(3 9.2895e-14 0)
(3 -2.96544e-14 0)
(3 1.04414e-15 0)
(3 -1.156e-13 0)
(3 -9.31793e-14 0)
(3 4.61167e-12 0)
(3 2.83634e-10 0)
(3 -1.02034e-07 0)
(2.99379 0.00653517 0)
(3 -8.74327e-16 0)
(3 6.02054e-14 0)
(3 -9.30191e-15 0)
(3 9.71745e-14 0)
(3 1.8327e-13 0)
(3 -1.30618e-14 0)
(3 4.8518e-12 0)
(3 3.23491e-10 0)
(3 -1.05053e-07 0)
(2.99531 0.00662411 0)
(3 2.11928e-14 0)
(3 5.42984e-14 0)
(3 1.47459e-13 0)
(3 1.05507e-13 0)
(3 2.6852e-13 0)
(3 1.22622e-13 0)
(3 5.28682e-12 0)
(3 3.65006e-10 0)
(3 -1.07052e-07 0)
(2.99692 0.00481419 0)
(3 5.29644e-14 0)
(3 -1.55412e-14 0)
(3 6.60794e-14 0)
(3 7.45804e-14 0)
(3 1.31298e-13 0)
(3 5.89068e-14 0)
(3 5.80517e-12 0)
(3 4.02941e-10 0)
(3 -1.09277e-07 0)
(2.99736 0.00457206 0)
(3 6.72783e-15 0)
(3 -1.39463e-13 0)
(3 -1.14447e-13 0)
(3 3.08718e-14 0)
(3 -2e-14 0)
(3 -4.23167e-14 0)
(3 6.03766e-12 0)
(3 4.39508e-10 0)
(3 -1.10284e-07 0)
(2.9976 0.00380323 0)
(3 -7.25119e-15 0)
(3 -2.53934e-14 0)
(3 -1.28615e-13 0)
(3 -1.0979e-13 0)
(3 -1.63777e-13 0)
(3 1.64537e-14 0)
(3 6.21692e-12 0)
(3 4.74846e-10 0)
(3 -1.1177e-07 0)
(2.99854 0.00256721 0)
(3 1.71427e-14 0)
(3 -1.84971e-14 0)
(3 -1.83097e-13 0)
(3 -1.81514e-13 0)
(3 4.71049e-14 0)
(3 2.42659e-13 0)
(3 6.20142e-12 0)
(3 5.06474e-10 0)
(3 -1.12312e-07 0)
(2.99887 0.00233085 0)
(3 4.91137e-14 0)
(3 -6.05605e-14 0)
(3 -1.91251e-13 0)
(3 -1.01795e-13 0)
(3 1.6904e-13 0)
(3 2.49831e-13 0)
(3 5.90394e-12 0)
(3 5.33165e-10 0)
(3 -1.12967e-07 0)
(2.99901 0.00177919 0)
(3 -2.7116e-14 0)
(3 -8.05545e-14 0)
(3 -1.26662e-13 0)
(3 -5.59922e-15 0)
(3 -1.19152e-14 0)
(3 2.0089e-13 0)
(3 5.69143e-12 0)
(3 5.56721e-10 0)
(3 -1.12836e-07 0)
(2.99928 0.00127154 0)
(3 -1.10473e-13 0)
(3 -6.54012e-14 0)
(3 8.45793e-16 0)
(3 -1.64057e-14 0)
(3 1.60053e-13 0)
(3 1.97722e-13 0)
(3 5.11104e-12 0)
(3 5.75399e-10 0)
(3 -1.12514e-07 0)
(2.99945 0.00107842 0)
(3 4.82015e-14 0)
(3 -7.70858e-15 0)
(3 1.35937e-13 0)
(3 1.24205e-13 0)
(3 3.51857e-13 0)
(3 1.10245e-13 0)
(3 4.25452e-12 0)
(3 5.91474e-10 0)
(3 -1.11562e-07 0)
(2.9996 0.000772072 0)
(3 1.05468e-13 0)
(3 7.43748e-14 0)
(3 4.28001e-14 0)
(3 1.71266e-13 0)
(3 3.07124e-13 0)
(3 1.61493e-13 0)
(3 3.27207e-12 0)
(3 6.03687e-10 0)
(3 -1.1038e-07 0)
(2.9997 0.000574085 0)
(3 -8.89267e-15 0)
(3 1.71514e-13 0)
(3 5.40351e-14 0)
(3 1.25668e-13 0)
(3 1.03873e-13 0)
(3 9.22264e-14 0)
(3 1.96823e-12 0)
(3 6.11592e-10 0)
(3 -1.08773e-07 0)
(2.99978 0.000423711 0)
(3 -5.93573e-14 0)
(3 -1.40698e-14 0)
(3 -1.04731e-13 0)
(3 -9.36974e-14 0)
(3 -1.23239e-14 0)
(3 -4.00835e-14 0)
(3 -2.22171e-12 0)
(3 -6.10033e-10 0)
(3 1.08886e-07 0)
(2.99978 -0.000423752 0)
(3 -1.65114e-13 0)
(3 -1.12815e-13 0)
(3 1.05916e-13 0)
(3 1.37594e-13 0)
(3 1.81199e-14 0)
(3 1.13319e-14 0)
(3 -3.37298e-12 0)
(3 -6.01862e-10 0)
(3 1.10299e-07 0)
(2.9997 -0.000574112 0)
(3 -2.74488e-14 0)
(3 1.48772e-13 0)
(3 1.96714e-13 0)
(3 2.00212e-13 0)
(3 1.01597e-13 0)
(3 1.01241e-13 0)
(3 -4.27682e-12 0)
(3 -5.89108e-10 0)
(3 1.11686e-07 0)
(2.9996 -0.000772141 0)
(3 4.04985e-14 0)
(3 2.20607e-13 0)
(3 1.75868e-13 0)
(3 -9.97468e-16 0)
(3 6.77402e-14 0)
(3 7.14846e-14 0)
(3 -5.13421e-12 0)
(3 -5.73779e-10 0)
(3 1.12387e-07 0)
(2.99945 -0.00107851 0)
(3 9.43667e-15 0)
(3 6.84419e-15 0)
(3 2.56702e-14 0)
(3 -7.82367e-15 0)
(3 1.0733e-14 0)
(3 4.4797e-14 0)
(3 -5.6935e-12 0)
(3 -5.55747e-10 0)
(3 1.12977e-07 0)
(2.99928 -0.00127176 0)
(3 2.83156e-14 0)
(3 1.06219e-14 0)
(3 6.00081e-14 0)
(3 -9.881e-15 0)
(3 7.58359e-14 0)
(3 1.58686e-13 0)
(3 -5.60271e-12 0)
(3 -5.32257e-10 0)
(3 1.12818e-07 0)
(2.99901 -0.00177926 0)
(3 2.02251e-14 0)
(3 7.13103e-14 0)
(3 6.92979e-14 0)
(3 -6.58981e-14 0)
(3 8.00348e-14 0)
(3 2.60736e-13 0)
(3 -5.56291e-12 0)
(3 -5.04761e-10 0)
(3 1.12567e-07 0)
(2.99887 -0.00233123 0)
(3 2.09286e-14 0)
(3 -3.23217e-14 0)
(3 2.69964e-14 0)
(3 -3.58212e-14 0)
(3 -5.91639e-14 0)
(3 7.57415e-14 0)
(3 -5.87193e-12 0)
(3 -4.74029e-10 0)
(3 1.11586e-07 0)
(2.99854 -0.00256744 0)
(3 -5.82235e-14 0)
(3 -3.43795e-14 0)
(3 1.9072e-14 0)
(3 -9.97833e-14 0)
(3 -1.76403e-13 0)
(3 5.11776e-14 0)
(3 -5.94296e-12 0)
(3 -4.39383e-10 0)
(3 1.10654e-07 0)
(2.9976 -0.00380368 0)
(3 -3.61424e-14 0)
(3 -2.23603e-15 0)
(3 7.78628e-15 0)
(3 -4.23352e-14 0)
(3 -1.54662e-13 0)
(3 -5.16123e-14 0)
(3 -5.69865e-12 0)
(3 -4.03136e-10 0)
(3 1.08878e-07 0)
(2.99736 -0.00457226 0)
(3 6.02398e-14 0)
(3 -6.17523e-14 0)
(3 -3.48647e-14 0)
(3 1.98307e-13 0)
(3 9.93841e-14 0)
(3 -6.69564e-14 0)
(3 -5.43706e-12 0)
(3 -3.6489e-10 0)
(3 1.0749e-07 0)
(2.99692 -0.00481462 0)
(3 1.07603e-13 0)
(3 8.31606e-14 0)
(3 -2.09651e-14 0)
(3 1.20348e-13 0)
(3 1.95027e-13 0)
(3 6.85174e-14 0)
(3 -5.11473e-12 0)
(3 -3.22573e-10 0)
(3 1.04747e-07 0)
(2.99531 -0.00662466 0)
(3 1.70324e-14 0)
(3 1.59347e-13 0)
(3 6.69751e-14 0)
(3 4.88389e-14 0)
(3 8.41883e-14 0)
(3 9.93216e-14 0)
(3 -4.5814e-12 0)
(3 -2.81398e-10 0)
(3 1.03359e-07 0)
(2.99379 -0.00653575 0)
(3 -1.63198e-14 0)
(3 -3.19504e-14 0)
(3 8.28531e-14 0)
(3 -2.16567e-14 0)
(3 1.27017e-13 0)
(3 2.11083e-13 0)
(3 -3.98896e-12 0)
(3 -2.34747e-10 0)
(3 9.77633e-08 0)
(2.99173 -0.00708351 0)
(3 -4.32517e-15 0)
(3 -1.84166e-13 0)
(3 -9.04859e-14 0)
(3 -9.00713e-14 0)
(3 5.53779e-14 0)
(3 5.61262e-14 0)
(3 -3.35556e-12 0)
(3 -1.88672e-10 0)
(3 9.06548e-08 0)
(2.99052 -0.0068274 0)
(3 1.78541e-14 0)
(3 -2.62617e-14 0)
(3 -3.41161e-14 0)
(3 6.40789e-14 0)
(3 3.69073e-14 0)
(3 2.4842e-14 0)
(3 -2.80057e-12 0)
(3 -1.48008e-10 0)
(3 7.87218e-08 0)
(2.98929 -0.00576106 0)
(3 -3.26914e-14 0)
(3 4.07919e-14 0)
(3 1.60139e-13 0)
(3 2.40028e-13 0)
(3 1.03841e-13 0)
(3 -3.33429e-14 0)
(3 -2.27861e-12 0)
(3 -1.03469e-10 0)
(3 6.89266e-08 0)
(2.98649 -0.00489534 0)
(3 -5.87681e-14 0)
(3 -3.53246e-15 0)
(3 1.02707e-13 0)
(3 2.10932e-13 0)
(3 6.89611e-14 0)
(3 -1.54592e-13 0)
(3 -1.66049e-12 0)
(3 -7.10771e-11 0)
(3 3.92694e-08 0)
(2.98114 -0.00417039 0)
(3 2.82032e-14 0)
(3 1.17099e-13 0)
(3 -1.54369e-13 0)
(3 -1.09754e-14 0)
(3 7.77247e-14 0)
(3 -1.34467e-13 0)
(3 -1.05037e-12 0)
(3 -3.88172e-11 0)
(3 5.64122e-08 0)
(2.97543 -0.00251015 0)
(3 6.82108e-15 0)
(3 6.40488e-14 0)
(3 -1.86972e-13 0)
(3 -2.06321e-13 0)
(3 -1.42634e-13 0)
(3 -7.496e-14 0)
(3 -2.15461e-13 0)
(3 -1.30946e-11 0)
(3 2.31491e-08 0)
(2.97092 -0.00120749 0)
(2.99963 -0.000738013 0)
(2.9996 -0.000794952 0)
(2.99954 -0.000914712 0)
(2.99949 -0.000993681 0)
(2.99938 -0.00122825 0)
(2.99933 -0.0012992 0)
(2.99912 -0.00176089 0)
(2.99908 -0.00182198 0)
(2.99865 -0.00264788 0)
(2.99844 -0.00278846 0)
(2.9995 -0.000970325 0)
(2.99945 -0.00106678 0)
(2.99938 -0.00121527 0)
(2.99931 -0.00135647 0)
(2.99918 -0.00162543 0)
(2.99908 -0.001786 0)
(2.99888 -0.00219531 0)
(2.99876 -0.00248112 0)
(2.99794 -0.00293157 0)
(2.99959 -0.00370916 0)
(2.99934 -0.00126336 0)
(2.99929 -0.0013485 0)
(2.99918 -0.00157617 0)
(2.99912 -0.00167736 0)
(2.99894 -0.00205632 0)
(2.99882 -0.00223849 0)
(2.99855 -0.00280452 0)
(2.99834 -0.00310638 0)
(2.99825 -0.00431473 0)
(3.0314 0.00884114 0)
(2.99906 -0.00185695 0)
(2.99899 -0.00194643 0)
(2.99886 -0.00219682 0)
(2.99874 -0.00238074 0)
(2.99858 -0.00268462 0)
(2.9984 -0.00298559 0)
(2.99818 -0.00343302 0)
(2.99793 -0.00381045 0)
(2.9976 -0.00498449 0)
(3.03093 -0.140269 0)
(2.9988 -0.00219796 0)
(2.99867 -0.00247306 0)
(2.99855 -0.00270571 0)
(2.99837 -0.00305312 0)
(2.99815 -0.00345171 0)
(2.99795 -0.00383508 0)
(2.99756 -0.0046891 0)
(2.99734 -0.00496646 0)
(2.99642 -0.00841133 0)
(2.48982 -0.580287 0)
(2.9984 -0.00283407 0)
(2.99831 -0.00296819 0)
(2.99812 -0.0033667 0)
(2.998 -0.00354596 0)
(2.99766 -0.00426892 0)
(2.99746 -0.00455857 0)
(2.99703 -0.00538027 0)
(2.99679 -0.00623014 0)
(3.00767 -0.0236518 0)
(2.01354 -0.786247 0)
(2.99804 -0.00393477 0)
(2.99785 -0.00415671 0)
(2.99758 -0.00457818 0)
(2.99727 -0.00499759 0)
(2.99701 -0.00534164 0)
(2.99656 -0.00615338 0)
(2.99636 -0.00633201 0)
(2.9956 -0.00839316 0)
(2.91346 -0.245027 0)
(1.83992 -0.860779 0)
(2.99758 -0.00460285 0)
(2.99735 -0.00511004 0)
(2.99717 -0.0054421 0)
(2.9968 -0.00610056 0)
(2.99649 -0.00650594 0)
(2.996 -0.00734951 0)
(2.99562 -0.00781794 0)
(2.99497 -0.0187441 0)
(2.18307 -0.734176 0)
(1.6742 -0.922409 0)
(2.99653 -0.00546354 0)
(2.99638 -0.00587159 0)
(2.99624 -0.00630214 0)
(2.99604 -0.00687441 0)
(2.9957 -0.00766895 0)
(2.99536 -0.00833333 0)
(2.99438 -0.0104321 0)
(2.91254 -0.19381 0)
(1.8323 -0.851053 0)
(1.65447 -0.903151 0)
(2.99563 -0.00724257 0)
(2.9953 -0.00760605 0)
(2.9949 -0.00826372 0)
(2.99456 -0.0087361 0)
(2.99417 -0.00958826 0)
(2.99393 -0.010121 0)
(2.99292 -0.0189945 0)
(2.1243 -0.731588 0)
(1.60986 -0.915718 0)
(1.64309 -0.909159 0)
(2.99476 -0.00875688 0)
(2.99437 -0.00936224 0)
(2.99403 -0.00979773 0)
(2.99335 -0.0110442 0)
(2.99294 -0.0114005 0)
(2.99198 -0.013694 0)
(2.85196 -0.24213 0)
(1.74386 -0.851359 0)
(1.59008 -0.904089 0)
(1.64188 -0.904837 0)
(2.99365 -0.00865934 0)
(2.99325 -0.00963161 0)
(2.99307 -0.0100063 0)
(2.99235 -0.0113595 0)
(2.99177 -0.0128684 0)
(2.99594 -0.0233181 0)
(1.93994 -0.776155 0)
(1.54841 -0.900125 0)
(1.57768 -0.897319 0)
(1.63752 -0.896746 0)
(2.99087 -0.0116917 0)
(2.99088 -0.0120374 0)
(2.99042 -0.0141533 0)
(2.99054 -0.0139252 0)
(2.98891 -0.0174599 0)
(2.67468 -0.407768 0)
(1.62101 -0.87246 0)
(1.53016 -0.895155 0)
(1.56483 -0.893683 0)
(1.63008 -0.892311 0)
(2.98811 -0.0113479 0)
(2.98765 -0.012632 0)
(2.98742 -0.0137714 0)
(2.98686 -0.01596 0)
(2.94265 -0.0929741 0)
(1.75124 -0.811465 0)
(1.49538 -0.894547 0)
(1.5186 -0.897199 0)
(1.55418 -0.890374 0)
(1.62554 -0.886373 0)
(2.98485 -0.0117512 0)
(2.98418 -0.0126808 0)
(2.98374 -0.0151298 0)
(2.98171 -0.0163064 0)
(2.05552 -0.665996 0)
(1.41532 -0.875544 0)
(1.45088 -0.884177 0)
(1.48622 -0.880833 0)
(1.52755 -0.871779 0)
(1.61305 -0.874569 0)
(2.98346 -0.0109551 0)
(2.98243 -0.0120776 0)
(2.9806 -0.0147133 0)
(2.74839 -0.309233 0)
(1.54046 -0.805625 0)
(1.40703 -0.85684 0)
(1.41113 -0.863119 0)
(1.42851 -0.868542 0)
(1.46899 -0.849841 0)
(1.57705 -0.855883 0)
(2.98071 -0.00836455 0)
(2.97932 -0.00990717 0)
(2.92898 -0.101788 0)
(1.6865 -0.795077 0)
(1.36324 -0.828873 0)
(1.37887 -0.825714 0)
(1.36728 -0.8346 0)
(1.37197 -0.83439 0)
(1.39454 -0.815318 0)
(1.51162 -0.840872 0)
(2.9736 -0.00640837 0)
(2.96923 -0.0182834 0)
(1.92548 -0.717209 0)
(1.31663 -0.801446 0)
(1.33036 -0.768853 0)
(1.32474 -0.77064 0)
(1.32471 -0.778949 0)
(1.32465 -0.789843 0)
(1.33665 -0.771659 0)
(1.45642 -0.799674 0)
(2.95534 -0.0119369 0)
(2.07964 -0.570243 0)
(1.18176 -0.837271 0)
(1.22261 -0.794383 0)
(1.25971 -0.77848 0)
(1.27287 -0.763455 0)
(1.28383 -0.766995 0)
(1.28965 -0.773141 0)
(1.29975 -0.763264 0)
(1.40997 -0.79054 0)
(2.6416 -0.106498 0)
(1.53344 -0.383853 0)
(1.23941 -0.562974 0)
(1.30115 -0.673054 0)
(1.30075 -0.740054 0)
(1.29453 -0.749446 0)
(1.29137 -0.747627 0)
(1.29237 -0.747036 0)
(1.29839 -0.742342 0)
(1.39753 -0.756156 0)
(2.15203 -0.724514 0)
(2.07959 -0.723484 0)
(2.24871 -0.584814 0)
(2.43032 -0.321386 0)
(2.54224 -0.0944427 0)
(2.62582 0.171896 0)
(2.57912 0.331212 0)
(2.32818 0.637912 0)
(2.18725 0.467865 0)
(2.05213 0.322762 0)
(2.07978 -0.796801 0)
(2.08513 -0.725809 0)
(2.28443 -0.544821 0)
(2.45182 -0.293572 0)
(2.57111 -0.0383833 0)
(2.64351 0.205307 0)
(2.59283 0.316407 0)
(2.30748 0.565531 0)
(2.20444 0.464278 0)
(2.06359 0.326687 0)
(2.03061 -0.817129 0)
(2.10135 -0.734126 0)
(2.31297 -0.511203 0)
(2.48024 -0.257848 0)
(2.58798 -0.00287184 0)
(2.6557 0.22413 0)
(2.61262 0.293082 0)
(2.2659 0.49814 0)
(2.21531 0.458905 0)
(2.07997 0.340296 0)
(1.97508 -0.827787 0)
(2.10769 -0.721505 0)
(2.36089 -0.457051 0)
(2.50696 -0.232392 0)
(2.62612 0.0644123 0)
(2.66988 0.251603 0)
(2.62785 0.266746 0)
(2.23319 0.429759 0)
(2.22539 0.45016 0)
(2.09499 0.3491 0)
(1.91565 -0.851964 0)
(2.12059 -0.706634 0)
(2.38706 -0.420938 0)
(2.53494 -0.200046 0)
(2.64226 0.100194 0)
(2.67562 0.25891 0)
(2.63205 0.230104 0)
(2.25363 0.361682 0)
(2.24186 0.445005 0)
(2.10283 0.357855 0)
(1.89324 -0.855881 0)
(2.15107 -0.679623 0)
(2.42307 -0.377218 0)
(2.56164 -0.157188 0)
(2.6748 0.173411 0)
(2.67885 0.278893 0)
(2.61484 0.197793 0)
(2.28037 0.290315 0)
(2.25377 0.428799 0)
(2.10194 0.364442 0)
(1.89538 -0.835824 0)
(2.201 -0.631982 0)
(2.46575 -0.319123 0)
(2.57882 -0.118731 0)
(2.68899 0.192869 0)
(2.67484 0.274868 0)
(2.60419 0.152806 0)
(2.31847 0.214619 0)
(2.24957 0.411366 0)
(2.09577 0.372778 0)
(1.89819 -0.819663 0)
(2.22156 -0.609026 0)
(2.48646 -0.280522 0)
(2.59868 -0.0524267 0)
(2.72286 0.249958 0)
(2.67362 0.276631 0)
(2.56121 0.108911 0)
(2.33764 0.145548 0)
(2.22525 0.401091 0)
(2.09319 0.379915 0)
(1.92509 -0.794842 0)
(2.26765 -0.565792 0)
(2.52014 -0.219196 0)
(2.61771 -0.0104522 0)
(2.7197 0.24407 0)
(2.68361 0.274652 0)
(2.51627 0.0708003 0)
(2.32867 0.0837189 0)
(2.1814 0.376379 0)
(2.08538 0.382067 0)
(1.93751 -0.77187 0)
(2.28767 -0.536239 0)
(2.54386 -0.158233 0)
(2.66069 0.0614598 0)
(2.69229 0.266915 0)
(2.68416 0.267739 0)
(2.47773 0.0395817 0)
(2.29508 0.0289111 0)
(2.11835 0.350374 0)
(2.06999 0.387466 0)
(1.95005 -0.749997 0)
(2.32339 -0.478147 0)
(2.55928 -0.111418 0)
(2.67957 0.113399 0)
(2.67925 0.25036 0)
(2.6772 0.258785 0)
(2.43276 0.0165832 0)
(2.2406 -0.00831252 0)
(2.04775 0.311788 0)
(2.04771 0.383286 0)
(1.97615 -0.715417 0)
(2.35046 -0.424002 0)
(2.58678 -0.0209311 0)
(2.69218 0.173296 0)
(2.67752 0.28126 0)
(2.66529 0.253039 0)
(2.38885 0.00764356 0)
(2.17648 -0.0326477 0)
(1.96986 0.279593 0)
(2.0174 0.378664 0)
(1.99021 -0.68452 0)
(2.38056 -0.352821 0)
(2.59112 0.0150629 0)
(2.68294 0.201714 0)
(2.67005 0.278492 0)
(2.6634 0.240866 0)
(2.34121 0.00452953 0)
(2.10547 -0.0407434 0)
(1.89277 0.246162 0)
(1.9802 0.368744 0)
(2.01556 -0.641329 0)
(2.40766 -0.280686 0)
(2.61308 0.124653 0)
(2.66731 0.22889 0)
(2.65537 0.284885 0)
(2.66149 0.220001 0)
(2.28463 0.0152503 0)
(2.03252 -0.0442381 0)
(1.82372 0.215238 0)
(1.93735 0.35523 0)
(2.03684 -0.591537 0)
(2.44317 -0.171896 0)
(2.61551 0.156729 0)
(2.64531 0.245219 0)
(2.63346 0.280758 0)
(2.64125 0.191428 0)
(2.22166 0.026681 0)
(1.96743 -0.0437905 0)
(1.76968 0.179417 0)
(1.8917 0.336356 0)
(2.06237 -0.517188 0)
(2.46711 -0.0945388 0)
(2.62368 0.230785 0)
(2.62101 0.257949 0)
(2.60432 0.272661 0)
(2.58673 0.182991 0)
(2.15384 0.0391051 0)
(1.91487 -0.0396109 0)
(1.72868 0.146652 0)
(1.84605 0.310908 0)
(2.08052 -0.460732 0)
(2.52399 0.0536901 0)
(2.62332 0.249677 0)
(2.60202 0.259935 0)
(2.56924 0.259387 0)
(2.51566 0.160003 0)
(2.08857 0.0400718 0)
(1.87344 -0.0333414 0)
(1.70071 0.116345 0)
(1.8019 0.28287 0)
(2.14538 -0.344195 0)
(2.5678 0.143579 0)
(2.61637 0.292595 0)
(2.58606 0.263507 0)
(2.5392 0.237958 0)
(2.45586 0.13993 0)
(2.04141 0.0440142 0)
(1.84324 -0.0253808 0)
(1.68408 0.0947228 0)
(1.76197 0.254482 0)
(2.2014 -0.223962 0)