/*--------------------------------*- C++ -*----------------------------------*\
  =========                 |
  \\      /  F ield         | OpenFOAM: The Open Source CFD Toolbox
   \\    /   O peration     | Website:  https://openfoam.org
    \\  /    A nd           | Version:  7
     \\/     M anipulation  |
\*---------------------------------------------------------------------------*/
FoamFile
{
    version     2.0;
    format      ascii;
    class       volVectorField;
    location    "1";
    object      U;
}
// * * * * * * * * * * * * * * * * * * * * * * * * * * * * * * * * * * * * * //

dimensions      [0 1 -1 0 0 0 0];

internalField   nonuniform List<vector> 
2600
(
(1.53571 0.370656 0)
(2.26654 0.375843 0)
(2.47105 0.238497 0)
(2.51426 0.197024 0)
(2.5111 0.16516 0)
(2.41793 0.106057 0)
(2.04456 0.0732831 0)
(1.82476 0.00825214 0)
(1.70318 0.0549155 0)
(1.68524 0.178812 0)
(0.623821 -0.0068634 0)
(1.80357 0.245062 0)
(2.29044 0.215586 0)
(2.43392 0.180708 0)
(2.48317 0.128447 0)
(2.39615 0.104327 0)
(2.06414 0.0916316 0)
(1.83114 0.0160556 0)
(1.71843 0.0474216 0)
(1.67692 0.160399 0)
(0.189946 -0.00668687 0)
(1.2087 0.200787 0)
(1.92404 0.165168 0)
(2.2346 0.135921 0)
(2.36377 0.10047 0)
(2.31644 0.0958561 0)
(2.06351 0.106655 0)
(1.82499 0.0244906 0)
(1.72161 0.0435784 0)
(1.66734 0.137299 0)
(0.0380581 -0.0818819 0)
(0.686662 0.0608105 0)
(1.42635 0.116038 0)
(1.87629 0.114321 0)
(2.09772 0.0627192 0)
(2.13887 0.0892704 0)
(2.005 0.109954 0)
(1.78102 0.0303951 0)
(1.68962 0.0448891 0)
(1.63865 0.113566 0)
(-0.0667836 -0.0649806 0)
(0.288054 0.040855 0)
(0.904418 0.0672938 0)
(1.40478 0.0640908 0)
(1.67772 0.0419513 0)
(1.83313 0.0772003 0)
(1.83345 0.109399 0)
(1.66921 0.0352526 0)
(1.59789 0.0428524 0)
(1.56089 0.0998725 0)
(-0.147251 -0.0632761 0)
(0.0255989 0.0221821 0)
(0.442448 0.0353386 0)
(0.887554 0.0382005 0)
(1.15789 0.00547154 0)
(1.39162 0.04215 0)
(1.52578 0.103743 0)
(1.47736 0.0366119 0)
(1.43971 0.0379552 0)
(1.41486 0.0783064 0)
(-0.197979 -0.039227 0)
(-0.142097 0.0101104 0)
(0.0859049 0.00394183 0)
(0.402442 0.00158897 0)
(0.627148 -0.00310999 0)
(0.898921 0.0470775 0)
(1.13965 0.0868376 0)
(1.2347 0.0380368 0)
(1.24233 0.0335885 0)
(1.22204 0.0620576 0)
(-0.237046 -0.0309685 0)
(-0.247981 0.00364672 0)
(-0.155117 -0.00962392 0)
(0.0328666 -0.003419 0)
(0.21011 -0.0198305 0)
(0.486335 0.00955533 0)
(0.785128 0.0648481 0)
(1.00586 0.0282844 0)
(1.06486 0.026944 0)
(1.04675 0.0391824 0)
(-0.253907 -0.0163934 0)
(-0.304306 0.01318 0)
(-0.283958 -0.0119094 0)
(-0.170595 -0.0101838 0)
(-0.020798 -0.0172209 0)
(0.239581 0.00412662 0)
(0.557433 0.049027 0)
(0.855089 0.0235589 0)
(0.956355 0.0222062 0)
(0.936685 0.0318678 0)
(-0.257172 -0.0029822 0)
(-0.324992 0.00581988 0)
(-0.325874 -0.00523376 0)
(-0.233304 -0.0041617 0)
(-0.0924772 -0.00869276 0)
(0.160097 0.00377232 0)
(0.470989 0.0189135 0)
(0.797174 0.0172848 0)
(0.91818 0.00650107 0)
(0.894766 0.0111748 0)
(-0.257103 0.00365317 0)
(-0.324916 -0.00474287 0)
(-0.325793 0.00676138 0)
(-0.233054 0.00517276 0)
(-0.0919895 0.0100139 0)
(0.160007 -0.00467471 0)
(0.470922 -0.0205436 0)
(0.796259 -0.0040567 0)
(0.918131 -0.0106437 0)
(0.896537 -0.0126566 0)
(-0.253881 0.0171795 0)
(-0.304157 -0.0121423 0)
(-0.283669 0.0127177 0)
(-0.16926 0.00916434 0)
(-0.0184647 0.0151492 0)
(0.24003 -0.00705356 0)
(0.556044 -0.0477758 0)
(0.850043 -0.0299738 0)
(0.955218 -0.0177712 0)
(0.939541 -0.029443 0)
(-0.237027 0.0319135 0)
(-0.247733 -0.0027074 0)
(-0.154285 0.0107965 0)
(0.0360109 0.00547384 0)
(0.215596 0.0183951 0)
(0.488213 -0.0129827 0)
(0.781813 -0.061623 0)
(1.00115 -0.0338062 0)
(1.06407 -0.0225016 0)
(1.04962 -0.039706 0)
(-0.19807 0.0403236 0)
(-0.141794 -0.00912241 0)
(0.087421 -0.00347175 0)
(0.407333 -0.00184576 0)
(0.635676 0.00209427 0)
(0.902302 -0.0478685 0)
(1.13487 -0.0890175 0)
(1.23013 -0.0367364 0)
(1.24179 -0.0326309 0)
(1.22357 -0.0652289 0)
(-0.147301 0.0641666 0)
(0.0259227 -0.0216441 0)
(0.444501 -0.0351988 0)
(0.893112 -0.0391327 0)
(1.1672 -0.00788639 0)
(1.3948 -0.0437442 0)
(1.52136 -0.103891 0)
(1.47246 -0.0358049 0)
(1.43903 -0.0379597 0)
(1.41541 -0.0738304 0)
(-0.0668922 0.065746 0)
(0.288527 -0.0405124 0)
(0.906862 -0.067281 0)
(1.41002 -0.0646646 0)
(1.68561 -0.0438362 0)
(1.8352 -0.0776591 0)
(1.83014 -0.111313 0)
(1.66659 -0.0324272 0)
(1.59741 -0.0438117 0)
(1.56134 -0.0978589 0)
(0.0379444 0.0822461 0)
(0.687215 -0.060897 0)
(1.42877 -0.116514 0)
(1.88068 -0.11553 0)
(2.10272 -0.0643598 0)
(2.14008 -0.0931619 0)
(2.00283 -0.10881 0)
(1.78058 -0.0287032 0)
(1.68916 -0.0438781 0)
(1.63879 -0.121497 0)
(0.189503 0.00710556 0)
(1.20927 -0.201002 0)
(1.9262 -0.165686 0)
(2.23757 -0.136175 0)
(2.36602 -0.10309 0)
(2.31669 -0.0970547 0)
(2.06208 -0.101998 0)
(1.82593 -0.0230917 0)
(1.72174 -0.0469207 0)
(1.66824 -0.138672 0)
(0.622463 0.00714393 0)
(1.80407 -0.245485 0)
(2.29206 -0.216238 0)
(2.43514 -0.180838 0)
(2.48386 -0.13138 0)
(2.39551 -0.101405 0)
(2.06332 -0.0888888 0)
(1.83263 -0.0177077 0)
(1.7195 -0.0494128 0)
(1.67846 -0.15377 0)
(1.53403 -0.36968 0)
(2.26695 -0.376438 0)
(2.47208 -0.238716 0)
(2.51493 -0.197833 0)
(2.51117 -0.165611 0)
(2.41716 -0.10632 0)
(2.04465 -0.0754624 0)
(1.82626 -0.0105828 0)
(1.70431 -0.0508308 0)
(1.68457 -0.177983 0)
(2.20086 -0.0323396 0)
(2.54428 -0.344857 0)
(2.53548 -0.300681 0)
(2.53829 -0.237399 0)
(2.51148 -0.193354 0)
(2.41816 -0.104365 0)
(2.02429 -0.0580095 0)
(1.82109 0.00136499 0)
(1.68904 -0.0593926 0)
(1.70087 -0.20318 0)
(2.20108 0.224499 0)
(2.61442 -0.301564 0)
(2.59198 -0.285276 0)
(2.56749 -0.247988 0)
(2.51807 -0.217737 0)
(2.42384 -0.118233 0)
(2.02072 -0.0477856 0)
(1.82659 0.0134656 0)
(1.681 -0.0748194 0)
(1.72742 -0.228189 0)
(2.14542 0.34425 0)
(2.56789 -0.143451 0)
(2.61675 -0.293471 0)
(2.58635 -0.264956 0)
(2.53886 -0.238913 0)
(2.45499 -0.139856 0)
(2.04149 -0.0431754 0)
(1.84392 0.0252853 0)
(1.68458 -0.0945168 0)
(1.76192 -0.253987 0)
(2.08044 0.460955 0)
(2.52409 -0.0538237 0)
(2.62354 -0.250456 0)
(2.60222 -0.261051 0)
(2.56906 -0.26003 0)
(2.51491 -0.160901 0)
(2.08848 -0.0401916 0)
(1.874 0.0329313 0)
(1.70104 -0.116247 0)
(1.80182 -0.282846 0)
(2.06236 0.517201 0)
(2.46708 0.0947284 0)
(2.6238 -0.230767 0)
(2.62106 -0.259338 0)
(2.60418 -0.273582 0)
(2.58614 -0.183874 0)
(2.15371 -0.0392606 0)
(1.91532 0.0394701 0)
(1.72905 -0.146513 0)
(1.84602 -0.310757 0)
(2.03673 0.591647 0)
(2.44326 0.171883 0)
(2.61579 -0.157462 0)
(2.64537 -0.245919 0)
(2.63346 -0.281291 0)
(2.64092 -0.191716 0)
(2.22152 -0.0264891 0)
(1.96769 0.0437464 0)
(1.76984 -0.179637 0)
(1.89156 -0.336217 0)
(2.0155 0.641336 0)
(2.40766 0.280823 0)
(2.61316 -0.124491 0)
(2.66744 -0.22976 0)
(2.65549 -0.285668 0)
(2.66133 -0.220078 0)
(2.28447 -0.0149088 0)
(2.03253 0.0442014 0)
(1.82371 -0.215148 0)
(1.93719 -0.354965 0)
(1.99013 0.684548 0)
(2.38067 0.352742 0)
(2.59123 -0.0153352 0)
(2.68305 -0.202263 0)
(2.67025 -0.278905 0)
(2.66339 -0.240845 0)
(2.3409 -0.00412515 0)
(2.10531 0.0405225 0)
(1.89249 -0.246047 0)
(1.97998 -0.368739 0)
(1.97601 0.715469 0)
(2.35057 0.423918 0)
(2.58675 0.0209704 0)
(2.69229 -0.173715 0)
(2.67765 -0.281846 0)
(2.66525 -0.253025 0)
(2.38854 -0.00733131 0)
(2.17625 0.0326829 0)
(1.96946 -0.279416 0)
(2.01721 -0.37875 0)
(1.95004 0.749963 0)
(2.32326 0.478307 0)
(2.55946 0.110993 0)
(2.67958 -0.113554 0)
(2.67912 -0.250701 0)
(2.67704 -0.258802 0)
(2.43251 -0.0162108 0)
(2.24034 0.00844744 0)
(2.04731 -0.311834 0)
(2.04755 -0.383363 0)
(1.93737 0.77192 0)
(2.28771 0.536116 0)
(2.54392 0.158214 0)
(2.66079 -0.0619123 0)
(2.69211 -0.267169 0)
(2.68392 -0.267682 0)
(2.47753 -0.0392249 0)
(2.29484 -0.0287722 0)
(2.11799 -0.350478 0)
(2.06991 -0.387422 0)
(1.92514 0.794805 0)
(2.26745 0.565923 0)
(2.52029 0.218981 0)
(2.61784 0.0099514 0)
(2.71943 -0.244329 0)
(2.68359 -0.274511 0)
(2.51609 -0.0704015 0)
(2.32844 -0.0837543 0)
(2.1812 -0.375983 0)
(2.08537 -0.381956 0)
(1.89815 0.819661 0)
(2.22161 0.608877 0)
(2.48645 0.280521 0)
(2.59867 0.052155 0)
(2.72264 -0.250059 0)
(2.67358 -0.276425 0)
(2.561 -0.108452 0)
(2.33759 -0.145269 0)
(2.22506 -0.400837 0)
(2.09323 -0.379837 0)
(1.89534 0.835797 0)
(2.20088 0.632 0)
(2.46584 0.318874 0)
(2.5789 0.118299 0)
(2.68877 -0.193089 0)
(2.67471 -0.274649 0)
(2.60384 -0.152274 0)
(2.31845 -0.214164 0)
(2.24951 -0.411065 0)
(2.0958 -0.372798 0)
(1.89319 0.855858 0)
(2.15117 0.679514 0)
(2.42298 0.377151 0)
(2.56164 0.156917 0)
(2.67471 -0.173787 0)
(2.67869 -0.278809 0)
(2.61458 -0.197396 0)
(2.2805 -0.28975 0)
(2.25376 -0.428665 0)
(2.10196 -0.364518 0)
(1.91554 0.851956 0)
(2.1206 0.706612 0)
(2.3871 0.420749 0)
(2.53496 0.19975 0)
(2.6421 -0.100296 0)
(2.67547 -0.258726 0)
(2.63192 -0.229756 0)
(2.25361 -0.361112 0)
(2.24192 -0.444923 0)
(2.10284 -0.357972 0)
(1.97499 0.82776 0)
(2.10767 0.72146 0)
(2.36084 0.457006 0)
(2.507 0.232132 0)
(2.6261 -0.0646728 0)
(2.6698 -0.251637 0)
(2.62785 -0.266487 0)
(2.23306 -0.429249 0)
(2.2255 -0.450176 0)
(2.09505 -0.349174 0)
(2.03052 0.81713 0)
(2.10133 0.734075 0)
(2.31294 0.511114 0)
(2.4803 0.257668 0)
(2.58797 0.00273975 0)
(2.65563 -0.224076 0)
(2.61259 -0.292814 0)
(2.26565 -0.497691 0)
(2.21538 -0.458953 0)
(2.08005 -0.340334 0)
(2.07983 0.796851 0)
(2.08505 0.725743 0)
(2.28435 0.544728 0)
(2.4518 0.293507 0)
(2.57109 0.038284 0)
(2.64346 -0.205323 0)
(2.59274 -0.316206 0)
(2.3072 -0.565085 0)
(2.20446 -0.464278 0)
(2.06369 -0.326663 0)
(2.15183 0.724842 0)
(2.07947 0.723417 0)
(2.24861 0.584712 0)
(2.43032 0.321233 0)
(2.54224 0.0942959 0)
(2.62573 -0.171864 0)
(2.57901 -0.331027 0)
(2.328 -0.637514 0)
(2.18723 -0.467908 0)
(2.05219 -0.322711 0)
(2.64184 0.106425 0)
(1.53372 0.38384 0)
(1.23942 0.562947 0)
(1.30118 0.673056 0)
(1.30077 0.740077 0)
(1.29454 0.749458 0)
(1.29138 0.747634 0)
(1.29239 0.747044 0)
(1.2984 0.742353 0)
(1.39753 0.756161 0)
(2.95539 0.0118966 0)
(2.08001 0.570093 0)
(1.18177 0.837282 0)
(1.22262 0.794413 0)
(1.25972 0.778503 0)
(1.27287 0.763466 0)
(1.28384 0.766992 0)
(1.28967 0.773143 0)
(1.29976 0.763273 0)
(1.40997 0.790543 0)
(2.97361 0.0064154 0)
(2.96925 0.0182585 0)
(1.92562 0.717171 0)
(1.31665 0.801452 0)
(1.33037 0.768866 0)
(1.32475 0.77064 0)
(1.32473 0.77894 0)
(1.32466 0.789842 0)
(1.33665 0.77167 0)
(1.45642 0.799684 0)
(2.98072 0.00836092 0)
(2.97933 0.00990687 0)
(2.92904 0.101733 0)
(1.68653 0.795057 0)
(1.36325 0.82887 0)
(1.37887 0.825705 0)
(1.36729 0.834589 0)
(1.37197 0.834385 0)
(1.39453 0.815323 0)
(1.51161 0.840876 0)
(2.98346 0.0109568 0)
(2.98243 0.0120781 0)
(2.9806 0.0147132 0)
(2.74849 0.309103 0)
(1.54051 0.805598 0)
(1.407 0.856819 0)
(1.41112 0.863107 0)
(1.42849 0.868533 0)
(1.46897 0.849842 0)
(1.57702 0.855886 0)
(2.98485 0.0117501 0)
(2.98419 0.0126799 0)
(2.98374 0.0151287 0)
(2.98171 0.0163057 0)
(2.0556 0.665959 0)
(1.41527 0.875533 0)
(1.45084 0.884168 0)
(1.48619 0.880817 0)
(1.52753 0.871761 0)
(1.61303 0.874551 0)
(2.98811 0.0113471 0)
(2.98765 0.0126313 0)
(2.98742 0.0137709 0)
(2.98686 0.0159583 0)
(2.94268 0.0929426 0)
(1.75122 0.811452 0)
(1.49534 0.89453 0)
(1.51857 0.897179 0)
(1.55415 0.890356 0)
(1.62551 0.886366 0)
(2.99087 0.0116909 0)
(2.99088 0.0120362 0)
(2.99042 0.0141519 0)
(2.99055 0.0139244 0)
(2.98891 0.017459 0)
(2.6747 0.407782 0)
(1.62094 0.872457 0)
(1.53012 0.895139 0)
(1.5648 0.893665 0)
(1.63006 0.892292 0)
(2.99365 0.00865854 0)
(2.99325 0.0096308 0)
(2.99307 0.0100058 0)
(2.99235 0.0113584 0)
(2.99177 0.012867 0)
(2.99595 0.0233171 0)
(1.93983 0.776173 0)
(1.54839 0.900101 0)
(1.57765 0.897296 0)
(1.6375 0.896728 0)
(2.99476 0.0087564 0)
(2.99437 0.00936134 0)
(2.99403 0.00979674 0)
(2.99335 0.0110433 0)
(2.99294 0.0113993 0)
(2.99198 0.0136929 0)
(2.85191 0.242184 0)
(1.7438 0.851351 0)
(1.59004 0.90407 0)
(1.64185 0.904817 0)
(2.99563 0.00724195 0)
(2.99531 0.0076053 0)
(2.9949 0.00826293 0)
(2.99456 0.00873545 0)
(2.99417 0.00958696 0)
(2.99393 0.0101199 0)
(2.99292 0.0189947 0)
(2.1241 0.731655 0)
(1.60982 0.915709 0)
(1.64306 0.909145 0)
(2.99653 0.00546324 0)
(2.99638 0.00587099 0)
(2.99624 0.00630168 0)
(2.99604 0.0068737 0)
(2.9957 0.007668 0)
(2.99536 0.00833218 0)
(2.99438 0.0104315 0)
(2.91248 0.19391 0)
(1.83223 0.851062 0)
(1.65444 0.903139 0)
(2.99758 0.00460267 0)
(2.99735 0.00510964 0)
(2.99717 0.00544153 0)
(2.9968 0.0061 0)
(2.99649 0.00650522 0)
(2.996 0.00734811 0)
(2.99562 0.00781701 0)
(2.99498 0.0187461 0)
(2.18281 0.73426 0)
(1.67415 0.922397 0)
(2.99804 0.00393455 0)
(2.99785 0.00415653 0)
(2.99758 0.00457782 0)
(2.99727 0.00499712 0)
(2.99701 0.0053413 0)
(2.99656 0.00615308 0)
(2.99636 0.00633146 0)
(2.9956 0.00839296 0)
(2.91334 0.245193 0)
(1.83985 0.860805 0)
(2.9984 0.00283392 0)
(2.99831 0.00296806 0)
(2.99812 0.0033665 0)
(2.998 0.00354571 0)
(2.99766 0.00426836 0)
(2.99746 0.00455788 0)
(2.99703 0.00537953 0)
(2.99679 0.00622943 0)
(3.00769 0.0236622 0)
(2.01345 0.786267 0)
(2.9988 0.00219787 0)
(2.99867 0.00247295 0)
(2.99855 0.00270547 0)
(2.99837 0.00305305 0)
(2.99815 0.00345142 0)
(2.99795 0.00383513 0)
(2.99756 0.00468892 0)
(2.99734 0.0049665 0)
(2.99642 0.00841405 0)
(2.48943 0.580446 0)
(2.99906 0.00185678 0)
(2.99899 0.00194627 0)
(2.99886 0.00219669 0)
(2.99874 0.00238061 0)
(2.99858 0.00268433 0)
(2.9984 0.00298541 0)
(2.99818 0.00343265 0)
(2.99793 0.00381023 0)
(2.9976 0.00498423 0)
(3.03079 0.140483 0)
(2.99934 0.00126315 0)
(2.99929 0.00134839 0)
(2.99918 0.00157603 0)
(2.99912 0.00167731 0)
(2.99894 0.00205632 0)
(2.99882 0.00223847 0)
(2.99855 0.00280446 0)
(2.99834 0.00310668 0)
(2.99825 0.00431401 0)
(3.03145 -0.00884197 0)
(2.9995 0.00097024 0)
(2.99945 0.00106678 0)
(2.99938 0.00121517 0)
(2.99931 0.00135649 0)
(2.99918 0.00162545 0)
(2.99908 0.00178577 0)
(2.99888 0.00219553 0)
(2.99876 0.00248036 0)
(2.99794 0.0029318 0)
(2.99959 0.00370891 0)
(2.99963 0.000737848 0)
(2.9996 0.000794901 0)
(2.99954 0.000914451 0)
(2.99949 0.000993718 0)
(2.99938 0.00122796 0)
(2.99933 0.00129924 0)
(2.99912 0.00176079 0)
(2.99908 0.00182207 0)
(2.99865 0.00264776 0)
(2.99844 0.00278825 0)
(3 5.81687e-16 0)
(3 -2.25312e-15 0)
(3 -2.80181e-15 0)
(3 -1.28431e-15 0)
(3 -1.97764e-15 0)
(3 -4.25193e-15 0)
(3 3.62005e-13 0)
(3 8.70761e-12 0)
(3 -2.31777e-08 0)
(2.97093 0.00121106 0)
(3 -1.05625e-15 0)
(3 -3.73474e-15 0)
(3 -1.86156e-15 0)
(3 4.08602e-15 0)
(3 4.49946e-16 0)
(3 -5.88926e-15 0)
(3 1.02631e-12 0)
(3 3.67165e-11 0)
(3 -5.63361e-08 0)
(2.97544 0.00250475 0)
(3 -1.21481e-15 0)
(3 -3.75924e-15 0)
(3 -6.1054e-16 0)
(3 4.16181e-16 0)
(3 1.04265e-15 0)
(3 -1.09733e-14 0)
(3 1.59425e-12 0)
(3 6.78258e-11 0)
(3 -3.92688e-08 0)
(2.98115 0.00418256 0)
(3 -2.7499e-16 0)
(3 -6.7555e-16 0)
(3 2.081e-15 0)
(3 1.51556e-15 0)
(3 -6.84038e-16 0)
(3 -1.89577e-14 0)
(3 2.26951e-12 0)
(3 1.02156e-10 0)
(3 -6.88715e-08 0)
(2.9865 0.00488904 0)
(3 8.5251e-17 0)
(3 1.4406e-15 0)
(3 4.55712e-15 0)
(3 1.44472e-15 0)
(3 3.16271e-15 0)
(3 -2.03235e-14 0)
(3 2.9688e-12 0)
(3 1.48855e-10 0)
(3 -7.91309e-08 0)
(2.98929 0.00576282 0)
(3 1.06265e-15 0)
(3 1.36783e-15 0)
(3 9.30306e-16 0)
(3 -1.41439e-15 0)
(3 3.6351e-15 0)
(3 -2.26103e-14 0)
(3 3.4242e-12 0)
(3 1.89669e-10 0)
(3 -9.09809e-08 0)
(2.99052 0.00682686 0)
(3 1.28519e-17 0)
(3 3.22514e-16 0)
(3 -4.22173e-15 0)
(3 -8.8586e-16 0)
(3 1.06397e-15 0)
(3 -2.86126e-14 0)
(3 4.07529e-12 0)
(3 2.37643e-10 0)
(3 -9.74866e-08 0)
(2.99173 0.00708315 0)
(3 -2.42027e-15 0)
(3 3.61825e-16 0)
(3 -1.31902e-15 0)
(3 1.54319e-15 0)
(3 -1.44584e-15 0)
(3 -3.2707e-14 0)
(3 4.56123e-12 0)
(3 2.84001e-10 0)
(3 -1.02044e-07 0)
(2.99379 0.00653541 0)
(3 -3.42657e-17 0)
(3 2.36637e-15 0)
(3 2.20531e-15 0)
(3 1.00751e-15 0)
(3 -9.63086e-16 0)
(3 -3.92678e-14 0)
(3 5.01316e-12 0)
(3 3.24025e-10 0)
(3 -1.05055e-07 0)
(2.99531 0.00662438 0)
(3 -3.803e-17 0)
(3 2.26921e-15 0)
(3 4.11732e-15 0)
(3 -1.74667e-15 0)
(3 -1.59181e-15 0)
(3 -4.32892e-14 0)
(3 5.36608e-12 0)
(3 3.65157e-10 0)
(3 -1.07055e-07 0)
(2.99692 0.00481432 0)
(3 7.9357e-17 0)
(3 -1.15418e-16 0)
(3 1.72439e-15 0)
(3 -6.24605e-16 0)
(3 -3.78927e-15 0)
(3 -4.90117e-14 0)
(3 5.66551e-12 0)
(3 4.03411e-10 0)
(3 -1.09277e-07 0)
(2.99736 0.00457217 0)
(3 2.28801e-15 0)
(3 8.82353e-16 0)
(3 -2.31329e-15 0)
(3 -2.54715e-15 0)
(3 -2.57236e-15 0)
(3 -5.03251e-14 0)
(3 5.85936e-12 0)
(3 4.40254e-10 0)
(3 -1.10284e-07 0)
(2.9976 0.00380333 0)
(3 1.36345e-15 0)
(3 -2.26673e-16 0)
(3 -2.61901e-15 0)
(3 -2.9764e-15 0)
(3 -2.17219e-15 0)
(3 -5.25633e-14 0)
(3 5.97969e-12 0)
(3 4.75474e-10 0)
(3 -1.11767e-07 0)
(2.99854 0.00256725 0)
(3 6.11101e-18 0)
(3 -2.93902e-15 0)
(3 -4.06361e-15 0)
(3 -5.36677e-16 0)
(3 -2.24536e-16 0)
(3 -5.55164e-14 0)
(3 5.94154e-12 0)
(3 5.06861e-10 0)
(3 -1.12307e-07 0)
(2.99887 0.00233088 0)
(3 -4.18056e-18 0)
(3 1.36661e-15 0)
(3 -3.17329e-15 0)
(3 -3.00638e-15 0)
(3 -1.9882e-15 0)
(3 -5.6121e-14 0)
(3 5.77728e-12 0)
(3 5.33921e-10 0)
(3 -1.1296e-07 0)
(2.99901 0.00177924 0)
(3 -1.67181e-15 0)
(3 3.29238e-15 0)
(3 1.18921e-15 0)
(3 -3.13317e-15 0)
(3 -1.21826e-15 0)
(3 -5.59412e-14 0)
(3 5.45012e-12 0)
(3 5.57482e-10 0)
(3 -1.12829e-07 0)
(2.99928 0.00127155 0)
(3 -1.35577e-15 0)
(3 -7.13078e-16 0)
(3 3.10677e-16 0)
(3 -3.80829e-15 0)
(3 -1.16571e-18 0)
(3 -5.33902e-14 0)
(3 4.88042e-12 0)
(3 5.75697e-10 0)
(3 -1.12507e-07 0)
(2.99945 0.00107844 0)
(3 6.08528e-16 0)
(3 -1.86005e-15 0)
(3 -1.30822e-15 0)
(3 -2.94781e-15 0)
(3 8.00516e-16 0)
(3 -5.20834e-14 0)
(3 4.14386e-12 0)
(3 5.92196e-10 0)
(3 -1.11555e-07 0)
(2.9996 0.000772082 0)
(3 -3.93744e-16 0)
(3 -2.67517e-15 0)
(3 -8.75622e-16 0)
(3 -1.9071e-15 0)
(3 -4.04455e-17 0)
(3 -5.59563e-14 0)
(3 3.30518e-12 0)
(3 6.04683e-10 0)
(3 -1.10372e-07 0)
(2.9997 0.000574093 0)
(3 -9.07983e-16 0)
(3 -2.6046e-15 0)
(3 -3.88568e-15 0)
(3 -4.09437e-15 0)
(3 1.38461e-16 0)
(3 -5.78861e-14 0)
(3 2.04635e-12 0)
(3 6.12756e-10 0)
(3 -1.08764e-07 0)
(2.99978 0.000423716 0)
(3 1.81855e-15 0)
(3 -9.62996e-16 0)
(3 -2.54544e-15 0)
(3 1.3857e-15 0)
(3 1.17817e-16 0)
(3 5.87602e-14 0)
(3 -2.10909e-12 0)
(3 -6.10708e-10 0)
(3 1.08888e-07 0)
(2.99978 -0.00042376 0)
(3 -1.31595e-15 0)
(3 -7.608e-16 0)
(3 1.34183e-15 0)
(3 3.19305e-15 0)
(3 3.43679e-16 0)
(3 5.89579e-14 0)
(3 -3.37459e-12 0)
(3 -6.02838e-10 0)
(3 1.10298e-07 0)
(2.9997 -0.000574119 0)
(3 -1.66655e-15 0)
(3 1.98513e-15 0)
(3 1.40519e-15 0)
(3 2.86117e-15 0)
(3 3.60484e-15 0)
(3 6.05937e-14 0)
(3 -4.20075e-12 0)
(3 -5.89981e-10 0)
(3 1.11682e-07 0)
(2.9996 -0.000772154 0)
(3 2.63196e-15 0)
(3 1.08639e-15 0)
(3 -5.65642e-16 0)
(3 1.08802e-15 0)
(3 5.20811e-15 0)
(3 6.22454e-14 0)
(3 -4.93042e-12 0)
(3 -5.74418e-10 0)
(3 1.12381e-07 0)
(2.99945 -0.00107853 0)
(3 2.71229e-15 0)
(3 -2.0979e-16 0)
(3 1.81138e-15 0)
(3 2.97898e-15 0)
(3 5.98433e-15 0)
(3 6.11145e-14 0)
(3 -5.49976e-12 0)
(3 -5.56089e-10 0)
(3 1.12969e-07 0)
(2.99928 -0.00127177 0)
(3 2.0214e-16 0)
(3 2.6952e-15 0)
(3 2.12065e-15 0)
(3 2.86503e-15 0)
(3 6.43472e-15 0)
(3 6.15963e-14 0)
(3 -5.81909e-12 0)
(3 -5.33e-10 0)
(3 1.12808e-07 0)
(2.99901 -0.00177933 0)
(3 -5.87109e-16 0)
(3 1.99882e-15 0)
(3 -1.31342e-15 0)
(3 1.04962e-15 0)
(3 2.94915e-15 0)
(3 5.6292e-14 0)
(3 -5.97678e-12 0)
(3 -5.05674e-10 0)
(3 1.12554e-07 0)
(2.99887 -0.00233128 0)
(3 -1.46247e-15 0)
(3 -7.86931e-16 0)
(3 2.03256e-15 0)
(3 3.18396e-15 0)
(3 -3.107e-16 0)
(3 5.153e-14 0)
(3 -5.99609e-12 0)
(3 -4.74918e-10 0)
(3 1.1157e-07 0)
(2.99854 -0.00256748 0)
(3 -3.98313e-15 0)
(3 -3.26448e-15 0)
(3 2.48395e-15 0)
(3 2.64461e-15 0)
(3 -1.82532e-15 0)
(3 5.03861e-14 0)
(3 -5.86839e-12 0)
(3 -4.40018e-10 0)
(3 1.10635e-07 0)
(2.9976 -0.00380384 0)
(3 -1.71361e-15 0)
(3 -2.1592e-15 0)
(3 -2.56285e-15 0)
(3 4.59986e-16 0)
(3 1.07761e-15 0)
(3 4.87044e-14 0)
(3 -5.65343e-12 0)
(3 -4.03743e-10 0)
(3 1.08858e-07 0)
(2.99736 -0.00457241 0)
(3 4.31995e-16 0)
(3 -4.12974e-16 0)
(3 -5.39935e-16 0)
(3 2.05344e-15 0)
(3 1.44479e-15 0)
(3 4.40879e-14 0)
(3 -5.33697e-12 0)
(3 -3.6533e-10 0)
(3 1.07468e-07 0)
(2.99692 -0.00481483 0)
(3 4.50482e-16 0)
(3 -1.69055e-15 0)
(3 -3.55616e-15 0)
(3 -2.13921e-15 0)
(3 -1.02743e-15 0)
(3 3.83698e-14 0)
(3 -4.98627e-12 0)
(3 -3.23044e-10 0)
(3 1.04724e-07 0)
(2.99531 -0.00662505 0)
(3 2.6916e-15 0)
(3 4.2459e-16 0)
(3 -1.13926e-15 0)
(3 -2.76346e-15 0)
(3 -1.92763e-15 0)
(3 3.12028e-14 0)
(3 -4.51357e-12 0)
(3 -2.82071e-10 0)
(3 1.03333e-07 0)
(2.99379 -0.00653608 0)
(3 1.2856e-15 0)
(3 6.29517e-16 0)
(3 -2.07538e-16 0)
(3 -1.399e-16 0)
(3 -2.3537e-15 0)
(3 2.84305e-14 0)
(3 -4.03099e-12 0)
(3 -2.35392e-10 0)
(3 9.77347e-08 0)
(2.99173 -0.007084 0)
(3 -1.25826e-15 0)
(3 5.56281e-16 0)
(3 -3.11265e-16 0)
(3 -7.45278e-18 0)
(3 -3.70589e-15 0)
(3 2.36914e-14 0)
(3 -3.33035e-12 0)
(3 -1.89188e-10 0)
(3 9.0623e-08 0)
(2.99052 -0.00682793 0)
(3 -1.32757e-16 0)
(3 2.9286e-15 0)
(3 2.39867e-15 0)
(3 5.86874e-16 0)
(3 -2.41768e-15 0)
(3 1.87862e-14 0)
(3 -2.87134e-12 0)
(3 -1.48595e-10 0)
(3 7.86897e-08 0)
(2.98929 -0.00576149 0)
(3 -2.15078e-16 0)
(3 2.28782e-15 0)
(3 9.38203e-16 0)
(3 -1.21198e-15 0)
(3 -1.20963e-15 0)
(3 1.58875e-14 0)
(3 -2.17517e-12 0)
(3 -1.03744e-10 0)
(3 6.88928e-08 0)
(2.98649 -0.00489611 0)
(3 1.32857e-15 0)
(3 1.06724e-15 0)
(3 3.90145e-16 0)
(3 -2.67847e-15 0)
(3 -1.24351e-15 0)
(3 9.30272e-15 0)
(3 -1.50375e-12 0)
(3 -7.11034e-11 0)
(3 3.92387e-08 0)
(2.98114 -0.00416975 0)
(3 2.5869e-15 0)
(3 2.37914e-15 0)
(3 -3.25099e-16 0)
(3 -4.79094e-16 0)
(3 -8.41349e-16 0)
(3 3.47857e-15 0)
(3 -9.27135e-13 0)
(3 -3.90964e-11 0)
(3 5.63753e-08 0)
(2.97543 -0.00251068 0)
(3 1.98453e-15 0)
(3 9.05109e-16 0)
(3 -1.96051e-15 0)
(3 -7.63815e-16 0)
(3 -1.04961e-15 0)
(3 -3.8984e-15 0)
(3 -2.64966e-13 0)
(3 -1.30919e-11 0)
(3 2.31083e-08 0)
(2.97092 -0.00120736 0)
(2.99963 -0.000738009 0)
(2.9996 -0.000794963 0)
(2.99954 -0.000914703 0)
(2.99949 -0.000993715 0)
(2.99938 -0.00122825 0)
(2.99933 -0.00129924 0)
(2.99912 -0.00176093 0)
(2.99908 -0.00182204 0)
(2.99865 -0.00264793 0)
(2.99844 -0.00278851 0)
(2.9995 -0.00097033 0)
(2.99945 -0.0010668 0)
(2.99938 -0.00121528 0)
(2.99931 -0.0013565 0)
(2.99918 -0.00162545 0)
(2.99908 -0.00178601 0)
(2.99888 -0.00219536 0)
(2.99876 -0.00248108 0)
(2.99794 -0.00293165 0)
(2.99959 -0.00370926 0)
(2.99934 -0.00126337 0)
(2.99929 -0.00134853 0)
(2.99918 -0.0015762 0)
(2.99912 -0.00167739 0)
(2.99894 -0.00205638 0)
(2.99882 -0.00223855 0)
(2.99855 -0.00280458 0)
(2.99834 -0.00310648 0)
(2.99825 -0.00431473 0)
(3.03141 0.00884118 0)
(2.99906 -0.00185697 0)
(2.99899 -0.00194645 0)
(2.99886 -0.00219686 0)
(2.99874 -0.00238078 0)
(2.99858 -0.00268465 0)
(2.9984 -0.00298563 0)
(2.99818 -0.00343305 0)
(2.99793 -0.0038105 0)
(2.9976 -0.00498459 0)
(3.03091 -0.140299 0)
(2.9988 -0.00219803 0)
(2.99867 -0.00247314 0)
(2.99855 -0.00270575 0)
(2.99837 -0.0030532 0)
(2.99815 -0.00345176 0)
(2.99795 -0.0038352 0)
(2.99756 -0.00468921 0)
(2.99734 -0.00496659 0)
(2.99642 -0.00841196 0)
(2.48977 -0.580311 0)
(2.9984 -0.00283415 0)
(2.99831 -0.00296827 0)
(2.99812 -0.00336679 0)
(2.998 -0.00354608 0)
(2.99766 -0.00426903 0)
(2.99746 -0.00455865 0)
(2.99703 -0.00538035 0)
(2.99679 -0.00623023 0)
(3.00767 -0.0236539 0)
(2.01353 -0.78625 0)
(2.99804 -0.0039349 0)
(2.99785 -0.00415685 0)
(2.99758 -0.00457834 0)
(2.99727 -0.00499774 0)
(2.99701 -0.00534179 0)
(2.99656 -0.00615357 0)
(2.99636 -0.00633216 0)
(2.9956 -0.00839344 0)
(2.91344 -0.245056 0)
(1.83992 -0.860785 0)
(2.99758 -0.00460298 0)
(2.99735 -0.00511019 0)
(2.99717 -0.00544221 0)
(2.9968 -0.0061007 0)
(2.99649 -0.00650609 0)
(2.996 -0.00734962 0)
(2.99562 -0.00781812 0)
(2.99498 -0.018745 0)
(2.18302 -0.734191 0)
(1.67419 -0.922408 0)
(2.99653 -0.00546374 0)
(2.99638 -0.00587174 0)
(2.99624 -0.00630232 0)
(2.99604 -0.00687455 0)
(2.9957 -0.00766915 0)
(2.99536 -0.00833346 0)
(2.99437 -0.0104325 0)
(2.91252 -0.193836 0)
(1.83229 -0.851055 0)
(1.65447 -0.903151 0)
(2.99563 -0.00724289 0)
(2.9953 -0.00760636 0)
(2.9949 -0.00826399 0)
(2.99456 -0.00873645 0)
(2.99417 -0.0095885 0)
(2.99393 -0.0101213 0)
(2.99292 -0.0189954 0)
(2.12425 -0.731605 0)
(1.60986 -0.915716 0)
(1.64309 -0.909157 0)
(2.99476 -0.00875703 0)
(2.99437 -0.00936241 0)
(2.99403 -0.00979796 0)
(2.99335 -0.0110446 0)
(2.99294 -0.0114008 0)
(2.99198 -0.0136944 0)
(2.85194 -0.242157 0)
(1.74385 -0.85136 0)
(1.59008 -0.904087 0)
(1.64188 -0.904833 0)
(2.99365 -0.00865973 0)
(2.99325 -0.00963197 0)
(2.99307 -0.0100068 0)
(2.99235 -0.01136 0)
(2.99177 -0.0128688 0)
(2.99595 -0.0233208 0)
(1.93991 -0.776166 0)
(1.54842 -0.900121 0)
(1.57768 -0.897315 0)
(1.63752 -0.896742 0)
(2.99087 -0.0116924 0)
(2.99088 -0.0120382 0)
(2.99042 -0.0141541 0)
(2.99054 -0.0139259 0)
(2.98891 -0.0174607 0)
(2.67465 -0.407804 0)
(1.62098 -0.872468 0)
(1.53015 -0.895154 0)
(1.56483 -0.893681 0)
(1.63009 -0.892307 0)
(2.98811 -0.0113485 0)
(2.98765 -0.0126328 0)
(2.98742 -0.0137721 0)
(2.98686 -0.0159609 0)
(2.94264 -0.092992 0)
(1.75123 -0.811472 0)
(1.49538 -0.894549 0)
(1.5186 -0.897199 0)
(1.55417 -0.890373 0)
(1.62554 -0.886372 0)
(2.98485 -0.0117521 0)
(2.98418 -0.0126817 0)
(2.98374 -0.0151309 0)
(2.98171 -0.0163072 0)
(2.05546 -0.666016 0)
(1.41532 -0.875543 0)
(1.45089 -0.884176 0)
(1.48623 -0.880834 0)
(1.52755 -0.87178 0)
(1.61305 -0.874567 0)
(2.98345 -0.0109559 0)
(2.98243 -0.0120785 0)
(2.9806 -0.0147144 0)
(2.74836 -0.309278 0)
(1.54043 -0.805628 0)
(1.40703 -0.856844 0)
(1.41113 -0.86312 0)
(1.42851 -0.86854 0)
(1.46899 -0.849838 0)
(1.57705 -0.855882 0)
(2.98071 -0.00836548 0)
(2.97932 -0.00990798 0)
(2.92896 -0.101803 0)
(1.68648 -0.795083 0)
(1.36323 -0.828872 0)
(1.37886 -0.825717 0)
(1.36727 -0.8346 0)
(1.37197 -0.834388 0)
(1.39454 -0.815314 0)
(1.51162 -0.840867 0)
(2.9736 -0.00640828 0)
(2.96923 -0.0182909 0)
(1.92544 -0.717219 0)
(1.31662 -0.801442 0)
(1.33036 -0.768849 0)
(1.32474 -0.77064 0)
(1.3247 -0.778951 0)
(1.32464 -0.789841 0)
(1.33665 -0.771654 0)
(1.45642 -0.799671 0)
(2.95532 -0.0119467 0)
(2.07955 -0.57028 0)
(1.18175 -0.837268 0)
(1.2226 -0.794373 0)
(1.25971 -0.778473 0)
(1.27286 -0.763451 0)
(1.28382 -0.766994 0)
(1.28964 -0.773138 0)
(1.29974 -0.763259 0)
(1.40997 -0.790536 0)
(2.64154 -0.106517 0)
(1.53337 -0.383857 0)
(1.2394 -0.562981 0)
(1.30114 -0.673052 0)
(1.30074 -0.740047 0)
(1.29452 -0.749442 0)
(1.29136 -0.747623 0)
(1.29236 -0.747031 0)
(1.29838 -0.742337 0)
(1.39752 -0.756153 0)
(2.15202 -0.724534 0)
(2.07957 -0.723484 0)
(2.24869 -0.584818 0)
(2.43034 -0.32132 0)
(2.54219 -0.0944699 0)
(2.62582 0.171885 0)
(2.57909 0.331267 0)
(2.32829 0.638004 0)
(2.18738 0.467446 0)
(2.0522 0.322842 0)
(2.07978 -0.796808 0)
(2.08512 -0.725811 0)
(2.28443 -0.544822 0)
(2.45181 -0.293582 0)
(2.57112 -0.0383514 0)
(2.64353 0.205323 0)
(2.59284 0.316466 0)
(2.30752 0.565823 0)
(2.20443 0.464223 0)
(2.06349 0.326513 0)
(2.0306 -0.817132 0)
(2.10135 -0.734129 0)
(2.31299 -0.5112 0)
(2.48029 -0.257796 0)
(2.58797 -0.00284223 0)
(2.65569 0.224112 0)
(2.61265 0.293165 0)
(2.26587 0.498497 0)
(2.21519 0.458594 0)
(2.07988 0.339905 0)
(1.97507 -0.827788 0)
(2.10769 -0.721504 0)
(2.36087 -0.457086 0)
(2.50699 -0.232352 0)
(2.62612 0.0645031 0)
(2.66987 0.25166 0)
(2.62797 0.266782 0)
(2.23309 0.429678 0)
(2.22536 0.450078 0)
(2.09488 0.348927 0)
(1.91564 -0.851966 0)
(2.12061 -0.706657 0)
(2.38708 -0.420883 0)
(2.53497 -0.199981 0)
(2.64223 0.100257 0)
(2.67559 0.258854 0)
(2.63202 0.230016 0)
(2.25352 0.361452 0)
(2.24196 0.445077 0)
(2.10284 0.357855 0)
(1.89323 -0.855881 0)
(2.15112 -0.679606 0)
(2.423 -0.377211 0)
(2.56163 -0.157186 0)
(2.67476 0.173576 0)
(2.67883 0.278878 0)
(2.61465 0.197553 0)
(2.28057 0.289893 0)
(2.25388 0.428989 0)
(2.10213 0.364755 0)
(1.89538 -0.835818 0)
(2.20094 -0.63202 0)
(2.46578 -0.319 0)
(2.57888 -0.118707 0)
(2.68888 0.192897 0)
(2.67483 0.274827 0)
(2.60405 0.152448 0)
(2.31844 0.214277 0)
(2.24958 0.411762 0)
(2.09607 0.373171 0)
(1.89818 -0.819666 0)
(2.22159 -0.608952 0)
(2.48643 -0.280589 0)
(2.59875 -0.0524516 0)
(2.72273 0.249959 0)
(2.67366 0.276604 0)
(2.56129 0.108913 0)
(2.33776 0.145293 0)
(2.22528 0.400962 0)
(2.09332 0.379953 0)
(1.92512 -0.794827 0)
(2.26756 -0.565857 0)
(2.52022 -0.219158 0)
(2.61782 -0.0103769 0)
(2.71956 0.244149 0)
(2.68364 0.274652 0)
(2.51618 0.0709202 0)
(2.32877 0.0838181 0)
(2.18143 0.375886 0)
(2.08523 0.382031 0)
(1.93748 -0.771885 0)
(2.2877 -0.536188 0)
(2.54388 -0.158318 0)
(2.66075 0.0615783 0)
(2.69221 0.267037 0)
(2.68401 0.267682 0)
(2.4777 0.0396149 0)
(2.29509 0.0293369 0)
(2.11838 0.349982 0)
(2.06982 0.387098 0)
(1.95006 -0.74999 0)
(2.32334 -0.478219 0)
(2.55935 -0.111287 0)
(2.67955 0.113378 0)
(2.67921 0.250398 0)
(2.67718 0.258716 0)
(2.4328 0.0163442 0)
(2.24049 -0.00813986 0)
(2.04774 0.312061 0)
(2.04769 0.383075 0)
(1.97613 -0.715438 0)
(2.35052 -0.423936 0)
(2.58675 -0.0210054 0)
(2.69222 0.173414 0)
(2.67758 0.281395 0)
(2.66538 0.25282 0)
(2.38878 0.00720973 0)
(2.17626 -0.0329751 0)
(1.96976 0.280229 0)
(2.01747 0.37878 0)
(1.99019 -0.684553 0)
(2.3806 -0.352732 0)
(2.59112 0.0151067 0)
(2.68297 0.201822 0)
(2.67013 0.27852 0)
(2.66362 0.240474 0)
(2.34085 0.00450451 0)
(2.10523 -0.0408828 0)
(1.89274 0.245799 0)
(1.98021 0.369097 0)
(2.01556 -0.641322 0)
(2.40763 -0.280688 0)
(2.61305 0.124506 0)
(2.66737 0.229195 0)
(2.65545 0.285103 0)
(2.66162 0.2194 0)
(2.28409 0.0141165 0)
(2.03237 -0.043859 0)
(1.82355 0.215176 0)
(1.93734 0.355268 0)
(2.03679 -0.591602 0)
(2.44318 -0.171766 0)
(2.61555 0.156783 0)
(2.64536 0.245432 0)
(2.63352 0.280881 0)
(2.64094 0.190934 0)
(2.22172 0.0256397 0)
(1.96747 -0.0437928 0)
(1.76993 0.179195 0)
(1.89171 0.335988 0)
(2.06239 -0.517164 0)
(2.46705 -0.0945106 0)
(2.6237 0.230603 0)
(2.62106 0.25839 0)
(2.60432 0.272928 0)
(2.58621 0.18318 0)
(2.15383 0.0378903 0)
(1.91507 -0.0403461 0)
(1.72881 0.147852 0)
(1.84611 0.310781 0)
(2.0805 -0.460764 0)
(2.52396 0.0537654 0)
(2.62339 0.249814 0)
(2.60212 0.260185 0)
(2.56918 0.259388 0)
(2.51527 0.160654 0)
(2.08831 0.0421297 0)
(1.87361 -0.0336277 0)
(1.70071 0.116241 0)
(1.8019 0.283591 0)
(2.14541 -0.344121 0)
(2.56781 0.143454 0)
(2.61649 0.292796 0)
(2.58615 0.263826 0)
(2.53904 0.237663 0)
(2.45561 0.141169 0)
(2.04123 0.0464256 0)
(1.84318 -0.0245271 0)
(1.68347 0.0930564 0)
(1.76162 0.254688 0)
(2.20132 -0.224028 0)
(2.6141 0.301026 0)