/*--------------------------------*- C++ -*----------------------------------*\
  =========                 |
  \\      /  F ield         | OpenFOAM: The Open Source CFD Toolbox
   \\    /   O peration     | Website:  https://openfoam.org
    \\  /    A nd           | Version:  8
     \\/     M anipulation  |
\*---------------------------------------------------------------------------*/
FoamFile
{
    version     2.0;
    format      ascii;
    class       volVectorField;
    location    "1";
    object      U;
}
// * * * * * * * * * * * * * * * * * * * * * * * * * * * * * * * * * * * * * //

dimensions      [0 1 -1 0 0 0 0];

internalField   nonuniform List<vector> 
325
(
(1.14096 0.0894749 0)
(1.23354 0.038103 0)
(1.24154 0.0322912 0)
(1.22207 0.0653714 0)
(0.0317104 -0.00312784 0)
(0.210514 -0.0211412 0)
(0.489028 0.0108921 0)
(0.786566 0.0621117 0)
(1.00412 0.0335511 0)
(1.06413 0.0246772 0)
(1.04866 0.0417673 0)
(-0.171004 -0.0108663 0)
(-0.0205379 -0.0185541 0)
(0.240582 0.00422584 0)
(0.55842 0.0478424 0)
(0.852037 0.0318481 0)
(0.955438 0.0192192 0)
(0.938291 0.0296838 0)
(-0.233314 -0.00431451 0)
(-0.092192 -0.0115678 0)
(0.160136 0.00220399 0)
(0.471544 0.0219617 0)
(0.796666 0.00547359 0)
(0.918699 0.010088 0)
(0.895775 0.00981945 0)
(-0.0920392 0.00670011 0)
(0.160017 -0.00622285 0)
(0.470494 -0.0183107 0)
(0.797247 -0.0165716 0)
(0.918245 -0.0067492 0)
(0.895562 -0.0130708 0)
(-0.0185631 0.0138639 0)
(0.239118 -0.00715414 0)
(0.555159 -0.0487871 0)
(0.853311 -0.0221875 0)
(0.956524 -0.0210571 0)
(0.937914 -0.0310551 0)
(0.215268 0.0170529 0)
(0.485577 -0.0116607 0)
(0.780431 -0.064331 0)
(1.00279 -0.0284293 0)
(1.06468 -0.0252696 0)
(1.0477 -0.0376237 0)
(0.635126 0.000881398 0)
(0.898113 -0.0481638 0)
(1.13351 -0.086452 0)
(1.2312 -0.0366288 0)
(1.24196 -0.0336644 0)
(1.2229 -0.0623273 0)
(1.16683 -0.00789359 0)
(1.39092 -0.0429539 0)
(1.51999 -0.103556 0)
(1.47441 -0.0358303 0)
(1.43966 -0.0378597 0)
(1.41565 -0.0779634 0)
(1.68555 -0.0435002 0)
(1.83258 -0.0774589 0)
(1.82979 -0.108262 0)
(1.66767 -0.0345096 0)
(1.59796 -0.0436447 0)
(1.56162 -0.101101 0)
(2.10302 -0.064743 0)
(2.1383 -0.0892213 0)
(2.00354 -0.108536 0)
(1.78095 -0.0298996 0)
(1.68996 -0.0449269 0)
(1.63921 -0.115007 0)
(2.36639 -0.102223 0)
(2.31516 -0.094457 0)
(2.06318 -0.105205 0)
(1.82582 -0.024653 0)
(1.72243 -0.0445748 0)
(1.668 -0.135714 0)
(2.48372 -0.129824 0)
(2.39437 -0.103216 0)
(2.06453 -0.0915919 0)
(1.83241 -0.0164321 0)
(1.71951 -0.0467827 0)
(1.67716 -0.159646 0)
(2.51074 -0.166349 0)
(2.41628 -0.106391 0)
(2.04519 -0.0740567 0)
(1.82603 -0.00831747 0)
(1.70423 -0.0542588 0)
(1.68536 -0.179876 0)
(2.51147 -0.193855 0)
(2.41759 -0.102554 0)
(2.02495 -0.0545052 0)
(1.82116 0.00209654 0)
(1.68899 -0.0621411 0)
(1.70088 -0.201099 0)
(2.51797 -0.217294 0)
(2.42347 -0.11862 0)
(2.02126 -0.0482617 0)
(1.82676 0.0121089 0)
(1.6807 -0.0733299 0)
(1.72681 -0.226879 0)
(2.53867 -0.238672 0)
(2.45472 -0.141126 0)
(2.0415 -0.0457273 0)
(1.84403 0.0244683 0)
(1.68417 -0.0927969 0)
(1.76164 -0.25412 0)
(2.56898 -0.260086 0)
(2.51459 -0.161169 0)
(2.08837 -0.0420486 0)
(1.87426 0.0333207 0)
(1.70106 -0.11602 0)
(1.80177 -0.283407 0)
(2.60417 -0.273873 0)
(2.58573 -0.183895 0)
(2.15383 -0.037996 0)
(1.91552 0.0402821 0)
(1.72909 -0.147563 0)
(1.846 -0.310557 0)
(2.63351 -0.281439 0)
(2.64065 -0.191097 0)
(2.22173 -0.0253745 0)
(1.9677 0.043804 0)
(1.76997 -0.179306 0)
(1.89155 -0.335812 0)
(2.65557 -0.285889 0)
(2.66145 -0.219538 0)
(2.28414 -0.0138601 0)
(2.03237 0.0438017 0)
(1.82347 -0.215013 0)
(1.93715 -0.355046 0)
(2.67033 -0.278926 0)
(2.66358 -0.240557 0)
(2.34071 -0.00415691 0)
(2.10511 0.0406129 0)
(1.89241 -0.245688 0)
(1.97998 -0.369069 0)
(2.6777 -0.281961 0)
(2.66533 -0.252926 0)
(2.38854 -0.0069091 0)
(2.17608 0.0329966 0)
(1.96933 -0.280048 0)
(2.01725 -0.378802 0)
(2.67909 -0.250721 0)
(2.67705 -0.258818 0)
(2.43259 -0.0160339 0)
(2.24025 0.00826278 0)
(2.04724 -0.312089 0)
(2.0475 -0.383049 0)
(2.69207 -0.267284 0)
(2.68379 -0.267693 0)
(2.4776 -0.0393706 0)
(2.29486 -0.0291819 0)
(2.11796 -0.349924 0)
(2.06973 -0.386947 0)
(2.71937 -0.244404 0)
(2.68358 -0.274534 0)
(2.51609 -0.0706871 0)
(2.32857 -0.0836993 0)
(2.18115 -0.375426 0)
(2.08522 -0.381907 0)
(2.72254 -0.250027 0)
(2.67361 -0.276435 0)
(2.56116 -0.108662 0)
(2.33767 -0.145042 0)
(2.22505 -0.400707 0)
(2.09333 -0.379836 0)
(2.68867 -0.193108 0)
(2.67469 -0.274631 0)
(2.60376 -0.1521 0)
(2.31839 -0.213976 0)
(2.24953 -0.411319 0)
(2.09604 -0.373091 0)
(2.67467 -0.173943 0)
(2.67867 -0.278792 0)
(2.61446 -0.197248 0)
(2.28061 -0.289528 0)
(2.25386 -0.428759 0)
(2.10212 -0.364744 0)
(2.64208 -0.100345 0)
(2.67544 -0.258671 0)
(2.63189 -0.229721 0)
(2.25358 -0.361004 0)
(2.24201 -0.444943 0)
(2.10284 -0.357965 0)
(2.62611 -0.064758 0)
(2.66979 -0.251681 0)
(2.62795 -0.266542 0)
(2.23301 -0.429232 0)
(2.22545 -0.450066 0)
(2.09492 -0.349003 0)
(2.58795 0.00273638 0)
(2.65562 -0.224047 0)
(2.61262 -0.292894 0)
(2.26566 -0.498051 0)
(2.21527 -0.458668 0)
(2.07991 -0.339958 0)
(2.5711 0.0382694 0)
(2.64348 -0.205328 0)
(2.59276 -0.316254 0)
(2.3073 -0.565448 0)
(2.20444 -0.464207 0)
(2.06355 -0.326462 0)
(2.54216 0.0943565 0)
(2.62574 -0.171837 0)
(2.579 -0.331066 0)
(2.32812 -0.6377 0)
(2.18733 -0.467538 0)
(2.05223 -0.322751 0)
(2.50892 0.1532 0)
(2.60245 -0.138329 0)
(2.55063 -0.360112 0)
(2.2955 -0.705866 0)
(2.16223 -0.514204 0)
(2.06856 -0.299626 0)
(2.44105 0.250239 0)
(2.55026 -0.0666733 0)
(2.48146 -0.375606 0)
(2.25252 -0.7293 0)
(2.15524 -0.620971 0)
(2.09584 -0.333194 0)
(2.38667 0.332901 0)
(2.48271 -0.0253528 0)
(2.35682 -0.412561 0)
(2.19804 -0.693272 0)
(2.15432 -0.683907 0)
(2.14244 -0.373438 0)
(2.34262 0.415196 0)
(2.3715 0.0197536 0)
(2.24003 -0.405629 0)
(2.16169 -0.642307 0)
(2.13544 -0.653312 0)
(2.19472 -0.438711 0)
(2.3141 0.469275 0)
(2.26048 0.0324747 0)
(2.15322 -0.409517 0)
(2.1065 -0.562933 0)
(2.1025 -0.610014 0)
(2.22963 -0.486498 0)
(2.29267 0.488999 0)
(2.1975 0.0475047 0)
(2.09637 -0.392187 0)
(2.06595 -0.503308 0)
(2.08874 -0.573239 0)
(2.23896 -0.497056 0)
(2.24822 0.495469 0)
(2.17631 0.0552113 0)
(2.05504 -0.349047 0)
(2.01979 -0.438203 0)
(2.06319 -0.517755 0)
(2.23621 -0.477295 0)
(2.19248 0.51024 0)
(2.11 0.0510697 0)
(2.02317 -0.309318 0)
(2.00896 -0.385911 0)
(2.07478 -0.477897 0)
(2.24724 -0.454084 0)
(2.12604 0.506743 0)
(2.02046 0.0365555 0)
(1.96574 -0.249763 0)
(1.99423 -0.331851 0)
(2.07721 -0.427207 0)
(2.24803 -0.428386 0)
(2.04138 0.436795 0)
(1.91737 0.0176891 0)
(1.91788 -0.201547 0)
(1.98399 -0.286356 0)
(2.08129 -0.384296 0)
(2.24969 -0.39975 0)
(1.92095 0.35368 0)
(1.83949 0.0185825 0)
(1.86922 -0.152357 0)
(1.96761 -0.242819 0)
(2.08146 -0.34005 0)
(2.25516 -0.368097 0)
(1.7744 0.268271 0)
(1.77337 0.0266641 0)
(1.83654 -0.115305 0)
(1.96177 -0.212153 0)
(2.08545 -0.302518 0)
(2.26328 -0.334416 0)
(1.71337 0.223513 0)
(1.71001 0.037395 0)
(1.80543 -0.0860024 0)
(1.95511 -0.181366 0)
(2.09006 -0.264756 0)
(2.27225 -0.298254 0)
(1.69963 0.193533 0)
(1.67898 0.0508262 0)
(1.79229 -0.0643709 0)
(1.95875 -0.156502 0)
(2.0999 -0.229084 0)
(2.28477 -0.262753 0)
(1.72408 0.189991 0)
(1.6768 0.0537718 0)
(1.80047 -0.0495266 0)
(1.9738 -0.131043 0)
(2.1156 -0.192471 0)
(2.29884 -0.225113 0)
(1.73389 0.168583 0)
(1.67563 0.0720093 0)
(1.82012 -0.0295146 0)
(1.9974 -0.102992 0)
(2.13793 -0.155862 0)
(2.31635 -0.186806 0)
(1.67026 0.129871 0)
(1.65183 0.0753414 0)
(1.83572 -0.0130838 0)
(2.02511 -0.0772048 0)
(2.16513 -0.120377 0)
(2.33597 -0.148994 0)
(1.50745 0.125693 0)
(1.61159 0.0634882 0)
(1.83904 0.00113791 0)
(2.04817 -0.0506825 0)
(2.19292 -0.086725 0)
(2.34884 -0.104494 0)
(1.36651 0.0803181 0)
(1.59337 0.0435637 0)
(1.83479 0.00399414 0)
(2.06608 -0.0292488 0)
(2.21247 -0.0535339 0)
(2.36381 -0.0628345 0)
(1.31731 0.0274905 0)
(1.59492 0.0126104 0)
(1.83489 0.000280641 0)
(2.08017 -0.0115545 0)
(2.21567 -0.0213532 0)
(2.3484 -0.0297592 0)
)
;

boundaryField
{
    inlet
    {
        type            fixedValue;
        value           nonuniform List<vector> 0();
    }
    outlet
    {
        type            inletOutlet;
        inletValue      uniform (3 0 0);
        value           nonuniform List<vector> 
54
(
(2.06856 -0.299626 0)
(2.09584 -0.333194 0)
(2.14244 -0.373438 0)
(2.19472 -0.438711 0)
(2.22963 -0.486498 0)
(2.23896 -0.497056 0)
(2.23621 -0.477295 0)
(2.24724 -0.454084 0)
(2.24803 -0.428386 0)
(2.24969 -0.39975 0)
(2.25516 -0.368097 0)
(2.26328 -0.334416 0)
(2.27225 -0.298254 0)
(2.28477 -0.262753 0)
(2.29884 -0.225113 0)
(2.31635 -0.186806 0)
(2.33597 -0.148994 0)
(2.34884 -0.104494 0)
(2.36381 -0.0628345 0)
(2.3484 -0.0297592 0)
(1.70088 -0.201099 0)
(1.72681 -0.226879 0)
(1.76164 -0.25412 0)
(1.80177 -0.283407 0)
(1.846 -0.310557 0)
(1.89155 -0.335812 0)
(1.93715 -0.355046 0)
(1.97998 -0.369069 0)
(2.01725 -0.378802 0)
(2.0475 -0.383049 0)
(2.06973 -0.386947 0)
(2.08522 -0.381907 0)
(2.09333 -0.379836 0)
(2.09604 -0.373091 0)
(2.10212 -0.364744 0)
(2.10284 -0.357965 0)
(2.09492 -0.349003 0)
(2.07991 -0.339958 0)
(2.06355 -0.326462 0)
(2.05223 -0.322751 0)
(1.22207 0.0653714 0)
(1.04866 0.0417673 0)
(0.938291 0.0296838 0)
(0.895775 0.00981945 0)
(0.895562 -0.0130708 0)
(0.937914 -0.0310551 0)
(1.0477 -0.0376237 0)
(1.2229 -0.0623273 0)
(1.41565 -0.0779634 0)
(1.56162 -0.101101 0)
(1.63921 -0.115007 0)
(1.668 -0.135714 0)
(1.67716 -0.159646 0)
(1.68536 -0.179876 0)
)
;
    }
    triangle
    {
        type            slip;
    }
    top
    {
        type            symmetryPlane;
    }
    bottom
    {
        type            symmetryPlane;
    }
    defaultFaces
    {
        type            empty;
    }
    procBoundary7to2
    {
        type            processor;
        value           nonuniform List<vector> 7((-0.155588 -0.00881506 0) (-0.284223 -0.0117542 0) (-0.325988 -0.00469504 0) (-0.232942 0.00513537 0) (-0.232942 0.00513537 0) (-0.168794 0.00877241 0) (0.0372047 0.00586912 0));
    }
    procBoundary7to3
    {
        type            processor;
        value           nonuniform List<vector> 8((1.52705 0.104102 0) (1.47506 0.0367883 0) (1.43836 0.0376985 0) (1.41364 0.0734653 0) (0.40049 0.00104667 0) (0.627685 -0.00415353 0) (0.902968 0.0472229 0) (0.902968 0.0472229 0));
    }
    procBoundary7to6
    {
        type            processor;
        value           nonuniform List<vector> 
47
(
(0.409412 -0.00250151 0)
(0.895665 -0.039518 0)
(1.41229 -0.0654446 0)
(1.88212 -0.115872 0)
(2.23826 -0.137152 0)
(2.43566 -0.182175 0)
(2.51518 -0.198792 0)
(2.53842 -0.237803 0)
(2.56759 -0.248253 0)
(2.58645 -0.26531 0)
(2.60232 -0.261332 0)
(2.62109 -0.259855 0)
(2.64541 -0.246137 0)
(2.66749 -0.230082 0)
(2.68309 -0.202378 0)
(2.69232 -0.173818 0)
(2.67955 -0.113535 0)
(2.66083 -0.0620419 0)
(2.61792 0.00985606 0)
(2.59872 0.052179 0)
(2.57896 0.118264 0)
(2.56163 0.15694 0)
(2.53501 0.199674 0)
(2.50705 0.232091 0)
(2.48036 0.257603 0)
(2.4518 0.293506 0)
(2.43034 0.321152 0)
(2.38949 0.365026 0)
(2.32034 0.418267 0)
(2.26129 0.468231 0)
(2.22775 0.524624 0)
(2.20712 0.576046 0)
(2.20778 0.606368 0)
(2.20712 0.614225 0)
(2.17943 0.622821 0)
(2.16834 0.662031 0)
(2.25614 0.701564 0)
(2.39938 0.724157 0)
(2.57298 0.724646 0)
(2.72911 0.743182 0)
(2.83194 0.690505 0)
(2.89784 0.528942 0)
(2.92959 0.303295 0)
(2.88312 0.0747204 0)
(2.75926 -0.0599637 0)
(2.59978 -0.0914126 0)
(2.5306 -0.0246567 0)
)
;
    }
}


// ************************************************************************* //
