/*--------------------------------*- C++ -*----------------------------------*\
  =========                 |
  \\      /  F ield         | OpenFOAM: The Open Source CFD Toolbox
   \\    /   O peration     | Website:  https://openfoam.org
    \\  /    A nd           | Version:  7
     \\/     M anipulation  |
\*---------------------------------------------------------------------------*/
FoamFile
{
    version     2.0;
    format      ascii;
    class       volVectorField;
    location    "1";
    object      U;
}
// * * * * * * * * * * * * * * * * * * * * * * * * * * * * * * * * * * * * * //

dimensions      [0 1 -1 0 0 0 0];

internalField   nonuniform List<vector> 
325
(
(1.13965 0.0868376 0)
(1.2347 0.0380368 0)
(1.24233 0.0335885 0)
(1.22204 0.0620576 0)
(0.0328666 -0.003419 0)
(0.21011 -0.0198305 0)
(0.486335 0.00955533 0)
(0.785128 0.0648481 0)
(1.00586 0.0282844 0)
(1.06486 0.026944 0)
(1.04675 0.0391824 0)
(-0.170595 -0.0101838 0)
(-0.020798 -0.0172209 0)
(0.239581 0.00412662 0)
(0.557433 0.049027 0)
(0.855089 0.0235589 0)
(0.956355 0.0222062 0)
(0.936685 0.0318678 0)
(-0.233304 -0.0041617 0)
(-0.0924772 -0.00869276 0)
(0.160097 0.00377232 0)
(0.470989 0.0189135 0)
(0.797174 0.0172848 0)
(0.91818 0.00650107 0)
(0.894766 0.0111748 0)
(-0.0919895 0.0100139 0)
(0.160007 -0.00467471 0)
(0.470922 -0.0205436 0)
(0.796259 -0.0040567 0)
(0.918131 -0.0106437 0)
(0.896537 -0.0126566 0)
(-0.0184647 0.0151492 0)
(0.24003 -0.00705356 0)
(0.556044 -0.0477758 0)
(0.850043 -0.0299738 0)
(0.955218 -0.0177712 0)
(0.939541 -0.029443 0)
(0.215596 0.0183951 0)
(0.488213 -0.0129827 0)
(0.781813 -0.061623 0)
(1.00115 -0.0338062 0)
(1.06407 -0.0225016 0)
(1.04962 -0.039706 0)
(0.635676 0.00209427 0)
(0.902302 -0.0478685 0)
(1.13487 -0.0890175 0)
(1.23013 -0.0367364 0)
(1.24179 -0.0326309 0)
(1.22357 -0.0652289 0)
(1.1672 -0.00788639 0)
(1.3948 -0.0437442 0)
(1.52136 -0.103891 0)
(1.47246 -0.0358049 0)
(1.43903 -0.0379597 0)
(1.41541 -0.0738304 0)
(1.68561 -0.0438362 0)
(1.8352 -0.0776591 0)
(1.83014 -0.111313 0)
(1.66659 -0.0324272 0)
(1.59741 -0.0438117 0)
(1.56134 -0.0978589 0)
(2.10272 -0.0643598 0)
(2.14008 -0.0931619 0)
(2.00283 -0.10881 0)
(1.78058 -0.0287032 0)
(1.68916 -0.0438781 0)
(1.63879 -0.121497 0)
(2.36602 -0.10309 0)
(2.31669 -0.0970547 0)
(2.06208 -0.101998 0)
(1.82593 -0.0230917 0)
(1.72174 -0.0469207 0)
(1.66824 -0.138672 0)
(2.48386 -0.13138 0)
(2.39551 -0.101405 0)
(2.06332 -0.0888888 0)
(1.83263 -0.0177077 0)
(1.7195 -0.0494128 0)
(1.67846 -0.15377 0)
(2.51117 -0.165611 0)
(2.41716 -0.10632 0)
(2.04465 -0.0754624 0)
(1.82626 -0.0105828 0)
(1.70431 -0.0508308 0)
(1.68457 -0.177983 0)
(2.51148 -0.193354 0)
(2.41816 -0.104365 0)
(2.02429 -0.0580095 0)
(1.82109 0.00136499 0)
(1.68904 -0.0593926 0)
(1.70087 -0.20318 0)
(2.51807 -0.217737 0)
(2.42384 -0.118233 0)
(2.02072 -0.0477856 0)
(1.82659 0.0134656 0)
(1.681 -0.0748194 0)
(1.72742 -0.228189 0)
(2.53886 -0.238913 0)
(2.45499 -0.139856 0)
(2.04149 -0.0431754 0)
(1.84392 0.0252853 0)
(1.68458 -0.0945168 0)
(1.76192 -0.253987 0)
(2.56906 -0.26003 0)
(2.51491 -0.160901 0)
(2.08848 -0.0401916 0)
(1.874 0.0329313 0)
(1.70104 -0.116247 0)
(1.80182 -0.282846 0)
(2.60418 -0.273582 0)
(2.58614 -0.183874 0)
(2.15371 -0.0392606 0)
(1.91532 0.0394701 0)
(1.72905 -0.146513 0)
(1.84602 -0.310757 0)
(2.63346 -0.281291 0)
(2.64092 -0.191716 0)
(2.22152 -0.0264891 0)
(1.96769 0.0437464 0)
(1.76984 -0.179637 0)
(1.89156 -0.336217 0)
(2.65549 -0.285668 0)
(2.66133 -0.220078 0)
(2.28447 -0.0149088 0)
(2.03253 0.0442014 0)
(1.82371 -0.215148 0)
(1.93719 -0.354965 0)
(2.67025 -0.278905 0)
(2.66339 -0.240845 0)
(2.3409 -0.00412515 0)
(2.10531 0.0405225 0)
(1.89249 -0.246047 0)
(1.97998 -0.368739 0)
(2.67765 -0.281846 0)
(2.66525 -0.253025 0)
(2.38854 -0.00733131 0)
(2.17625 0.0326829 0)
(1.96946 -0.279416 0)
(2.01721 -0.37875 0)
(2.67912 -0.250701 0)
(2.67704 -0.258802 0)
(2.43251 -0.0162108 0)
(2.24034 0.00844744 0)
(2.04731 -0.311834 0)
(2.04755 -0.383363 0)
(2.69211 -0.267169 0)
(2.68392 -0.267682 0)
(2.47753 -0.0392249 0)
(2.29484 -0.0287722 0)
(2.11799 -0.350478 0)
(2.06991 -0.387422 0)
(2.71943 -0.244329 0)
(2.68359 -0.274511 0)
(2.51609 -0.0704015 0)
(2.32844 -0.0837543 0)
(2.1812 -0.375983 0)
(2.08537 -0.381956 0)
(2.72264 -0.250059 0)
(2.67358 -0.276425 0)
(2.561 -0.108452 0)
(2.33759 -0.145269 0)
(2.22506 -0.400837 0)
(2.09323 -0.379837 0)
(2.68877 -0.193089 0)
(2.67471 -0.274649 0)
(2.60384 -0.152274 0)
(2.31845 -0.214164 0)
(2.24951 -0.411065 0)
(2.0958 -0.372798 0)
(2.67471 -0.173787 0)
(2.67869 -0.278809 0)
(2.61458 -0.197396 0)
(2.2805 -0.28975 0)
(2.25376 -0.428665 0)
(2.10196 -0.364518 0)
(2.6421 -0.100296 0)
(2.67547 -0.258726 0)
(2.63192 -0.229756 0)
(2.25361 -0.361112 0)
(2.24192 -0.444923 0)
(2.10284 -0.357972 0)
(2.6261 -0.0646728 0)
(2.6698 -0.251637 0)
(2.62785 -0.266487 0)
(2.23306 -0.429249 0)
(2.2255 -0.450176 0)
(2.09505 -0.349174 0)
(2.58797 0.00273975 0)
(2.65563 -0.224076 0)
(2.61259 -0.292814 0)
(2.26565 -0.497691 0)
(2.21538 -0.458953 0)
(2.08005 -0.340334 0)
(2.57109 0.038284 0)
(2.64346 -0.205323 0)
(2.59274 -0.316206 0)
(2.3072 -0.565085 0)
(2.20446 -0.464278 0)
(2.06369 -0.326663 0)
(2.54224 0.0942959 0)
(2.62573 -0.171864 0)
(2.57901 -0.331027 0)
(2.328 -0.637514 0)
(2.18723 -0.467908 0)
(2.05219 -0.322711 0)
(2.50894 0.153254 0)
(2.60243 -0.138268 0)
(2.55065 -0.360055 0)
(2.29559 -0.705954 0)
(2.16215 -0.513656 0)
(2.06851 -0.299373 0)
(2.44105 0.25025 0)
(2.55029 -0.066684 0)
(2.48146 -0.375603 0)
(2.25245 -0.729325 0)
(2.1553 -0.621034 0)
(2.09586 -0.333039 0)
(2.38667 0.332898 0)
(2.48271 -0.025316 0)
(2.35683 -0.412526 0)
(2.19802 -0.693201 0)
(2.15433 -0.683901 0)
(2.14247 -0.373519 0)
(2.3426 0.415217 0)
(2.37152 0.0197515 0)
(2.24005 -0.405642 0)
(2.16171 -0.642293 0)
(2.13545 -0.653303 0)
(2.19472 -0.438777 0)
(2.31411 0.469281 0)
(2.26052 0.0324937 0)
(2.15325 -0.409518 0)
(2.1065 -0.562926 0)
(2.1025 -0.61001 0)
(2.22963 -0.48652 0)
(2.29268 0.489012 0)
(2.19753 0.0475034 0)
(2.09639 -0.392197 0)
(2.06596 -0.503316 0)
(2.08873 -0.573233 0)
(2.23896 -0.497036 0)
(2.24824 0.495486 0)
(2.17634 0.0552168 0)
(2.05505 -0.349049 0)
(2.01979 -0.438205 0)
(2.06319 -0.517751 0)
(2.2362 -0.477282 0)
(2.19249 0.510253 0)
(2.11002 0.0510793 0)
(2.02318 -0.309319 0)
(2.00897 -0.385912 0)
(2.07478 -0.477895 0)
(2.24724 -0.454071 0)
(2.12605 0.506752 0)
(2.02048 0.0365645 0)
(1.96575 -0.249759 0)
(1.99424 -0.33185 0)
(2.07721 -0.427207 0)
(2.24804 -0.428386 0)
(2.04139 0.436802 0)
(1.91739 0.0177005 0)
(1.91789 -0.20154 0)
(1.984 -0.286354 0)
(2.0813 -0.384299 0)
(2.24969 -0.399753 0)
(1.92096 0.353688 0)
(1.83949 0.0185956 0)
(1.86923 -0.15235 0)
(1.96762 -0.242819 0)
(2.08147 -0.34005 0)
(2.25516 -0.368104 0)
(1.77442 0.268276 0)
(1.77338 0.0266748 0)
(1.83655 -0.115298 0)
(1.96177 -0.212152 0)
(2.08545 -0.302518 0)
(2.26327 -0.334416 0)
(1.71339 0.223531 0)
(1.71002 0.0374069 0)
(1.80543 -0.0859952 0)
(1.95511 -0.181362 0)
(2.09006 -0.264755 0)
(2.27225 -0.298261 0)
(1.69966 0.193543 0)
(1.67899 0.0508351 0)
(1.79229 -0.0643618 0)
(1.95875 -0.156499 0)
(2.0999 -0.229081 0)
(2.28476 -0.262748 0)
(1.72411 0.190004 0)
(1.67681 0.0537814 0)
(1.80047 -0.0495159 0)
(1.9738 -0.131037 0)
(2.1156 -0.192471 0)
(2.29884 -0.225115 0)
(1.73392 0.168589 0)
(1.67563 0.0720179 0)
(1.82012 -0.0295035 0)
(1.9974 -0.102987 0)
(2.13793 -0.155859 0)
(2.31635 -0.186803 0)
(1.67029 0.129869 0)
(1.65184 0.0753503 0)
(1.83572 -0.0130727 0)
(2.02511 -0.0771993 0)
(2.16513 -0.120376 0)
(2.33597 -0.148993 0)
(1.50747 0.125689 0)
(1.61159 0.0634952 0)
(1.83903 0.00114689 0)
(2.04816 -0.0506782 0)
(2.19292 -0.0867222 0)
(2.34884 -0.104492 0)
(1.36652 0.0803139 0)
(1.59336 0.04357 0)
(1.83478 0.00399998 0)
(2.06608 -0.0292451 0)
(2.21247 -0.0535324 0)
(2.36381 -0.0628338 0)
(1.31732 0.0274892 0)
(1.59491 0.0126113 0)
(1.83487 0.000281832 0)
(2.08016 -0.0115536 0)
(2.21567 -0.0213527 0)
(2.3484 -0.0297589 0)
)
;

boundaryField
{
    inlet
    {
        type            fixedValue;
        value           nonuniform 0();
    }
    outlet
    {
        type            inletOutlet;
        inletValue      uniform (3 0 0);
        value           nonuniform List<vector> 
54
(
(2.06851 -0.299373 0)
(2.09586 -0.333039 0)
(2.14247 -0.373519 0)
(2.19472 -0.438777 0)
(2.22963 -0.48652 0)
(2.23896 -0.497036 0)
(2.2362 -0.477282 0)
(2.24724 -0.454071 0)
(2.24804 -0.428386 0)
(2.24969 -0.399753 0)
(2.25516 -0.368104 0)
(2.26327 -0.334416 0)
(2.27225 -0.298261 0)
(2.28476 -0.262748 0)
(2.29884 -0.225115 0)
(2.31635 -0.186803 0)
(2.33597 -0.148993 0)
(2.34884 -0.104492 0)
(2.36381 -0.0628338 0)
(2.3484 -0.0297589 0)
(1.70087 -0.20318 0)
(1.72742 -0.228189 0)
(1.76192 -0.253987 0)
(1.80182 -0.282846 0)
(1.84602 -0.310757 0)
(1.89156 -0.336217 0)
(1.93719 -0.354965 0)
(1.97998 -0.368739 0)
(2.01721 -0.37875 0)
(2.04755 -0.383363 0)
(2.06991 -0.387422 0)
(2.08537 -0.381956 0)
(2.09323 -0.379837 0)
(2.0958 -0.372798 0)
(2.10196 -0.364518 0)
(2.10284 -0.357972 0)
(2.09505 -0.349174 0)
(2.08005 -0.340334 0)
(2.06369 -0.326663 0)
(2.05219 -0.322711 0)
(1.22204 0.0620576 0)
(1.04675 0.0391824 0)
(0.936685 0.0318678 0)
(0.894766 0.0111748 0)
(0.896537 -0.0126566 0)
(0.939541 -0.029443 0)
(1.04962 -0.039706 0)
(1.22357 -0.0652289 0)
(1.41541 -0.0738304 0)
(1.56134 -0.0978589 0)
(1.63879 -0.121497 0)
(1.66824 -0.138672 0)
(1.67846 -0.15377 0)
(1.68457 -0.177983 0)
)
;
    }
    triangle
    {
        type            slip;
    }
    top
    {
        type            symmetryPlane;
    }
    bottom
    {
        type            symmetryPlane;
    }
    defaultFaces
    {
        type            empty;
    }
    procBoundary7to2
    {
        type            processor;
        value           nonuniform List<vector> 7((-0.155117 -0.00962392 0) (-0.283958 -0.0119094 0) (-0.325874 -0.00523376 0) (-0.233054 0.00517276 0) (-0.233054 0.00517276 0) (-0.16926 0.00916434 0) (0.0360109 0.00547384 0));
    }
    procBoundary7to3
    {
        type            processor;
        value           nonuniform List<vector> 8((1.52578 0.103743 0) (1.47736 0.0366119 0) (1.43971 0.0379552 0) (1.41486 0.0783064 0) (0.402442 0.00158897 0) (0.627148 -0.00310999 0) (0.898921 0.0470775 0) (0.898921 0.0470775 0));
    }
    procBoundary7to6
    {
        type            processor;
        value           nonuniform List<vector> 
47
(
(0.407333 -0.00184576 0)
(0.893112 -0.0391327 0)
(1.41002 -0.0646646 0)
(1.88068 -0.11553 0)
(2.23757 -0.136175 0)
(2.43514 -0.180838 0)
(2.51493 -0.197833 0)
(2.53829 -0.237399 0)
(2.56749 -0.247988 0)
(2.58635 -0.264956 0)
(2.60222 -0.261051 0)
(2.62106 -0.259338 0)
(2.64537 -0.245919 0)
(2.66744 -0.22976 0)
(2.68305 -0.202263 0)
(2.69229 -0.173715 0)
(2.67958 -0.113554 0)
(2.66079 -0.0619123 0)
(2.61784 0.0099514 0)
(2.59867 0.052155 0)
(2.5789 0.118299 0)
(2.56164 0.156917 0)
(2.53496 0.19975 0)
(2.507 0.232132 0)
(2.4803 0.257668 0)
(2.4518 0.293507 0)
(2.43032 0.321233 0)
(2.38952 0.364993 0)
(2.32032 0.418292 0)
(2.26131 0.468213 0)
(2.22774 0.524646 0)
(2.20713 0.576056 0)
(2.20779 0.606378 0)
(2.20713 0.614237 0)
(2.17945 0.622831 0)
(2.16836 0.66204 0)
(2.25617 0.701571 0)
(2.39942 0.724162 0)
(2.57302 0.72466 0)
(2.72915 0.743201 0)
(2.83197 0.690489 0)
(2.89785 0.528915 0)
(2.9296 0.303262 0)
(2.88314 0.0747015 0)
(2.7593 -0.0599786 0)
(2.59982 -0.0914237 0)
(2.53065 -0.0246606 0)
)
;
    }
}


// ************************************************************************* //
