/*--------------------------------*- C++ -*----------------------------------*\
  =========                 |
  \\      /  F ield         | OpenFOAM: The Open Source CFD Toolbox
   \\    /   O peration     | Website:  https://openfoam.org
    \\  /    A nd           | Version:  8
     \\/     M anipulation  |
\*---------------------------------------------------------------------------*/
FoamFile
{
    version     2.0;
    format      ascii;
    class       volScalarField;
    location    "2.1";
    object      rho;
}
// * * * * * * * * * * * * * * * * * * * * * * * * * * * * * * * * * * * * * //

dimensions      [1 -3 0 0 0 0 0];

internalField   nonuniform List<scalar> 
2600
(
0.980597
0.978715
1.03685
1.16505
1.35687
1.60025
1.73823
1.81619
1.80141
1.74075
0.936058
0.9142
0.97586
1.14048
1.35829
1.60212
1.72295
1.79601
1.78129
1.71232
0.927004
0.88284
0.92962
1.10771
1.34211
1.6004
1.71493
1.77471
1.77559
1.70017
0.932262
0.879065
0.905862
1.06791
1.3055
1.56676
1.71139
1.76543
1.77884
1.70066
0.938062
0.878924
0.895221
1.03251
1.26692
1.49112
1.64337
1.73522
1.73244
1.66188
0.943213
0.877759
0.880289
0.994493
1.21585
1.42811
1.55113
1.64774
1.64684
1.58873
0.946502
0.872832
0.864057
0.961993
1.15506
1.37014
1.49478
1.56693
1.5771
1.53443
0.948007
0.870941
0.861603
0.953647
1.13283
1.32691
1.44964
1.51812
1.53339
1.49655
0.947602
0.874414
0.869421
0.965625
1.13351
1.30483
1.4347
1.48667
1.52543
1.46429
0.948109
0.877905
0.876611
0.968332
1.12669
1.29651
1.41784
1.46431
1.50208
1.46289
0.948053
0.878194
0.8772
0.968366
1.12647
1.29872
1.40014
1.47998
1.48213
1.47405
0.947455
0.874931
0.871803
0.966997
1.13364
1.30836
1.40894
1.49059
1.48045
1.48532
0.947729
0.870776
0.86175
0.954883
1.13218
1.32673
1.44866
1.52682
1.53007
1.49559
0.946304
0.872318
0.863908
0.962527
1.15372
1.36467
1.50365
1.59096
1.59644
1.53669
0.943154
0.877332
0.87946
0.994613
1.21361
1.42965
1.56722
1.63456
1.65709
1.59141
0.937954
0.878586
0.895236
1.03341
1.26722
1.49576
1.63327
1.71474
1.72705
1.6371
0.931955
0.878954
0.906678
1.06884
1.30676
1.56119
1.70716
1.78658
1.76038
1.68466
0.926533
0.883078
0.930595
1.10895
1.34176
1.59573
1.72723
1.79191
1.77075
1.72859
0.93612
0.914503
0.976458
1.14232
1.35786
1.60244
1.72505
1.78237
1.79083
1.73626
0.980879
0.978903
1.0375
1.16709
1.35729
1.60064
1.7322
1.79385
1.8105
1.73419
1.21623
1.06069
1.09829
1.18545
1.34835
1.59052
1.73599
1.81574
1.81376
1.73641
1.45544
1.13812
1.15988
1.20624
1.33463
1.57095
1.72914
1.81917
1.80857
1.74271
1.65923
1.22198
1.20966
1.22481
1.31988
1.54522
1.71169
1.80998
1.79857
1.744
1.81706
1.32485
1.25217
1.23943
1.30586
1.51406
1.68887
1.7939
1.79676
1.74135
1.94391
1.43357
1.29573
1.25128
1.29596
1.47818
1.66827
1.78622
1.79835
1.73667
2.04195
1.53281
1.34232
1.26024
1.29194
1.44121
1.64911
1.77926
1.79661
1.73242
2.11999
1.61957
1.39251
1.27788
1.29324
1.40712
1.62377
1.76813
1.79183
1.72973
2.18342
1.69494
1.4406
1.31077
1.29851
1.37878
1.58833
1.74787
1.78147
1.72586
2.23315
1.76564
1.48683
1.33802
1.3075
1.35714
1.54758
1.72209
1.77289
1.71973
2.2733
1.8285
1.5389
1.36046
1.31234
1.34018
1.50807
1.69855
1.76685
1.71259
2.30559
1.88276
1.5927
1.39301
1.31473
1.32854
1.46897
1.67633
1.75958
1.70553
2.33408
1.92988
1.63849
1.43698
1.32133
1.32345
1.43029
1.64918
1.75026
1.69842
2.35977
1.9739
1.67895
1.47615
1.33643
1.32179
1.39659
1.61653
1.73802
1.69031
2.38414
2.01391
1.71965
1.50713
1.35766
1.32308
1.37003
1.5816
1.72614
1.68166
2.40843
2.0505
1.76
1.53946
1.37858
1.32446
1.34962
1.54711
1.71452
1.67318
2.43344
2.08585
1.79788
1.57661
1.39981
1.32675
1.33525
1.51148
1.70143
1.66557
2.45921
2.12163
1.83512
1.61317
1.42834
1.33306
1.32449
1.47401
1.6844
1.65855
2.4833
2.15752
1.87326
1.6475
1.46101
1.34247
1.3183
1.43544
1.66117
1.65136
2.50499
2.19227
1.91196
1.68228
1.49279
1.35466
1.31632
1.40043
1.63251
1.64419
2.52379
2.22549
1.94956
1.71782
1.52487
1.37049
1.31567
1.36984
1.60237
1.63687
3.72674
3.60286
3.51831
3.43485
3.35286
3.27177
3.18259
3.08184
2.93263
2.74285
3.57212
3.45358
3.39844
3.33582
3.27279
3.20261
3.11945
3.01441
2.85895
2.6311
3.53268
3.44788
3.40308
3.34422
3.28493
3.21679
3.13381
3.02636
2.86902
2.65358
3.4737
3.40887
3.37204
3.31939
3.26645
3.20015
3.11816
3.0097
2.85503
2.63947
3.42147
3.37005
3.34052
3.29265
3.24368
3.17942
3.10031
2.99322
2.84401
2.62905
3.37079
3.32965
3.30471
3.26172
3.21768
3.15632
3.08084
2.97595
2.83335
2.62317
3.32848
3.29554
3.27367
3.2339
3.19248
3.13244
3.05991
2.9573
2.82135
2.62285
3.28601
3.25848
3.23793
3.20099
3.16209
3.10409
3.03495
2.93537
2.80703
2.62349
3.23884
3.21634
3.19762
3.16399
3.12742
3.07193
3.00683
2.91196
2.79248
2.62397
3.1932
3.17409
3.15709
3.12603
3.0915
3.03904
2.97804
2.88879
2.77786
2.62404
3.15524
3.13723
3.12097
3.09178
3.05911
3.00983
2.95251
2.86813
2.76497
2.62416
3.12979
3.1094
3.09226
3.06393
3.03232
2.98534
2.93081
2.85144
2.75505
2.62647
3.11709
3.09576
3.07721
3.0481
3.01563
2.96892
2.91572
2.84073
2.75031
2.63151
3.11275
3.0923
3.07228
3.0419
3.00833
2.96192
2.90968
2.83678
2.75032
2.63994
3.10295
3.08227
3.06293
3.03475
3.00296
2.95889
2.9085
2.83819
2.75519
2.65204
3.08921
3.06779
3.04942
3.02354
2.99414
2.95347
2.90627
2.84094
2.76293
2.66574
3.07484
3.05302
3.03525
3.0107
2.98309
2.94538
2.90147
2.84156
2.76965
2.67949
3.06026
3.03864
3.02146
2.99788
2.97167
2.93633
2.8953
2.84029
2.77391
2.69079
3.04534
3.02475
3.00847
2.98595
2.96096
2.92754
2.88888
2.83768
2.77614
2.69916
3.02997
3.01131
2.99621
2.975
2.95132
2.91969
2.88297
2.83484
2.77708
2.70525
1.40517
1.41651
1.42982
1.44544
1.46536
1.4876
1.51902
1.77388
2.94286
3.28125
1.40517
1.41651
1.42982
1.44544
1.46535
1.4876
1.51903
1.77333
2.94012
3.2749
1.40517
1.41651
1.42982
1.44545
1.46534
1.48761
1.51904
1.77229
2.9347
3.26739
1.40517
1.41651
1.42982
1.44545
1.46532
1.48762
1.51905
1.77078
2.92653
3.25787
1.40517
1.41651
1.42982
1.44546
1.46529
1.48763
1.51905
1.7688
2.91695
3.24691
1.40517
1.41651
1.42981
1.44547
1.46526
1.48765
1.51905
1.76648
2.90671
3.23195
1.40517
1.41651
1.42981
1.44547
1.46523
1.48767
1.51903
1.7638
2.8954
3.21333
1.40517
1.41651
1.4298
1.44548
1.4652
1.48768
1.519
1.76073
2.88418
3.19272
1.40517
1.41651
1.4298
1.44549
1.46518
1.4877
1.51895
1.75718
2.87451
3.17378
1.40517
1.41652
1.42979
1.4455
1.46515
1.48771
1.5189
1.75311
2.86616
3.15865
1.40517
1.41652
1.42979
1.44551
1.46513
1.48773
1.51884
1.74848
2.85826
3.1486
1.40517
1.41652
1.42978
1.44552
1.4651
1.48774
1.51877
1.74331
2.84905
3.14287
1.40517
1.41652
1.42978
1.44553
1.46509
1.48775
1.51871
1.73769
2.83747
3.13573
1.40517
1.41652
1.42978
1.44553
1.46507
1.48776
1.51865
1.73174
2.82415
3.12498
1.40517
1.41652
1.42977
1.44554
1.46505
1.48777
1.51861
1.72557
2.8103
3.11325
1.40517
1.41652
1.42977
1.44555
1.46504
1.48778
1.51858
1.71926
2.79634
3.10135
1.40517
1.41653
1.42977
1.44556
1.46502
1.48779
1.51858
1.71294
2.78215
3.09025
1.40517
1.41653
1.42976
1.44556
1.46501
1.48781
1.5186
1.70637
2.76798
3.08052
1.40517
1.41653
1.42976
1.44557
1.465
1.48782
1.51865
1.69914
2.75417
3.07228
1.40517
1.41653
1.42976
1.44557
1.46499
1.48783
1.51874
1.69151
2.7407
3.06495
1.40517
1.41653
1.42976
1.44557
1.46499
1.48783
1.51874
1.69151
2.7407
3.06495
1.40517
1.41653
1.42976
1.44557
1.465
1.48782
1.51865
1.69914
2.75417
3.07228
1.40517
1.41653
1.42976
1.44556
1.46501
1.48781
1.5186
1.70637
2.76798
3.08052
1.40517
1.41653
1.42977
1.44556
1.46502
1.48779
1.51858
1.71294
2.78215
3.09025
1.40517
1.41652
1.42977
1.44555
1.46504
1.48778
1.51858
1.71926
2.79634
3.10135
1.40517
1.41652
1.42977
1.44554
1.46505
1.48777
1.51861
1.72557
2.81031
3.11325
1.40517
1.41652
1.42978
1.44553
1.46507
1.48776
1.51865
1.73174
2.82415
3.12498
1.40517
1.41652
1.42978
1.44553
1.46509
1.48775
1.51871
1.73769
2.83747
3.13573
1.40517
1.41652
1.42978
1.44552
1.4651
1.48774
1.51877
1.74331
2.84905
3.14287
1.40517
1.41652
1.42979
1.44551
1.46513
1.48773
1.51884
1.74848
2.85826
3.1486
1.40517
1.41652
1.42979
1.4455
1.46515
1.48771
1.5189
1.75311
2.86616
3.15865
1.40517
1.41651
1.4298
1.44549
1.46518
1.4877
1.51895
1.75718
2.87451
3.17378
1.40517
1.41651
1.4298
1.44548
1.4652
1.48768
1.519
1.76073
2.88419
3.19272
1.40517
1.41651
1.42981
1.44547
1.46523
1.48767
1.51903
1.7638
2.89541
3.21333
1.40517
1.41651
1.42981
1.44547
1.46526
1.48765
1.51905
1.76648
2.90671
3.23195
1.40517
1.41651
1.42982
1.44546
1.46529
1.48763
1.51905
1.7688
2.91695
3.24691
1.40517
1.41651
1.42982
1.44545
1.46532
1.48762
1.51905
1.77078
2.92653
3.25787
1.40517
1.41651
1.42982
1.44545
1.46534
1.48761
1.51904
1.77229
2.9347
3.26739
1.40517
1.41651
1.42982
1.44544
1.46535
1.4876
1.51903
1.77333
2.94012
3.2749
1.40517
1.41651
1.42982
1.44544
1.46536
1.4876
1.51902
1.77388
2.94286
3.28125
3.02997
3.01131
2.99621
2.975
2.95132
2.91968
2.88296
2.83484
2.77707
2.70522
3.04535
3.02476
3.00847
2.98595
2.96096
2.92754
2.88887
2.83767
2.77613
2.69914
3.06027
3.03864
3.02147
2.99788
2.97167
2.93632
2.89529
2.84027
2.77389
2.69078
3.07485
3.05302
3.03525
3.0107
2.98309
2.94538
2.90146
2.84154
2.76964
2.67948
3.08921
3.06779
3.04942
3.02354
2.99413
2.95346
2.90626
2.84092
2.76292
2.66573
3.10295
3.08227
3.06292
3.03475
3.00295
2.95888
2.90849
2.83818
2.75519
2.65203
3.11275
3.09229
3.07227
3.04189
3.00832
2.96191
2.90967
2.83677
2.75031
2.63993
3.11709
3.09576
3.0772
3.0481
3.01562
2.96891
2.91571
2.84073
2.75029
2.6315
3.12978
3.1094
3.09225
3.06392
3.03232
2.98533
2.9308
2.85143
2.75504
2.62647
3.15524
3.13723
3.12096
3.09177
3.0591
3.00982
2.9525
2.86813
2.76496
2.62417
3.19319
3.17408
3.15708
3.12602
3.09149
3.03904
2.97803
2.88878
2.77786
2.62405
3.23884
3.21633
3.19761
3.16399
3.12742
3.07193
3.00682
2.91196
2.79249
2.62398
3.28601
3.25848
3.23792
3.20099
3.16209
3.10408
3.03495
2.93536
2.80705
2.6235
3.32847
3.29554
3.27367
3.23389
3.19247
3.13243
3.0599
2.9573
2.82137
2.62286
3.37078
3.32964
3.3047
3.26171
3.21767
3.15631
3.08083
2.97595
2.83336
2.6232
3.42146
3.37005
3.34052
3.29264
3.24368
3.17942
3.1003
2.99322
2.84402
2.62911
3.47369
3.40887
3.37203
3.31938
3.26644
3.20015
3.11816
3.0097
2.85503
2.63955
3.53268
3.44788
3.40308
3.34421
3.28492
3.21678
3.1338
3.02636
2.86903
2.65366
3.57212
3.45357
3.39843
3.33581
3.27279
3.20261
3.11945
3.01441
2.85896
2.63117
3.72674
3.60285
3.5183
3.43485
3.35285
3.27176
3.18259
3.08184
2.93264
2.74289
2.5238
2.22553
1.94957
1.71779
1.52482
1.37064
1.31572
1.36964
1.60198
1.63684
2.50501
2.19239
1.91202
1.68222
1.49269
1.35495
1.31646
1.40032
1.63259
1.64358
2.4833
2.15766
1.87338
1.64744
1.4608
1.34263
1.31842
1.43491
1.66034
1.65056
2.45918
2.12172
1.83527
1.61302
1.42802
1.33334
1.32471
1.47264
1.68271
1.65849
2.43339
2.08585
1.79798
1.57632
1.39964
1.32702
1.33575
1.50985
1.69925
1.66616
2.4084
2.05043
1.75993
1.53914
1.37868
1.3246
1.35038
1.54615
1.71303
1.67285
2.38415
2.01384
1.71952
1.50686
1.35767
1.32316
1.37067
1.58189
1.72622
1.68072
2.35984
1.97393
1.67888
1.47584
1.33624
1.322
1.39661
1.61703
1.73905
1.69024
2.33419
1.93008
1.6384
1.4364
1.32131
1.32373
1.43063
1.6495
1.74995
1.69964
2.30567
1.88308
1.59235
1.39255
1.31495
1.3292
1.47067
1.6767
1.75805
1.70696
2.27334
1.82871
1.53854
1.36033
1.31253
1.34125
1.51061
1.69882
1.76509
1.7113
2.23314
1.76563
1.48699
1.33757
1.30746
1.35836
1.54747
1.72231
1.77244
1.71729
2.18335
1.69498
1.44079
1.30979
1.29832
1.38049
1.58615
1.74817
1.78389
1.72448
2.11991
1.6197
1.39206
1.27703
1.29309
1.40946
1.62429
1.76928
1.79298
1.73297
2.04202
1.53253
1.34179
1.2599
1.29171
1.44355
1.65244
1.782
1.79533
1.73698
1.9441
1.43293
1.29576
1.25093
1.29561
1.47977
1.67022
1.79041
1.79402
1.73322
1.8173
1.32443
1.2526
1.23854
1.30508
1.51607
1.68614
1.79736
1.79525
1.73228
1.65953
1.22201
1.2101
1.22336
1.31818
1.54938
1.708
1.80405
1.80292
1.73641
1.45571
1.13847
1.15994
1.20447
1.33296
1.5753
1.72979
1.81515
1.81391
1.74832
1.21624
1.06081
1.09772
1.18368
1.34713
1.59274
1.74063
1.82005
1.81431
1.75181
2.70452
2.59592
2.45242
2.29696
2.11721
1.91607
1.70518
1.51688
1.29916
1.06593
2.70311
2.59311
2.44984
2.29382
2.11397
1.91324
1.70307
1.51368
1.29605
1.06745
2.70067
2.58888
2.44749
2.28869
2.10857
1.90868
1.69964
1.50847
1.29102
1.06996
2.69697
2.5829
2.44261
2.28082
2.1007
1.90217
1.69497
1.50138
1.28508
1.07406
2.69194
2.57577
2.43498
2.2712
2.09047
1.89347
1.68864
1.49201
1.27759
1.07995
2.68623
2.56712
2.42465
2.25872
2.07733
1.88221
1.68013
1.47996
1.26996
1.08812
2.67991
2.55691
2.41166
2.24378
2.0612
1.8679
1.66882
1.46473
1.26175
1.0989
2.67376
2.54551
2.396
2.22565
2.04182
1.85016
1.65364
1.44606
1.2543
1.11363
2.66785
2.53318
2.37783
2.20465
2.01901
1.82869
1.63435
1.42354
1.24692
1.1334
2.66236
2.52032
2.35789
2.1807
1.99318
1.80357
1.61051
1.39853
1.2376
1.16288
2.65705
2.50714
2.33642
2.15447
1.96447
1.77567
1.58257
1.37113
1.22569
1.2031
2.65162
2.49338
2.31437
2.12626
1.93385
1.74509
1.55149
1.34368
1.21743
1.24971
2.64564
2.47857
2.29074
2.09628
1.90144
1.71286
1.5171
1.31859
1.21573
1.30115
2.63853
2.46197
2.26518
2.06438
1.86711
1.6782
1.48108
1.30042
1.22145
1.35694
2.6297
2.4427
2.23693
2.02942
1.83039
1.64086
1.44272
1.2892
1.23887
1.41451
2.61879
2.4201
2.20459
1.99071
1.78986
1.59954
1.40601
1.2845
1.27349
1.47156
2.60566
2.39299
2.16684
1.94635
1.74467
1.55344
1.37207
1.28376
1.32452
1.52408
2.59008
2.36008
2.12106
1.89509
1.6941
1.5036
1.34556
1.28918
1.39307
1.56598
2.57097
2.3199
2.06654
1.8362
1.63684
1.4519
1.32918
1.30428
1.47221
1.5973
2.54633
2.26966
2.00249
1.77077
1.57382
1.40231
1.31849
1.33525
1.54998
1.62262
2.54634
2.2697
2.00248
1.77077
1.57378
1.40234
1.31854
1.33535
1.5504
1.62193
2.57099
2.31992
2.06652
1.83616
1.63684
1.45179
1.32923
1.30441
1.47245
1.59758
2.5901
2.36009
2.12105
1.89508
1.6941
1.5035
1.34559
1.28942
1.39346
1.56587
2.60567
2.393
2.16685
1.94638
1.74466
1.55335
1.37204
1.28388
1.3247
1.52414
2.6188
2.42012
2.20462
1.99072
1.78987
1.59948
1.40591
1.28457
1.27353
1.47137
2.6297
2.44272
2.23696
2.02944
1.83038
1.64083
1.44264
1.28924
1.23887
1.41433
2.63853
2.46198
2.2652
2.0644
1.86712
1.67819
1.48101
1.3004
1.22148
1.35689
2.64564
2.47858
2.29076
2.09631
1.90147
1.71287
1.51706
1.31853
1.21576
1.30119
2.65162
2.49338
2.31439
2.12628
1.93387
1.74511
1.55148
1.34365
1.21744
1.24986
2.65705
2.50715
2.33643
2.15448
1.96449
1.77569
1.58258
1.37112
1.2257
1.20318
2.66236
2.52033
2.3579
2.18071
1.9932
1.80358
1.61051
1.39853
1.23759
1.16289
2.66785
2.53318
2.37783
2.20466
2.01902
1.8287
1.63437
1.42355
1.24691
1.13334
2.67376
2.54551
2.396
2.22565
2.04183
1.85017
1.65365
1.44608
1.25429
1.11356
2.67991
2.55692
2.41166
2.24379
2.06121
1.86791
1.66883
1.46474
1.26174
1.09884
2.68623
2.56712
2.42465
2.25872
2.07733
1.88222
1.68014
1.47998
1.26997
1.08808
2.69194
2.57577
2.43498
2.2712
2.09047
1.89347
1.68864
1.49201
1.2776
1.07992
2.69697
2.5829
2.44261
2.28082
2.1007
1.90216
1.69497
1.50139
1.28509
1.07404
2.70067
2.58888
2.44748
2.28869
2.10857
1.90867
1.69963
1.50846
1.29103
1.06994
2.70311
2.59311
2.44984
2.29381
2.11396
1.91323
1.70306
1.51367
1.29605
1.06745
2.70452
2.59591
2.45242
2.29695
2.11721
1.91606
1.70518
1.51687
1.29915
1.06592
3.01015
2.99431
2.98083
2.96146
2.9395
2.91012
2.87567
2.83115
2.7774
2.71197
2.98984
2.97601
2.96364
2.94598
2.92576
2.89899
2.86726
2.82706
2.77805
2.71958
2.97316
2.96002
2.94831
2.93192
2.91302
2.88854
2.8592
2.82289
2.77818
2.72547
2.95955
2.94638
2.93517
2.9197
2.90179
2.87913
2.8518
2.81867
2.77783
2.72993
2.94885
2.93535
2.92442
2.90962
2.8925
2.8713
2.84563
2.81502
2.7775
2.73354
2.94069
2.9268
2.91599
2.90167
2.88519
2.86515
2.8409
2.81225
2.77737
2.73664
2.9343
2.9201
2.90931
2.89531
2.87932
2.86018
2.83716
2.8101
2.77737
2.73912
2.92877
2.91444
2.90368
2.8899
2.87426
2.8558
2.83381
2.80807
2.77719
2.74085
2.92344
2.90915
2.89851
2.88495
2.86959
2.85165
2.83051
2.80588
2.77657
2.7418
2.91806
2.90395
2.8935
2.8802
2.86513
2.84763
2.82717
2.80348
2.77543
2.74232
2.91264
2.89874
2.88853
2.87553
2.86077
2.8437
2.82384
2.80094
2.77409
2.7428
2.90731
2.89364
2.88366
2.87095
2.85653
2.83991
2.82064
2.79856
2.77313
2.74359
2.90221
2.88879
2.87904
2.86661
2.85257
2.83644
2.81783
2.79681
2.77288
2.74501
2.89739
2.88423
2.87477
2.86266
2.84907
2.83351
2.81578
2.79604
2.77352
2.74742
2.89278
2.87987
2.87081
2.85912
2.84612
2.8313
2.8147
2.79619
2.77521
2.7508
2.88835
2.87566
2.86709
2.856
2.84378
2.82988
2.81443
2.79717
2.77779
2.75475
2.88413
2.87165
2.86369
2.85337
2.84211
2.82928
2.81499
2.79898
2.78087
2.7588
2.88032
2.86799
2.86061
2.85107
2.84077
2.82896
2.81576
2.80077
2.78346
2.76204
2.87716
2.86489
2.858
2.84917
2.83972
2.82879
2.81642
2.80215
2.78528
2.7642
2.87531
2.86298
2.8563
2.84783
2.83889
2.82857
2.81677
2.80304
2.78647
2.76567
1.40517
1.41653
1.42976
1.44558
1.46497
1.48785
1.51889
1.68152
2.72481
3.05698
1.40517
1.41653
1.42975
1.44559
1.46496
1.48788
1.51911
1.66914
2.70676
3.04838
1.40517
1.41653
1.42975
1.44559
1.46494
1.48791
1.51939
1.65657
2.68966
3.04029
1.40517
1.41653
1.42975
1.4456
1.46493
1.48794
1.51969
1.64399
2.6732
3.03286
1.40516
1.41654
1.42974
1.44561
1.46492
1.48798
1.52001
1.63173
2.65712
3.02646
1.40516
1.41654
1.42974
1.44561
1.4649
1.48803
1.52034
1.62039
2.64102
3.02115
1.40516
1.41654
1.42974
1.44562
1.46489
1.48806
1.52069
1.61046
2.62427
3.01651
1.40516
1.41654
1.42974
1.44563
1.46489
1.48808
1.52109
1.60242
2.60603
3.01198
1.40516
1.41654
1.42974
1.44563
1.46489
1.48807
1.52157
1.59656
2.58656
3.00722
1.40516
1.41654
1.42973
1.44564
1.4649
1.48802
1.52209
1.59256
2.567
3.00216
1.40516
1.41654
1.42973
1.44564
1.46491
1.48793
1.52265
1.58994
2.54839
2.99688
1.40516
1.41654
1.42973
1.44564
1.46493
1.4878
1.52322
1.58822
2.53135
2.99157
1.40516
1.41654
1.42973
1.44564
1.46497
1.48766
1.52379
1.58707
2.51619
2.9864
1.40516
1.41654
1.42973
1.44563
1.465
1.48752
1.52436
1.58625
2.50302
2.9815
1.40516
1.41655
1.42973
1.44563
1.46505
1.48738
1.52491
1.5856
2.49185
2.97695
1.40516
1.41655
1.42973
1.44562
1.46509
1.48727
1.52546
1.58505
2.48282
2.97278
1.40516
1.41655
1.42974
1.44561
1.46513
1.48717
1.52597
1.58456
2.47603
2.96883
1.40516
1.41655
1.42974
1.4456
1.46516
1.4871
1.5264
1.58414
2.47146
2.9653
1.40516
1.41655
1.42974
1.44559
1.46518
1.48706
1.52669
1.58382
2.46832
2.96247
1.40516
1.41655
1.42974
1.44559
1.4652
1.487
1.52711
1.58365
2.46672
2.96084
1.40516
1.41655
1.42974
1.44559
1.4652
1.487
1.52711
1.58365
2.46672
2.96083
1.40516
1.41655
1.42974
1.44559
1.46518
1.48706
1.52669
1.58382
2.46832
2.96247
1.40516
1.41655
1.42974
1.4456
1.46516
1.4871
1.5264
1.58414
2.47146
2.9653
1.40516
1.41655
1.42974
1.44561
1.46513
1.48717
1.52597
1.58456
2.47603
2.96883
1.40516
1.41655
1.42973
1.44562
1.46509
1.48727
1.52546
1.58505
2.48282
2.97278
1.40516
1.41655
1.42973
1.44563
1.46505
1.48738
1.52491
1.5856
2.49185
2.97695
1.40516
1.41654
1.42973
1.44563
1.465
1.48752
1.52436
1.58625
2.50302
2.9815
1.40516
1.41654
1.42973
1.44564
1.46497
1.48766
1.52379
1.58707
2.51619
2.9864
1.40516
1.41654
1.42973
1.44564
1.46493
1.4878
1.52322
1.58822
2.53135
2.99157
1.40516
1.41654
1.42973
1.44564
1.46491
1.48793
1.52265
1.58994
2.54839
2.99688
1.40516
1.41654
1.42973
1.44564
1.4649
1.48802
1.52209
1.59256
2.567
3.00216
1.40516
1.41654
1.42974
1.44563
1.46489
1.48807
1.52157
1.59656
2.58655
3.00722
1.40516
1.41654
1.42974
1.44563
1.46489
1.48808
1.52109
1.60242
2.60603
3.01198
1.40516
1.41654
1.42974
1.44562
1.46489
1.48806
1.52069
1.61046
2.62427
3.01651
1.40516
1.41654
1.42974
1.44561
1.4649
1.48803
1.52034
1.62039
2.64102
3.02115
1.40516
1.41654
1.42974
1.44561
1.46492
1.48798
1.52001
1.63173
2.65712
3.02646
1.40517
1.41653
1.42975
1.4456
1.46493
1.48794
1.51969
1.64399
2.6732
3.03286
1.40517
1.41653
1.42975
1.44559
1.46494
1.48791
1.51939
1.65657
2.68966
3.0403
1.40517
1.41653
1.42975
1.44559
1.46496
1.48788
1.51911
1.66914
2.70676
3.04838
1.40517
1.41653
1.42976
1.44558
1.46497
1.48785
1.51889
1.68152
2.72481
3.05698
2.8753
2.86297
2.85629
2.84782
2.83889
2.82857
2.81676
2.80304
2.78647
2.76566
2.87716
2.86488
2.858
2.84916
2.83971
2.82879
2.81641
2.80215
2.78527
2.76419
2.88032
2.86799
2.86061
2.85107
2.84077
2.82896
2.81576
2.80077
2.78346
2.76204
2.88413
2.87165
2.86369
2.85337
2.84211
2.82927
2.81498
2.79898
2.78087
2.7588
2.88835
2.87565
2.86709
2.856
2.84378
2.82988
2.81443
2.79717
2.77779
2.75475
2.89278
2.87987
2.8708
2.85912
2.84612
2.8313
2.8147
2.7962
2.77522
2.7508
2.89739
2.88423
2.87477
2.86266
2.84907
2.83351
2.81578
2.79604
2.77352
2.74742
2.90221
2.88879
2.87904
2.86662
2.85257
2.83644
2.81783
2.79681
2.77289
2.74501
2.90731
2.89365
2.88366
2.87095
2.85654
2.83992
2.82064
2.79856
2.77313
2.74359
2.91264
2.89874
2.88853
2.87553
2.86077
2.8437
2.82384
2.80095
2.77409
2.7428
2.91806
2.90395
2.89351
2.8802
2.86513
2.84764
2.82718
2.80348
2.77543
2.74232
2.92344
2.90916
2.89852
2.88495
2.86959
2.85165
2.83051
2.80588
2.77657
2.7418
2.92877
2.91444
2.90369
2.8899
2.87426
2.8558
2.83381
2.80807
2.77719
2.74085
2.9343
2.92011
2.90932
2.89532
2.87932
2.86018
2.83716
2.8101
2.77737
2.73912
2.9407
2.92681
2.91599
2.90168
2.88519
2.86515
2.8409
2.81225
2.77737
2.73664
2.94886
2.93535
2.92442
2.90962
2.8925
2.8713
2.84563
2.81502
2.7775
2.73354
2.95956
2.94638
2.93517
2.9197
2.90179
2.87913
2.8518
2.81867
2.77783
2.72992
2.97316
2.96002
2.94831
2.93192
2.91302
2.88854
2.8592
2.82289
2.77817
2.72547
2.98984
2.97601
2.96364
2.94598
2.92576
2.89899
2.86726
2.82706
2.77804
2.71957
3.01015
2.99431
2.98082
2.96146
2.9395
2.91012
2.87567
2.83115
2.77739
2.71195
)
;

boundaryField
{
    inlet
    {
        type            calculated;
        value           uniform 1.40001;
    }
    outlet
    {
        type            calculated;
        value           nonuniform List<scalar> 
100
(
1.62208
1.59779
1.56611
1.52439
1.47161
1.41456
1.35711
1.30138
1.25002
1.20331
1.16301
1.13346
1.11367
1.09894
1.08817
1.08001
1.07413
1.07004
1.06754
1.06602
1.73628
1.74241
1.74409
1.74146
1.73673
1.73245
1.72971
1.72592
1.71987
1.71271
1.70562
1.69851
1.69044
1.68182
1.67333
1.66569
1.65869
1.65156
1.6444
1.63703
1.73962
1.7115
1.70084
1.7021
1.66147
1.58818
1.53407
1.49676
1.46467
1.46299
1.4743
1.48488
1.49541
1.53717
1.59177
1.63733
1.68378
1.72853
1.73696
1.73453
1.63696
1.64374
1.65078
1.65869
1.66628
1.67293
1.68086
1.69046
1.69984
1.70695
1.71127
1.71737
1.72481
1.73314
1.73687
1.73272
1.73235
1.73678
1.74892
1.75194
1.06602
1.06755
1.07005
1.07415
1.08004
1.08821
1.09899
1.11374
1.13352
1.163
1.20323
1.24988
1.30135
1.35716
1.41474
1.4718
1.52432
1.56622
1.59752
1.62279
)
;
    }
    triangle
    {
        type            calculated;
        value           nonuniform List<scalar> 
40
(
3.72674
3.60286
3.51831
3.43485
3.35286
3.27177
3.18259
3.08184
2.93263
2.74285
0.980597
0.936058
0.927004
0.932262
0.938062
0.943213
0.946502
0.948007
0.947602
0.948109
0.948053
0.947455
0.947729
0.946304
0.943154
0.937954
0.931955
0.926533
0.93612
0.980879
3.72674
3.60285
3.5183
3.43485
3.35285
3.27176
3.18259
3.08184
2.93264
2.74289
)
;
    }
    top
    {
        type            symmetryPlane;
    }
    bottom
    {
        type            symmetryPlane;
    }
    defaultFaces
    {
        type            empty;
    }
}


// ************************************************************************* //
