/*--------------------------------*- C++ -*----------------------------------*\
  =========                 |
  \\      /  F ield         | OpenFOAM: The Open Source CFD Toolbox
   \\    /   O peration     | Website:  https://openfoam.org
    \\  /    A nd           | Version:  8
     \\/     M anipulation  |
\*---------------------------------------------------------------------------*/
FoamFile
{
    version     2.0;
    format      ascii;
    class       volScalarField;
    location    "2.1";
    object      T;
}
// * * * * * * * * * * * * * * * * * * * * * * * * * * * * * * * * * * * * * //

dimensions      [0 0 0 1 0 0 0];

internalField   nonuniform List<scalar> 
2600
(
1.23654
1.16902
1.07817
1.02142
1.03758
1.08327
1.11662
1.12526
1.12295
1.11562
1.28284
1.22427
1.12979
1.05677
1.06607
1.10029
1.12318
1.12903
1.12608
1.11757
1.29687
1.24934
1.17812
1.10306
1.10055
1.12713
1.14016
1.13762
1.13823
1.1299
1.30129
1.25699
1.21381
1.1578
1.14206
1.16138
1.17187
1.16185
1.16381
1.15729
1.30191
1.25905
1.23897
1.2181
1.20219
1.20477
1.20861
1.20157
1.19461
1.19073
1.30218
1.2609
1.25282
1.26838
1.27374
1.2747
1.2618
1.24837
1.23424
1.22833
1.30213
1.26182
1.25704
1.29568
1.33074
1.3487
1.33324
1.30776
1.28798
1.27404
1.30287
1.26431
1.2611
1.30802
1.36539
1.39458
1.38455
1.36059
1.33812
1.31063
1.30348
1.26816
1.26677
1.3164
1.37649
1.40669
1.40823
1.38743
1.37246
1.3257
1.30418
1.27032
1.27033
1.31612
1.37349
1.4061
1.41055
1.39428
1.37791
1.33457
1.30412
1.27047
1.27071
1.31617
1.37331
1.40722
1.40374
1.4
1.37163
1.33835
1.30336
1.26848
1.26842
1.31713
1.37645
1.40828
1.39788
1.38728
1.35739
1.33302
1.30273
1.26425
1.26142
1.30908
1.36573
1.39356
1.38198
1.35865
1.33778
1.3112
1.30207
1.26164
1.25722
1.29729
1.33207
1.34467
1.3337
1.3078
1.29593
1.27715
1.30213
1.26089
1.25296
1.27054
1.27523
1.27343
1.26426
1.23952
1.23944
1.23226
1.30178
1.259
1.23964
1.22096
1.2042
1.20471
1.20293
1.19603
1.1947
1.18571
1.30108
1.25699
1.21469
1.16034
1.14359
1.15783
1.16941
1.17099
1.15963
1.15357
1.29651
1.24938
1.17873
1.10493
1.10102
1.12429
1.14215
1.14556
1.13731
1.13677
1.28261
1.2241
1.13
1.05814
1.06654
1.09967
1.12294
1.12774
1.12851
1.12243
1.23642
1.16874
1.0784
1.02254
1.03811
1.08288
1.11475
1.12123
1.12507
1.11261
1.18186
1.09967
1.03304
0.995177
1.01631
1.06987
1.10934
1.11948
1.11984
1.10759
1.14901
1.05327
1.00614
0.977461
1.00052
1.05901
1.10435
1.11461
1.11435
1.10515
1.1463
1.03542
0.993544
0.968971
0.990077
1.04974
1.09926
1.10837
1.10983
1.10256
1.15023
1.03194
0.988505
0.965422
0.982163
1.03985
1.09284
1.10264
1.10798
1.09973
1.1608
1.03822
0.987222
0.964593
0.976594
1.02871
1.08606
1.10042
1.10726
1.09715
1.17413
1.05197
0.99226
0.964961
0.97419
1.01742
1.0791
1.09984
1.1063
1.09494
1.18783
1.06884
1.00375
0.969985
0.974217
1.00726
1.0707
1.09975
1.10543
1.09342
1.2011
1.08579
1.01677
0.980232
0.975462
0.999224
1.0606
1.0984
1.10397
1.09203
1.21355
1.10317
1.02963
0.988517
0.978438
0.993636
1.05025
1.09603
1.10337
1.09065
1.22581
1.11997
1.04454
0.995681
0.980621
0.98999
1.04109
1.09414
1.10384
1.08965
1.23775
1.13597
1.06066
1.00642
0.982371
0.988476
1.03252
1.09204
1.1044
1.08915
1.24917
1.15127
1.07554
1.02101
0.985895
0.989778
1.02406
1.08749
1.10452
1.08892
1.25907
1.16632
1.08973
1.03467
0.99268
0.993057
1.01631
1.08012
1.10361
1.08848
1.26684
1.18006
1.10427
1.04627
1.00253
0.996057
1.01002
1.07121
1.10226
1.08769
1.27218
1.1917
1.11826
1.05816
1.01207
0.997951
1.00482
1.06185
1.10054
1.08661
1.27493
1.20086
1.13029
1.07075
1.02064
0.99946
1.00057
1.0518
1.09821
1.0855
1.27571
1.20755
1.14016
1.08185
1.03009
1.00123
0.996782
1.04112
1.09487
1.08431
1.27562
1.21208
1.14807
1.09069
1.03933
1.00274
0.994687
1.02977
1.09002
1.08268
1.27562
1.21517
1.15437
1.09815
1.04704
1.00459
0.993929
1.01922
1.08381
1.08044
1.27614
1.21801
1.15962
1.10478
1.05399
1.00738
0.993623
1.0098
1.07652
1.07805
1.53895
1.51945
1.50643
1.49258
1.47797
1.46288
1.44605
1.42634
1.39611
1.37598
1.50778
1.48774
1.47862
1.46769
1.45629
1.44335
1.42783
1.40765
1.3767
1.33765
1.49226
1.47652
1.46733
1.45613
1.44541
1.43324
1.41823
1.39807
1.36756
1.3244
1.47518
1.46295
1.45466
1.4438
1.43344
1.42097
1.40574
1.38526
1.35546
1.31081
1.46074
1.45105
1.44424
1.43399
1.4237
1.41081
1.39539
1.37471
1.34575
1.30178
1.44675
1.43849
1.43254
1.42334
1.41403
1.4016
1.38663
1.36612
1.33836
1.29683
1.43331
1.42693
1.42214
1.41411
1.40576
1.39398
1.37987
1.36003
1.33389
1.29575
1.42373
1.41873
1.41473
1.40768
1.40017
1.38913
1.37599
1.35707
1.3324
1.29728
1.42036
1.41557
1.41169
1.40522
1.39816
1.38757
1.37502
1.35669
1.33321
1.301
1.41866
1.41478
1.41121
1.40501
1.39805
1.3877
1.37552
1.35778
1.33559
1.30625
1.41928
1.41536
1.41155
1.40529
1.39833
1.38815
1.37647
1.35968
1.33899
1.31201
1.41716
1.41321
1.40956
1.40375
1.39725
1.38773
1.37675
1.36083
1.34153
1.31682
1.40768
1.40485
1.40247
1.39801
1.39266
1.38443
1.37469
1.36025
1.34232
1.31946
1.39834
1.39561
1.39349
1.38967
1.38511
1.37796
1.3695
1.35691
1.34107
1.32017
1.3941
1.39014
1.38689
1.38251
1.37777
1.37089
1.36296
1.35148
1.33775
1.31926
1.39115
1.3868
1.38295
1.37791
1.37252
1.36533
1.35731
1.34633
1.33349
1.31675
1.38832
1.38395
1.38007
1.37488
1.3692
1.36177
1.35346
1.34259
1.32995
1.31398
1.38523
1.38093
1.3772
1.37218
1.36661
1.35932
1.35102
1.34028
1.32768
1.31202
1.38189
1.37776
1.37422
1.36944
1.36414
1.35718
1.34918
1.33877
1.32644
1.31124
1.37851
1.37471
1.37136
1.36683
1.3618
1.35522
1.34759
1.33769
1.32585
1.31127
1.00147
1.00469
1.00846
1.01285
1.01841
1.02458
1.03301
1.11045
1.37334
1.45032
1.00147
1.00469
1.00846
1.01285
1.0184
1.02458
1.03301
1.11042
1.37326
1.44754
1.00147
1.0047
1.00846
1.01285
1.0184
1.02458
1.03301
1.1104
1.37375
1.44277
1.00147
1.0047
1.00846
1.01285
1.01839
1.02458
1.03301
1.11033
1.37464
1.43723
1.00147
1.0047
1.00846
1.01285
1.01839
1.02459
1.03301
1.11009
1.37548
1.43234
1.00147
1.0047
1.00846
1.01286
1.01838
1.02459
1.033
1.10962
1.37587
1.42883
1.00147
1.0047
1.00846
1.01286
1.01837
1.0246
1.033
1.1089
1.37577
1.42715
1.00147
1.0047
1.00846
1.01286
1.01836
1.0246
1.03299
1.10796
1.3749
1.42628
1.00147
1.0047
1.00845
1.01286
1.01835
1.0246
1.03297
1.1068
1.37259
1.42483
1.00147
1.0047
1.00845
1.01287
1.01835
1.02461
1.03296
1.10545
1.36898
1.42178
1.00147
1.0047
1.00845
1.01287
1.01834
1.02461
1.03294
1.10393
1.36471
1.41626
1.00147
1.0047
1.00845
1.01287
1.01833
1.02462
1.03292
1.1022
1.36062
1.40962
1.00147
1.0047
1.00845
1.01287
1.01833
1.02462
1.03291
1.10028
1.35734
1.40386
1.00147
1.0047
1.00845
1.01288
1.01832
1.02462
1.03289
1.09822
1.35467
1.39958
1.00147
1.0047
1.00845
1.01288
1.01832
1.02462
1.03288
1.09605
1.35212
1.39642
1.00147
1.0047
1.00845
1.01288
1.01831
1.02463
1.03288
1.09378
1.34957
1.39386
1.00147
1.0047
1.00844
1.01288
1.01831
1.02463
1.03288
1.09146
1.34699
1.39155
1.00147
1.0047
1.00844
1.01288
1.01831
1.02463
1.03289
1.08904
1.34446
1.38932
1.00147
1.0047
1.00844
1.01289
1.0183
1.02463
1.03291
1.08646
1.34199
1.38721
1.00147
1.0047
1.00844
1.01289
1.0183
1.02464
1.03294
1.0838
1.33938
1.38532
1.00147
1.0047
1.00844
1.01289
1.0183
1.02464
1.03294
1.0838
1.33938
1.38532
1.00147
1.0047
1.00844
1.01289
1.0183
1.02463
1.03291
1.08646
1.34199
1.38721
1.00147
1.0047
1.00844
1.01288
1.01831
1.02463
1.03289
1.08904
1.34446
1.38932
1.00147
1.0047
1.00844
1.01288
1.01831
1.02463
1.03288
1.09146
1.34699
1.39155
1.00147
1.0047
1.00845
1.01288
1.01831
1.02463
1.03288
1.09378
1.34957
1.39386
1.00147
1.0047
1.00845
1.01288
1.01832
1.02462
1.03288
1.09605
1.35212
1.39643
1.00147
1.0047
1.00845
1.01288
1.01832
1.02462
1.03289
1.09822
1.35467
1.39958
1.00147
1.0047
1.00845
1.01287
1.01833
1.02462
1.03291
1.10028
1.35734
1.40386
1.00147
1.0047
1.00845
1.01287
1.01833
1.02462
1.03292
1.1022
1.36062
1.40962
1.00147
1.0047
1.00845
1.01287
1.01834
1.02461
1.03294
1.10393
1.36471
1.41626
1.00147
1.0047
1.00845
1.01287
1.01835
1.02461
1.03296
1.10545
1.36898
1.42178
1.00147
1.0047
1.00845
1.01286
1.01835
1.0246
1.03297
1.1068
1.37259
1.42483
1.00147
1.0047
1.00846
1.01286
1.01836
1.0246
1.03299
1.10796
1.3749
1.42628
1.00147
1.0047
1.00846
1.01286
1.01837
1.0246
1.033
1.1089
1.37577
1.42715
1.00147
1.0047
1.00846
1.01286
1.01838
1.02459
1.033
1.10962
1.37587
1.42883
1.00147
1.0047
1.00846
1.01285
1.01839
1.02459
1.03301
1.11009
1.37548
1.43234
1.00147
1.0047
1.00846
1.01285
1.01839
1.02458
1.03301
1.11033
1.37464
1.43723
1.00147
1.0047
1.00846
1.01285
1.0184
1.02458
1.03301
1.1104
1.37375
1.44277
1.00147
1.00469
1.00846
1.01285
1.0184
1.02458
1.03301
1.11042
1.37326
1.44754
1.00147
1.00469
1.00846
1.01285
1.01841
1.02458
1.03301
1.11045
1.37334
1.45032
1.37851
1.37471
1.37136
1.36683
1.3618
1.35521
1.34759
1.33769
1.32585
1.31126
1.38189
1.37776
1.37422
1.36944
1.36414
1.35718
1.34918
1.33877
1.32643
1.31124
1.38523
1.38093
1.3772
1.37218
1.36661
1.35932
1.35102
1.34028
1.32768
1.31202
1.38832
1.38395
1.38007
1.37488
1.3692
1.36177
1.35346
1.34259
1.32994
1.31398
1.39115
1.3868
1.38295
1.37791
1.37252
1.36533
1.35731
1.34633
1.33349
1.31675
1.3941
1.39014
1.38689
1.38251
1.37777
1.37089
1.36296
1.35148
1.33775
1.31925
1.39834
1.39561
1.39349
1.38967
1.38511
1.37796
1.36949
1.35691
1.34107
1.32017
1.40768
1.40485
1.40247
1.39801
1.39266
1.38443
1.37469
1.36025
1.34232
1.31946
1.41716
1.41321
1.40956
1.40375
1.39725
1.38773
1.37675
1.36083
1.34153
1.31682
1.41928
1.41536
1.41154
1.40529
1.39833
1.38815
1.37647
1.35968
1.33899
1.31201
1.41866
1.41478
1.41121
1.40501
1.39805
1.3877
1.37552
1.35778
1.33559
1.30625
1.42036
1.41557
1.41169
1.40522
1.39816
1.38757
1.37502
1.35669
1.33321
1.301
1.42373
1.41873
1.41473
1.40768
1.40017
1.38913
1.37599
1.35707
1.33241
1.29728
1.43331
1.42693
1.42214
1.4141
1.40576
1.39398
1.37986
1.36003
1.33389
1.29575
1.44675
1.43849
1.43254
1.42334
1.41403
1.4016
1.38663
1.36612
1.33837
1.29684
1.46074
1.45105
1.44424
1.43399
1.42369
1.41081
1.39539
1.37472
1.34576
1.30179
1.47518
1.46295
1.45466
1.4438
1.43344
1.42097
1.40574
1.38526
1.35546
1.31083
1.49226
1.47652
1.46733
1.45613
1.44541
1.43324
1.41823
1.39807
1.36757
1.32441
1.50778
1.48774
1.47862
1.46769
1.45629
1.44335
1.42783
1.40765
1.3767
1.33767
1.53895
1.51945
1.50643
1.49258
1.47797
1.46288
1.44605
1.42634
1.39611
1.37599
1.27615
1.21802
1.15963
1.10478
1.05398
1.00742
0.993639
1.00974
1.07642
1.07808
1.27563
1.2152
1.15439
1.09813
1.04702
1.00466
0.993972
1.01919
1.08385
1.08031
1.27561
1.21211
1.1481
1.09068
1.03928
1.00276
0.994729
1.02963
1.08982
1.08248
1.27571
1.20757
1.14019
1.08181
1.03002
1.00127
0.996855
1.04073
1.09445
1.08431
1.27492
1.20086
1.13032
1.07067
1.02061
0.999519
1.00071
1.05132
1.09765
1.08568
1.27217
1.19168
1.11824
1.05808
1.01211
0.997986
1.00504
1.06153
1.10014
1.08656
1.26684
1.18004
1.10423
1.04621
1.00253
0.996073
1.01022
1.07121
1.1023
1.08748
1.25908
1.16632
1.0897
1.03461
0.992626
0.993078
1.01633
1.08016
1.10393
1.08853
1.2492
1.15132
1.07551
1.02087
0.985891
0.989851
1.02417
1.08746
1.1045
1.08933
1.23777
1.13604
1.06056
1.00631
0.982438
0.988697
1.033
1.09201
1.10406
1.08957
1.22582
1.12002
1.04444
0.995668
0.980673
0.990286
1.04178
1.09414
1.10346
1.08934
1.21355
1.10316
1.02967
0.98841
0.978416
0.993978
1.0502
1.0961
1.10322
1.09004
1.2011
1.0858
1.01682
0.979964
0.975403
0.999725
1.05997
1.09857
1.10439
1.09162
1.18783
1.06888
1.00361
0.96976
0.97421
1.00797
1.07074
1.1002
1.10568
1.09424
1.17419
1.0519
0.992076
0.964882
0.974164
1.01816
1.0799
1.10057
1.10632
1.09644
1.16091
1.03805
0.987168
0.964461
0.976496
1.02924
1.08654
1.10121
1.1067
1.09694
1.15035
1.0318
0.988543
0.965137
0.981919
1.04047
1.09212
1.10324
1.10785
1.09811
1.14641
1.03538
0.993684
0.968374
0.989574
1.0509
1.0984
1.10679
1.11088
1.10083
1.14914
1.05342
1.00616
0.976669
0.99996
1.0602
1.10454
1.1127
1.11599
1.10631
1.18201
1.09992
1.03281
0.994287
1.01576
1.07077
1.1106
1.11929
1.12033
1.11186
1.31118
1.28673
1.25328
1.21548
1.17321
1.12937
1.08589
1.04609
0.990778
0.920474
1.31095
1.28627
1.25293
1.21499
1.17256
1.12862
1.08517
1.04504
0.98978
0.92092
1.31061
1.28571
1.25294
1.21442
1.1716
1.1273
1.08371
1.043
0.988003
0.921596
1.31014
1.28496
1.25266
1.21361
1.17029
1.12539
1.08151
1.03998
0.985695
0.922729
1.30947
1.28409
1.25201
1.21267
1.16868
1.12298
1.07867
1.036
0.982701
0.924385
1.3087
1.28294
1.25083
1.21124
1.16664
1.12021
1.07537
1.03124
0.979553
0.926758
1.30778
1.28144
1.24904
1.2093
1.16417
1.11718
1.07183
1.02585
0.976287
0.929999
1.30683
1.27962
1.24661
1.20663
1.1612
1.11392
1.068
1.02001
0.9735
0.934753
1.30586
1.27752
1.24354
1.20328
1.15761
1.11032
1.06389
1.01368
0.971132
0.941667
1.30491
1.27525
1.23999
1.19915
1.15335
1.10618
1.05922
1.00721
0.968519
0.952419
1.30395
1.27285
1.23599
1.1943
1.14822
1.10141
1.05379
1.00054
0.965225
0.966328
1.30294
1.27024
1.23168
1.18867
1.14221
1.09566
1.04744
0.994211
0.963693
0.980376
1.30177
1.26726
1.22673
1.1822
1.13521
1.0889
1.03976
0.988737
0.962994
0.996388
1.30023
1.26362
1.22095
1.17482
1.1272
1.08085
1.03098
0.985211
0.964616
1.01349
1.29809
1.25897
1.21411
1.1664
1.11831
1.0716
1.0209
0.9837
0.969252
1.02918
1.29516
1.25313
1.20604
1.15711
1.10865
1.06119
1.01092
0.983503
0.978608
1.04221
1.29141
1.24609
1.19695
1.14705
1.09847
1.04975
1.0022
0.982825
0.993976
1.05267
1.28708
1.23831
1.1871
1.13647
1.08788
1.03766
0.996703
0.984255
1.01472
1.06131
1.28259
1.23052
1.17712
1.12547
1.07643
1.02537
0.994954
0.988774
1.03844
1.06837
1.27846
1.22309
1.16714
1.11404
1.06391
1.01407
0.993749
0.998773
1.0615
1.07446
1.27846
1.22309
1.16714
1.11404
1.0639
1.01408
0.99377
0.99881
1.06162
1.07426
1.2826
1.23053
1.17712
1.12546
1.07643
1.02533
0.994977
0.988814
1.03851
1.06843
1.28708
1.23831
1.18709
1.13647
1.08788
1.03763
0.996717
0.984321
1.01482
1.06127
1.29141
1.2461
1.19695
1.14706
1.09847
1.04972
1.00219
0.982849
0.99402
1.05268
1.29516
1.25313
1.20604
1.15712
1.10865
1.06118
1.0109
0.983521
0.978614
1.04215
1.29809
1.25898
1.21411
1.1664
1.11831
1.07159
1.02088
0.983711
0.969249
1.02912
1.30023
1.26362
1.22095
1.17483
1.12721
1.08084
1.03096
0.985209
0.964626
1.01348
1.30177
1.26727
1.22673
1.1822
1.13522
1.0889
1.03975
0.988719
0.963002
0.996409
1.30294
1.27024
1.23168
1.18867
1.14222
1.09567
1.04743
0.9942
0.9637
0.980428
1.30395
1.27285
1.23599
1.1943
1.14822
1.10142
1.05379
1.00054
0.965232
0.966354
1.30491
1.27525
1.24
1.19915
1.15335
1.10619
1.05922
1.00721
0.968519
0.952421
1.30586
1.27753
1.24354
1.20328
1.15762
1.11032
1.06389
1.01368
0.971128
0.941645
1.30683
1.27962
1.24661
1.20663
1.1612
1.11392
1.068
1.02002
0.973498
0.934729
1.30778
1.28144
1.24904
1.2093
1.16417
1.11718
1.07183
1.02586
0.976285
0.929981
1.3087
1.28294
1.25083
1.21124
1.16664
1.12021
1.07538
1.03124
0.979554
0.926744
1.30947
1.28409
1.25201
1.21267
1.16868
1.12298
1.07867
1.036
0.982705
0.924376
1.31014
1.28496
1.25266
1.21361
1.17029
1.12539
1.08151
1.03998
0.985699
0.922724
1.31061
1.28571
1.25294
1.21442
1.1716
1.1273
1.08371
1.043
0.988006
0.921593
1.31095
1.28627
1.25293
1.21499
1.17256
1.12862
1.08517
1.04503
0.98978
0.920918
1.31118
1.28673
1.25328
1.21548
1.17321
1.12937
1.08589
1.04609
0.990777
0.920472
1.37452
1.37121
1.36814
1.36391
1.35918
1.35303
1.34586
1.33667
1.32565
1.3121
1.37073
1.36778
1.36492
1.36101
1.3566
1.35092
1.34427
1.33595
1.32587
1.31377
1.36782
1.36501
1.36231
1.35868
1.35455
1.34934
1.34317
1.33565
1.32644
1.31561
1.36548
1.3627
1.36014
1.35674
1.35285
1.34805
1.34234
1.33549
1.32711
1.31734
1.36356
1.36074
1.35828
1.35506
1.35139
1.34693
1.34161
1.33532
1.32768
1.31878
1.362
1.35913
1.35672
1.35364
1.35013
1.34595
1.34095
1.33511
1.32805
1.31985
1.36073
1.35782
1.35544
1.35244
1.34905
1.34507
1.34034
1.33484
1.32824
1.32056
1.35972
1.35678
1.35441
1.35145
1.34814
1.34429
1.33977
1.33452
1.32828
1.32099
1.35888
1.35594
1.35358
1.35065
1.34737
1.3436
1.33922
1.33417
1.32821
1.3212
1.35812
1.3552
1.35285
1.34994
1.3467
1.34298
1.3387
1.3338
1.32806
1.32132
1.35737
1.35447
1.35214
1.34926
1.34605
1.34239
1.33819
1.3334
1.32785
1.32143
1.35658
1.35371
1.3514
1.34856
1.34538
1.34178
1.33766
1.333
1.32767
1.32155
1.35575
1.35291
1.35064
1.34783
1.3447
1.34116
1.33714
1.33265
1.32757
1.32173
1.35491
1.35211
1.34987
1.3471
1.34404
1.34059
1.33671
1.33241
1.32758
1.32204
1.35406
1.3513
1.34912
1.34641
1.34344
1.3401
1.3364
1.33232
1.32775
1.32249
1.35323
1.35049
1.34839
1.34578
1.34293
1.33974
1.33623
1.33237
1.32806
1.32303
1.35243
1.34973
1.34772
1.34524
1.34255
1.33954
1.33624
1.33257
1.32848
1.32359
1.35172
1.34904
1.34713
1.34478
1.34226
1.33943
1.33631
1.33281
1.32885
1.32406
1.35114
1.34847
1.34664
1.34441
1.34204
1.33937
1.33639
1.33303
1.32912
1.32438
1.3508
1.34812
1.34632
1.34416
1.34188
1.33932
1.33645
1.33318
1.32933
1.32464
1.00147
1.0047
1.00844
1.01289
1.0183
1.02464
1.03298
1.08042
1.33571
1.38351
1.00147
1.0047
1.00844
1.01289
1.01829
1.02465
1.03305
1.07633
1.3309
1.38185
1.00147
1.0047
1.00844
1.01289
1.01829
1.02465
1.03313
1.07226
1.32581
1.3805
1.00147
1.0047
1.00844
1.01289
1.01829
1.02466
1.03323
1.06823
1.32067
1.37928
1.00147
1.0047
1.00844
1.0129
1.01828
1.02467
1.03333
1.0643
1.31567
1.37814
1.00147
1.0047
1.00844
1.0129
1.01828
1.02467
1.03345
1.06061
1.3109
1.37708
1.00147
1.0047
1.00844
1.0129
1.01828
1.02468
1.03358
1.05736
1.30639
1.37614
1.00147
1.0047
1.00844
1.0129
1.01828
1.02468
1.03372
1.05492
1.30219
1.37532
1.00147
1.0047
1.00844
1.0129
1.01828
1.02468
1.03386
1.05337
1.2983
1.37461
1.00147
1.00471
1.00844
1.0129
1.01828
1.02466
1.03401
1.05237
1.29461
1.37395
1.00147
1.00471
1.00844
1.01291
1.01829
1.02464
1.03416
1.05173
1.29105
1.37326
1.00147
1.00471
1.00844
1.01291
1.01829
1.0246
1.03432
1.05132
1.2877
1.3725
1.00147
1.00471
1.00844
1.0129
1.0183
1.02456
1.03447
1.05104
1.28465
1.37168
1.00147
1.00471
1.00844
1.0129
1.01831
1.02452
1.03463
1.05085
1.282
1.37085
1.00147
1.00471
1.00844
1.0129
1.01832
1.02449
1.03478
1.0507
1.27978
1.37004
1.00147
1.00471
1.00844
1.0129
1.01834
1.02446
1.03493
1.05057
1.27804
1.36928
1.00147
1.00471
1.00844
1.0129
1.01835
1.02443
1.03507
1.05046
1.27677
1.36855
1.00147
1.00471
1.00844
1.01289
1.01836
1.02441
1.03519
1.05037
1.27595
1.36791
1.00147
1.00471
1.00844
1.01289
1.01836
1.0244
1.03527
1.0503
1.27539
1.3674
1.00147
1.00471
1.00844
1.01289
1.01837
1.02438
1.03538
1.05026
1.27509
1.3671
1.00147
1.00471
1.00844
1.01289
1.01837
1.02438
1.03538
1.05026
1.27509
1.3671
1.00147
1.00471
1.00844
1.01289
1.01836
1.0244
1.03527
1.0503
1.27539
1.3674
1.00147
1.00471
1.00844
1.01289
1.01836
1.02441
1.03519
1.05037
1.27595
1.36791
1.00147
1.00471
1.00844
1.0129
1.01835
1.02443
1.03507
1.05046
1.27677
1.36855
1.00147
1.00471
1.00844
1.0129
1.01834
1.02446
1.03493
1.05057
1.27804
1.36928
1.00147
1.00471
1.00844
1.0129
1.01832
1.02449
1.03478
1.0507
1.27978
1.37004
1.00147
1.00471
1.00844
1.0129
1.01831
1.02452
1.03463
1.05085
1.282
1.37085
1.00147
1.00471
1.00844
1.0129
1.0183
1.02456
1.03447
1.05104
1.28465
1.37168
1.00147
1.00471
1.00844
1.01291
1.01829
1.0246
1.03432
1.05132
1.2877
1.3725
1.00147
1.00471
1.00844
1.01291
1.01829
1.02464
1.03416
1.05173
1.29105
1.37326
1.00147
1.00471
1.00844
1.0129
1.01828
1.02466
1.03401
1.05237
1.29461
1.37395
1.00147
1.0047
1.00844
1.0129
1.01828
1.02468
1.03386
1.05337
1.2983
1.37461
1.00147
1.0047
1.00844
1.0129
1.01828
1.02468
1.03372
1.05492
1.30219
1.37532
1.00147
1.0047
1.00844
1.0129
1.01828
1.02468
1.03358
1.05736
1.30639
1.37614
1.00147
1.0047
1.00844
1.0129
1.01828
1.02467
1.03345
1.06061
1.3109
1.37708
1.00147
1.0047
1.00844
1.0129
1.01828
1.02467
1.03333
1.0643
1.31567
1.37814
1.00147
1.0047
1.00844
1.01289
1.01829
1.02466
1.03323
1.06823
1.32067
1.37928
1.00147
1.0047
1.00844
1.01289
1.01829
1.02465
1.03313
1.07226
1.32581
1.3805
1.00147
1.0047
1.00844
1.01289
1.01829
1.02465
1.03305
1.07633
1.3309
1.38185
1.00147
1.0047
1.00844
1.01289
1.0183
1.02464
1.03298
1.08042
1.33571
1.38351
1.3508
1.34812
1.34632
1.34416
1.34188
1.33932
1.33645
1.33318
1.32933
1.32464
1.35114
1.34847
1.34664
1.34441
1.34204
1.33937
1.33639
1.33303
1.32912
1.32438
1.35172
1.34904
1.34713
1.34478
1.34226
1.33943
1.3363
1.33281
1.32884
1.32406
1.35243
1.34973
1.34772
1.34524
1.34255
1.33954
1.33624
1.33257
1.32848
1.32359
1.35323
1.35049
1.34839
1.34578
1.34293
1.33974
1.33623
1.33237
1.32806
1.32303
1.35406
1.3513
1.34912
1.34641
1.34344
1.3401
1.3364
1.33232
1.32775
1.32249
1.35491
1.35211
1.34987
1.3471
1.34404
1.34059
1.33671
1.33241
1.32758
1.32204
1.35575
1.35291
1.35064
1.34783
1.3447
1.34116
1.33714
1.33265
1.32757
1.32173
1.35658
1.35371
1.3514
1.34856
1.34538
1.34178
1.33766
1.333
1.32767
1.32155
1.35737
1.35447
1.35214
1.34927
1.34605
1.34239
1.33819
1.3334
1.32785
1.32143
1.35812
1.3552
1.35285
1.34994
1.3467
1.34298
1.3387
1.3338
1.32806
1.32133
1.35888
1.35594
1.35358
1.35065
1.34737
1.3436
1.33922
1.33417
1.32821
1.3212
1.35972
1.35679
1.35441
1.35146
1.34814
1.34429
1.33977
1.33452
1.32828
1.32099
1.36073
1.35782
1.35544
1.35244
1.34905
1.34507
1.34034
1.33484
1.32824
1.32056
1.362
1.35913
1.35672
1.35364
1.35013
1.34595
1.34095
1.33511
1.32805
1.31985
1.36356
1.36074
1.35828
1.35506
1.35139
1.34693
1.34161
1.33532
1.32768
1.31878
1.36548
1.3627
1.36014
1.35674
1.35285
1.34805
1.34234
1.33549
1.32711
1.31734
1.36782
1.36501
1.36231
1.35868
1.35455
1.34934
1.34317
1.33565
1.32644
1.31561
1.37073
1.36778
1.36492
1.36101
1.3566
1.35092
1.34427
1.33595
1.32587
1.31377
1.37452
1.37121
1.36814
1.36391
1.35918
1.35302
1.34586
1.33667
1.32565
1.31209
)
;

boundaryField
{
    inlet
    {
        type            fixedValue;
        value           uniform 1;
    }
    outlet
    {
        type            inletOutlet;
        inletValue      uniform 1;
        value           nonuniform List<scalar> 
100
(
1.07416
1.06829
1.0611
1.05251
1.04198
1.02896
1.01332
0.996263
0.980302
0.966245
0.952322
0.941546
0.934638
0.929898
0.926667
0.924299
0.922646
0.921512
0.920836
0.920388
1.10767
1.10534
1.1025
1.09966
1.09711
1.09493
1.09343
1.09199
1.09056
1.08957
1.0891
1.08886
1.0884
1.08758
1.08652
1.08542
1.08422
1.08255
1.0803
1.07795
1.11634
1.11811
1.12945
1.15631
1.19103
1.22875
1.27435
1.31045
1.32536
1.33448
1.33813
1.33341
1.31136
1.27675
1.23198
1.18554
1.15417
1.1368
1.12198
1.11239
1.078
1.0802
1.08233
1.08418
1.08561
1.08651
1.08739
1.08839
1.0892
1.08958
1.08936
1.08998
1.09142
1.09413
1.09651
1.09725
1.09807
1.1006
1.10593
1.11178
0.920391
0.920838
0.921516
0.92265
0.924307
0.92668
0.929916
0.934662
0.941569
0.952322
0.966221
0.980249
0.996239
1.01333
1.02901
1.04204
1.0525
1.06115
1.06822
1.07435
)
;
    }
    triangle
    {
        type            zeroGradient;
    }
    top
    {
        type            symmetryPlane;
    }
    bottom
    {
        type            symmetryPlane;
    }
    defaultFaces
    {
        type            empty;
    }
}


// ************************************************************************* //
