/*--------------------------------*- C++ -*----------------------------------*\
  =========                 |
  \\      /  F ield         | OpenFOAM: The Open Source CFD Toolbox
   \\    /   O peration     | Website:  https://openfoam.org
    \\  /    A nd           | Version:  8
     \\/     M anipulation  |
\*---------------------------------------------------------------------------*/
FoamFile
{
    version     2.0;
    format      ascii;
    class       volVectorField;
    location    "2.1";
    object      U;
}
// * * * * * * * * * * * * * * * * * * * * * * * * * * * * * * * * * * * * * //

dimensions      [0 1 -1 0 0 0 0];

internalField   nonuniform List<vector> 
2600
(
(0.683215 0.0642517 0)
(1.20302 0.146878 0)
(1.47093 0.257831 0)
(1.56222 0.319096 0)
(1.55309 0.268131 0)
(1.43485 0.15571 0)
(1.40147 0.0909216 0)
(1.36132 0.0521212 0)
(1.3689 0.0264717 0)
(1.37759 -0.0105387 0)
(0.235189 -0.130366 0)
(0.824119 0.10624 0)
(1.29983 0.238501 0)
(1.50255 0.302932 0)
(1.53743 0.24347 0)
(1.43062 0.140919 0)
(1.39836 0.0938205 0)
(1.36258 0.0593222 0)
(1.37026 0.0358094 0)
(1.37769 0.00339231 0)
(0.0272736 -0.123478 0)
(0.442998 0.0339636 0)
(1.02388 0.185774 0)
(1.38448 0.267724 0)
(1.49434 0.228503 0)
(1.41391 0.120571 0)
(1.38718 0.0867411 0)
(1.36028 0.0667703 0)
(1.36386 0.0311277 0)
(1.36802 0.00445975 0)
(-0.0550508 -0.143112 0)
(0.169936 -0.00520918 0)
(0.691823 0.126669 0)
(1.18049 0.229646 0)
(1.40367 0.213802 0)
(1.37235 0.103778 0)
(1.35858 0.0579599 0)
(1.3449 0.0540356 0)
(1.3448 0.0110709 0)
(1.33981 -0.0132431 0)
(-0.104893 -0.132113 0)
(-0.00757606 -0.0413033 0)
(0.365012 0.0676933 0)
(0.888329 0.163982 0)
(1.23251 0.180012 0)
(1.27616 0.122655 0)
(1.2824 0.0652238 0)
(1.29771 0.0351425 0)
(1.29291 0.0115278 0)
(1.27621 -0.0170262 0)
(-0.144161 -0.133409 0)
(-0.1423 -0.0506488 0)
(0.064569 0.0226049 0)
(0.519088 0.109112 0)
(0.951247 0.126932 0)
(1.0766 0.0871749 0)
(1.12648 0.0774299 0)
(1.18098 0.0487611 0)
(1.19125 0.0393263 0)
(1.16748 0.00310227 0)
(-0.176622 -0.119585 0)
(-0.254295 -0.0553808 0)
(-0.194796 -0.0139587 0)
(0.118818 0.0452774 0)
(0.556275 0.0922384 0)
(0.758706 0.0773839 0)
(0.867603 0.0563633 0)
(0.977198 0.050416 0)
(1.0302 0.0188865 0)
(1.02241 0.00546534 0)
(-0.199216 -0.0948116 0)
(-0.348091 -0.0449486 0)
(-0.38547 -0.00828116 0)
(-0.223837 0.0291986 0)
(0.145954 0.0763427 0)
(0.400278 0.0540717 0)
(0.570588 0.0325454 0)
(0.735444 0.0502268 0)
(0.850687 0.0225121 0)
(0.887929 0.0135468 0)
(-0.213596 -0.061001 0)
(-0.409429 -0.0316554 0)
(-0.492218 -0.000135266 0)
(-0.428901 0.0262653 0)
(-0.136347 0.0588824 0)
(0.136442 0.0412742 0)
(0.353432 0.0348455 0)
(0.554459 0.0289862 0)
(0.720069 0.025687 0)
(0.805838 -0.00358127 0)
(-0.224184 -0.0207355 0)
(-0.433119 -0.0101427 0)
(-0.527805 0.00240827 0)
(-0.498634 0.0133622 0)
(-0.244937 0.0268779 0)
(0.0381573 0.018443 0)
(0.272952 0.0112119 0)
(0.487646 -0.00411074 0)
(0.671157 -0.00100879 0)
(0.778482 0.00082881 0)
(-0.224242 0.0215581 0)
(-0.433062 0.010342 0)
(-0.527789 -0.00270405 0)
(-0.499338 -0.0125846 0)
(-0.245931 -0.0186665 0)
(0.0394477 -0.0134001 0)
(0.274642 -0.01466 0)
(0.486987 -0.0274613 0)
(0.672534 -0.0181335 0)
(0.77791 -0.00388536 0)
(-0.213834 0.0609435 0)
(-0.409699 0.0303365 0)
(-0.492594 -0.00323223 0)
(-0.431709 -0.0285387 0)
(-0.141322 -0.0516879 0)
(0.14266 -0.0397862 0)
(0.359388 -0.0274994 0)
(0.554209 -0.024575 0)
(0.716662 -0.0087272 0)
(0.804727 -0.00515804 0)
(-0.199608 0.093873 0)
(-0.348705 0.0432119 0)
(-0.386804 0.00795368 0)
(-0.229907 -0.0303742 0)
(0.136165 -0.068849 0)
(0.410344 -0.0589523 0)
(0.58487 -0.0549937 0)
(0.733218 -0.0185492 0)
(0.842869 -0.0201335 0)
(0.887152 0.00428009 0)
(-0.17714 0.118339 0)
(-0.255181 0.0540415 0)
(-0.196607 0.0111445 0)
(0.110502 -0.0455978 0)
(0.544242 -0.088325 0)
(0.771665 -0.0789533 0)
(0.881069 -0.0539044 0)
(0.973989 -0.0420687 0)
(1.02017 -0.0257685 0)
(1.02227 0.00315668 0)
(-0.144571 0.132351 0)
(-0.143217 0.049544 0)
(0.0624381 -0.0238685 0)
(0.511745 -0.106462 0)
(0.940792 -0.123667 0)
(1.08674 -0.0901614 0)
(1.13512 -0.0640429 0)
(1.18068 -0.0682793 0)
(1.18518 -0.0203406 0)
(1.16586 -0.00246975 0)
(-0.105113 0.131735 0)
(-0.00822883 0.0414818 0)
(0.362897 -0.067854 0)
(0.882772 -0.161697 0)
(1.22589 -0.175121 0)
(1.28195 -0.119909 0)
(1.28892 -0.0827331 0)
(1.29801 -0.0494987 0)
(1.29392 -0.01356 0)
(1.27633 -0.00223276 0)
(-0.055339 0.143025 0)
(0.169689 0.00531556 0)
(0.690062 -0.126342 0)
(1.17692 -0.226413 0)
(1.39994 -0.209403 0)
(1.37795 -0.11302 0)
(1.35769 -0.0614105 0)
(1.34459 -0.0294679 0)
(1.34466 -0.0249349 0)
(1.33989 0.00165998 0)
(0.0271234 0.1242 0)
(0.443269 -0.0343741 0)
(1.0227 -0.18551 0)
(1.38224 -0.265092 0)
(1.49227 -0.226676 0)
(1.41904 -0.126595 0)
(1.38461 -0.0793338 0)
(1.35763 -0.0521367 0)
(1.36277 -0.0336769 0)
(1.36764 0.0168348 0)
(0.235308 0.130511 0)
(0.824369 -0.107225 0)
(1.29899 -0.23928 0)
(1.501 -0.300283 0)
(1.53669 -0.241535 0)
(1.43626 -0.141001 0)
(1.39446 -0.0945744 0)
(1.36211 -0.066388 0)
(1.36694 -0.0269382 0)
(1.37788 0.0104275 0)
(0.683865 -0.0641256 0)
(1.20314 -0.146782 0)
(1.47019 -0.258106 0)
(1.56114 -0.316758 0)
(1.55282 -0.266123 0)
(1.43876 -0.15738 0)
(1.39874 -0.0963624 0)
(1.36124 -0.0641122 0)
(1.36751 -0.0192914 0)
(1.37997 0.00539889 0)
(1.22482 0.0180356 0)
(1.4529 -0.166324 0)
(1.55422 -0.281506 0)
(1.58688 -0.340558 0)
(1.56068 -0.28755 0)
(1.43985 -0.168545 0)
(1.40138 -0.099202 0)
(1.36095 -0.0547903 0)
(1.36876 -0.0204468 0)
(1.37911 0.00621955 0)
(1.36488 0.119021 0)
(1.5551 -0.16165 0)
(1.59555 -0.280376 0)
(1.60146 -0.346299 0)
(1.56702 -0.307622 0)
(1.44824 -0.180611 0)
(1.40913 -0.103533 0)
(1.36217 -0.0557134 0)
(1.36971 -0.0249893 0)
(1.37905 0.0104044 0)
(1.37066 0.154247 0)
(1.57372 -0.150618 0)
(1.6051 -0.281306 0)
(1.60152 -0.352746 0)
(1.57032 -0.326652 0)
(1.464 -0.200203 0)
(1.42407 -0.112343 0)
(1.36316 -0.0618883 0)
(1.37168 -0.0309407 0)
(1.37972 0.0121641 0)
(1.33577 0.178787 0)
(1.55351 -0.11325 0)
(1.60379 -0.267948 0)
(1.59713 -0.351569 0)
(1.575 -0.34366 0)
(1.47945 -0.22349 0)
(1.43478 -0.124599 0)
(1.36537 -0.069136 0)
(1.37327 -0.0308354 0)
(1.38113 0.0120519 0)
(1.30282 0.188842 0)
(1.52612 -0.0888648 0)
(1.59263 -0.254572 0)
(1.59292 -0.346663 0)
(1.57643 -0.353062 0)
(1.49759 -0.24811 0)
(1.44275 -0.137459 0)
(1.36796 -0.070175 0)
(1.37426 -0.0288748 0)
(1.38265 0.0118313 0)
(1.27399 0.193611 0)
(1.4951 -0.0575667 0)
(1.57638 -0.235946 0)
(1.58823 -0.337412 0)
(1.57699 -0.358175 0)
(1.51403 -0.268627 0)
(1.45367 -0.150009 0)
(1.37117 -0.0702857 0)
(1.37517 -0.0273457 0)
(1.38381 0.0128072 0)
(1.24745 0.196751 0)
(1.4675 -0.0360217 0)
(1.55951 -0.220608 0)
(1.5815 -0.328507 0)
(1.57524 -0.359426 0)
(1.5286 -0.288376 0)
(1.46498 -0.161751 0)
(1.37596 -0.0736811 0)
(1.37672 -0.0295035 0)
(1.38553 0.0147064 0)
(1.22439 0.195956 0)
(1.43734 -0.0112452 0)
(1.5417 -0.197 0)
(1.5774 -0.327771 0)
(1.57077 -0.362638 0)
(1.54166 -0.309683 0)
(1.47833 -0.178203 0)
(1.38193 -0.0789354 0)
(1.37812 -0.032978 0)
(1.38717 0.0161368 0)
(1.20445 0.193718 0)
(1.41097 0.00527326 0)
(1.52376 -0.172512 0)
(1.57071 -0.313662 0)
(1.57053 -0.365903 0)
(1.55139 -0.327594 0)
(1.49067 -0.19842 0)
(1.39057 -0.0859449 0)
(1.38077 -0.0343883 0)
(1.38979 0.0163282 0)
(1.18864 0.190849 0)
(1.38691 0.019848 0)
(1.50253 -0.148615 0)
(1.56068 -0.289431 0)
(1.57023 -0.36485 0)
(1.55879 -0.33965 0)
(1.50492 -0.221378 0)
(1.40043 -0.0902197 0)
(1.38515 -0.0340182 0)
(1.39339 0.0167752 0)
(1.17585 0.187606 0)
(1.36591 0.0334416 0)
(1.48652 -0.134953 0)
(1.54746 -0.268124 0)
(1.5702 -0.357396 0)
(1.5638 -0.345543 0)
(1.51878 -0.241391 0)
(1.4144 -0.0983899 0)
(1.3916 -0.0340979 0)
(1.39802 0.0182588 0)
(1.1657 0.1844 0)
(1.34764 0.04505 0)
(1.47012 -0.114359 0)
(1.53784 -0.256833 0)
(1.56841 -0.348259 0)
(1.56687 -0.348121 0)
(1.53203 -0.261037 0)
(1.42935 -0.107193 0)
(1.39951 -0.0358907 0)
(1.40364 0.0201101 0)
(1.15639 0.181255 0)
(1.33101 0.0549426 0)
(1.45485 -0.0950436 0)
(1.52923 -0.241642 0)
(1.56777 -0.3424 0)
(1.56795 -0.349464 0)
(1.54308 -0.278017 0)
(1.45044 -0.122705 0)
(1.40877 -0.0389798 0)
(1.40979 0.0217805 0)
(1.14606 0.176919 0)
(1.31677 0.0614543 0)
(1.43831 -0.0774439 0)
(1.51937 -0.219316 0)
(1.5646 -0.334551 0)
(1.56942 -0.349814 0)
(1.55357 -0.293227 0)
(1.46813 -0.136931 0)
(1.41822 -0.0413098 0)
(1.4164 0.0231678 0)
(1.13524 0.172044 0)
(1.30096 0.0685464 0)
(1.42499 -0.0661361 0)
(1.50724 -0.198787 0)
(1.56053 -0.321438 0)
(1.57132 -0.349441 0)
(1.56239 -0.30388 0)
(1.48981 -0.154906 0)
(1.42734 -0.0436648 0)
(1.42157 0.0242979 0)
(1.12354 0.166816 0)
(1.28562 0.0729176 0)
(1.41001 -0.0532378 0)
(1.49522 -0.182942 0)
(1.55299 -0.302175 0)
(1.57228 -0.347465 0)
(1.57033 -0.312146 0)
(1.50659 -0.170925 0)
(1.43441 -0.045695 0)
(1.4251 0.0259647 0)
(1.1133 0.161454 0)
(1.26934 0.0764808 0)
(1.39461 -0.0418607 0)
(1.48339 -0.169029 0)
(1.54366 -0.285375 0)
(1.57148 -0.344312 0)
(1.5766 -0.31873 0)
(1.52107 -0.190719 0)
(1.44014 -0.0497601 0)
(1.42755 0.0274648 0)
(1.10374 0.156118 0)
(1.25378 0.0779737 0)
(1.37783 -0.0315867 0)
(1.46932 -0.152939 0)
(1.5339 -0.270774 0)
(1.57079 -0.341887 0)
(1.5788 -0.321778 0)
(1.53207 -0.209947 0)
(1.44778 -0.0553699 0)
(1.43017 0.0280048 0)
(1.09437 0.151065 0)
(1.23817 0.0794926 0)
(1.36143 -0.0237284 0)
(1.45466 -0.139219 0)
(1.52296 -0.254346 0)
(1.56844 -0.333874 0)
(1.57819 -0.32317 0)
(1.54288 -0.229004 0)
(1.463 -0.0640818 0)
(1.43333 0.027686 0)
(1.08694 0.146522 0)
(1.22409 0.0803326 0)
(1.3452 -0.0163441 0)
(1.43938 -0.126682 0)
(1.51084 -0.236945 0)
(1.56377 -0.326188 0)
(1.57732 -0.324595 0)
(1.55274 -0.245194 0)
(1.48936 -0.0766891 0)
(1.43705 0.0272728 0)
(0.375807 0.130382 0)
(0.444815 0.162248 0)
(0.484444 0.21398 0)
(0.528754 0.252315 0)
(0.56854 0.285498 0)
(0.609279 0.313352 0)
(0.65362 0.341026 0)
(0.709063 0.368713 0)
(0.785042 0.406901 0)
(0.922881 0.444644 0)
(0.404852 0.155545 0)
(0.456624 0.175679 0)
(0.484804 0.216164 0)
(0.525822 0.250345 0)
(0.564514 0.283094 0)
(0.606395 0.311054 0)
(0.651874 0.338789 0)
(0.70862 0.366672 0)
(0.786181 0.403059 0)
(0.920803 0.431071 0)
(0.456137 0.149012 0)
(0.494976 0.162217 0)
(0.512456 0.193805 0)
(0.545146 0.224885 0)
(0.577351 0.258577 0)
(0.617438 0.288199 0)
(0.663683 0.318384 0)
(0.723151 0.34714 0)
(0.805702 0.383504 0)
(0.946071 0.39861 0)
(0.506198 0.157004 0)
(0.538657 0.174836 0)
(0.550148 0.203913 0)
(0.578717 0.227315 0)
(0.605527 0.254534 0)
(0.641801 0.279214 0)
(0.684369 0.306533 0)
(0.740905 0.331607 0)
(0.821801 0.362953 0)
(0.957153 0.368076 0)
(0.55056 0.155463 0)
(0.578116 0.172754 0)
(0.587675 0.200388 0)
(0.614224 0.22268 0)
(0.637232 0.249413 0)
(0.6712 0.272491 0)
(0.711417 0.298257 0)
(0.766862 0.320207 0)
(0.847178 0.348138 0)
(0.977445 0.345515 0)
(0.588839 0.157602 0)
(0.611477 0.174264 0)
(0.619475 0.199916 0)
(0.644161 0.220135 0)
(0.665132 0.245005 0)
(0.698053 0.265496 0)
(0.736734 0.289422 0)
(0.790817 0.307853 0)
(0.868318 0.331415 0)
(0.990484 0.325999 0)
(0.621778 0.159261 0)
(0.640305 0.174051 0)
(0.647213 0.196522 0)
(0.669768 0.214406 0)
(0.688978 0.237503 0)
(0.720867 0.256071 0)
(0.758115 0.278489 0)
(0.810716 0.2943 0)
(0.884012 0.31369 0)
(0.996889 0.308155 0)
(0.652187 0.160797 0)
(0.667439 0.173863 0)
(0.673478 0.193688 0)
(0.693836 0.209675 0)
(0.711582 0.230724 0)
(0.742066 0.246938 0)
(0.777451 0.267387 0)
(0.827906 0.280777 0)
(0.896486 0.296806 0)
(1.00025 0.291226 0)
(0.681291 0.163761 0)
(0.693683 0.175543 0)
(0.699351 0.192691 0)
(0.717855 0.206192 0)
(0.73448 0.224827 0)
(0.763281 0.238792 0)
(0.796485 0.257285 0)
(0.844236 0.268802 0)
(0.907767 0.281462 0)
(1.00169 0.275605 0)
(0.706411 0.167019 0)
(0.717674 0.176503 0)
(0.72393 0.191003 0)
(0.741478 0.202791 0)
(0.757613 0.219723 0)
(0.784977 0.231922 0)
(0.816357 0.248286 0)
(0.861572 0.257967 0)
(0.920681 0.267983 0)
(1.00675 0.262463 0)
(0.728685 0.168189 0)
(0.740365 0.175694 0)
(0.747202 0.188482 0)
(0.7639 0.199169 0)
(0.779716 0.214599 0)
(0.805995 0.22558 0)
(0.836138 0.24051 0)
(0.878735 0.248457 0)
(0.933086 0.255981 0)
(1.00917 0.250395 0)
(0.748431 0.16549 0)
(0.759895 0.172333 0)
(0.766286 0.183595 0)
(0.781583 0.192986 0)
(0.796926 0.206821 0)
(0.822281 0.216565 0)
(0.851471 0.230359 0)
(0.892689 0.238527 0)
(0.943915 0.245168 0)
(1.01383 0.240518 0)
(0.76195 0.163684 0)
(0.77337 0.169917 0)
(0.780513 0.179928 0)
(0.795509 0.187789 0)
(0.81064 0.199573 0)
(0.834403 0.207604 0)
(0.861565 0.219385 0)
(0.900162 0.226263 0)
(0.948363 0.232253 0)
(1.01403 0.229633 0)
(0.77166 0.158726 0)
(0.782742 0.163229 0)
(0.790641 0.17222 0)
(0.805816 0.180058 0)
(0.821307 0.191428 0)
(0.844467 0.199314 0)
(0.870693 0.210058 0)
(0.906508 0.215868 0)
(0.95009 0.220742 0)
(1.00987 0.218445 0)
(0.783123 0.154431 0)
(0.794445 0.15832 0)
(0.802295 0.166082 0)
(0.816191 0.172598 0)
(0.830506 0.182522 0)
(0.852059 0.189929 0)
(0.876935 0.199966 0)
(0.911149 0.206028 0)
(0.952459 0.210005 0)
(1.00646 0.207642 0)
(0.794542 0.149455 0)
(0.806254 0.153226 0)
(0.814139 0.160578 0)
(0.827236 0.166608 0)
(0.840679 0.17547 0)
(0.860405 0.181943 0)
(0.883318 0.190498 0)
(0.914959 0.196102 0)
(0.953213 0.199491 0)
(1.00296 0.197848 0)
(0.805142 0.143589 0)
(0.816893 0.147392 0)
(0.824737 0.154544 0)
(0.837402 0.160433 0)
(0.850438 0.168687 0)
(0.869005 0.174789 0)
(0.890392 0.182377 0)
(0.919427 0.187204 0)
(0.954606 0.190127 0)
(1.00015 0.188827 0)
(0.814949 0.137388 0)
(0.826375 0.141368 0)
(0.834032 0.148402 0)
(0.846253 0.154199 0)
(0.858911 0.161914 0)
(0.876556 0.167768 0)
(0.896794 0.174747 0)
(0.923658 0.179121 0)
(0.956133 0.18162 0)
(0.998066 0.180657 0)
(0.824562 0.131398 0)
(0.835157 0.135481 0)
(0.842395 0.142273 0)
(0.853983 0.147933 0)
(0.866119 0.155131 0)
(0.882841 0.160798 0)
(0.90211 0.167329 0)
(0.927409 0.171606 0)
(0.957833 0.173867 0)
(0.996596 0.173229 0)
(0.834215 0.126012 0)
(0.8436 0.130172 0)
(0.850387 0.136682 0)
(0.861275 0.142164 0)
(0.872817 0.148826 0)
(0.888545 0.154249 0)
(0.906788 0.160264 0)
(0.930677 0.164412 0)
(0.959224 0.166437 0)
(0.995677 0.166707 0)
(1.75855 -3.85528e-07 0)
(1.74471 1.33211e-06 0)
(1.72901 -3.85677e-06 0)
(1.71124 8.2914e-06 0)
(1.68999 -2.22724e-05 0)
(1.66653 3.74245e-05 0)
(1.63802 -9.22838e-05 0)
(1.47577 0.000730493 0)
(0.820869 0.00453699 0)
(0.471515 0.0137581 0)
(1.75855 -1.10472e-06 0)
(1.74471 3.79616e-06 0)
(1.72901 -1.08053e-05 0)
(1.71124 2.32799e-05 0)
(1.68999 -6.03248e-05 0)
(1.66653 0.000109817 0)
(1.63804 -0.000279913 0)
(1.47514 0.00219092 0)
(0.824416 0.0133354 0)
(0.49374 0.0398452 0)
(1.75855 -1.82421e-06 0)
(1.74471 6.27656e-06 0)
(1.72902 -1.77862e-05 0)
(1.71124 3.83293e-05 0)
(1.69001 -9.85433e-05 0)
(1.66654 0.000179072 0)
(1.63806 -0.000467993 0)
(1.47495 0.00388442 0)
(0.82954 0.0207369 0)
(0.525055 0.0589126 0)
(1.75855 -2.53643e-06 0)
(1.74471 8.72866e-06 0)
(1.72902 -2.45965e-05 0)
(1.71124 5.30161e-05 0)
(1.69003 -0.00013447 0)
(1.66655 0.000244676 0)
(1.6381 -0.000654182 0)
(1.47502 0.00568565 0)
(0.834012 0.0279453 0)
(0.554943 0.0770695 0)
(1.75855 -3.23473e-06 0)
(1.74471 1.11378e-05 0)
(1.72902 -3.1168e-05 0)
(1.71123 6.72018e-05 0)
(1.69005 -0.000167915 0)
(1.66657 0.000305047 0)
(1.63816 -0.000839904 0)
(1.47558 0.00764805 0)
(0.83958 0.0344225 0)
(0.584573 0.0893141 0)
(1.75855 -3.91494e-06 0)
(1.74471 1.34873e-05 0)
(1.72903 -3.74347e-05 0)
(1.71123 8.07301e-05 0)
(1.69007 -0.000198387 0)
(1.66659 0.000359762 0)
(1.63823 -0.00102169 0)
(1.47671 0.00970462 0)
(0.84584 0.0402205 0)
(0.612482 0.100124 0)
(1.75855 -4.57284e-06 0)
(1.7447 1.57617e-05 0)
(1.72903 -4.33388e-05 0)
(1.71123 9.34765e-05 0)
(1.69009 -0.00022568 0)
(1.6666 0.000408671 0)
(1.63833 -0.00119688 0)
(1.47837 0.0117934 0)
(0.852426 0.0449666 0)
(0.639791 0.107877 0)
(1.75855 -5.20439e-06 0)
(1.7447 1.79449e-05 0)
(1.72904 -4.88328e-05 0)
(1.71123 0.00010533 0)
(1.69012 -0.000249715 0)
(1.66662 0.000451889 0)
(1.63844 -0.00136565 0)
(1.48038 0.0138833 0)
(0.85839 0.049208 0)
(0.665292 0.114848 0)
(1.75855 -5.80583e-06 0)
(1.7447 2.0022e-05 0)
(1.72904 -5.38815e-05 0)
(1.71122 0.000116212 0)
(1.69014 -0.000270553 0)
(1.66664 0.000489773 0)
(1.63857 -0.00152644 0)
(1.4828 0.0160018 0)
(0.864098 0.052556 0)
(0.688473 0.119635 0)
(1.75855 -6.37372e-06 0)
(1.7447 2.19793e-05 0)
(1.72905 -5.84614e-05 0)
(1.71122 0.000126071 0)
(1.69016 -0.000288342 0)
(1.66665 0.000522882 0)
(1.63871 -0.00167732 0)
(1.48571 0.0181277 0)
(0.869139 0.0552543 0)
(0.708767 0.123156 0)
(1.75855 -6.90504e-06 0)
(1.7447 2.38048e-05 0)
(1.72905 -6.25609e-05 0)
(1.71122 0.000134886 0)
(1.69018 -0.000303295 0)
(1.66666 0.000551896 0)
(1.63885 -0.00181626 0)
(1.48922 0.0202318 0)
(0.873963 0.0576416 0)
(0.725156 0.125218 0)
(1.75855 -7.39721e-06 0)
(1.7447 2.54889e-05 0)
(1.72906 -6.61793e-05 0)
(1.71122 0.000142662 0)
(1.6902 -0.000315632 0)
(1.66667 0.000577451 0)
(1.63898 -0.00194245 0)
(1.49365 0.0222187 0)
(0.87962 0.0597716 0)
(0.737762 0.126482 0)
(1.75855 -7.84821e-06 0)
(1.7447 2.70248e-05 0)
(1.72906 -6.93256e-05 0)
(1.71121 0.000149428 0)
(1.69021 -0.000325578 0)
(1.66668 0.000600071 0)
(1.63909 -0.00205595 0)
(1.49885 0.0238897 0)
(0.886227 0.0616243 0)
(0.748968 0.125724 0)
(1.75855 -8.25657e-06 0)
(1.7447 2.84081e-05 0)
(1.72906 -7.2017e-05 0)
(1.71121 0.00015523 0)
(1.69023 -0.000333366 0)
(1.66669 0.000620227 0)
(1.63917 -0.00215566 0)
(1.50443 0.0252007 0)
(0.893321 0.0634584 0)
(0.759967 0.125879 0)
(1.75855 -8.62138e-06 0)
(1.7447 2.96373e-05 0)
(1.72907 -7.42772e-05 0)
(1.71121 0.000160128 0)
(1.69024 -0.000339195 0)
(1.6667 0.000638195 0)
(1.63922 -0.00224362 0)
(1.51026 0.0261702 0)
(0.900944 0.0649878 0)
(0.770209 0.125312 0)
(1.75855 -8.9423e-06 0)
(1.7447 3.07135e-05 0)
(1.72907 -7.61345e-05 0)
(1.7112 0.000164189 0)
(1.69025 -0.00034322 0)
(1.66672 0.000653995 0)
(1.63921 -0.00231956 0)
(1.51644 0.0267536 0)
(0.908964 0.0662591 0)
(0.779678 0.124115 0)
(1.75855 -9.2194e-06 0)
(1.7447 3.16399e-05 0)
(1.72907 -7.76198e-05 0)
(1.7112 0.000167488 0)
(1.69026 -0.000345695 0)
(1.66673 0.000668134 0)
(1.63915 -0.0023608 0)
(1.5231 0.0267464 0)
(0.91722 0.0672904 0)
(0.788569 0.122654 0)
(1.75856 -9.45311e-06 0)
(1.7447 3.24207e-05 0)
(1.72908 -7.87637e-05 0)
(1.7112 0.000170093 0)
(1.69027 -0.000346681 0)
(1.66674 0.000679958 0)
(1.63906 -0.00240639 0)
(1.53025 0.0261993 0)
(0.925433 0.0682787 0)
(0.797007 0.120777 0)
(1.75856 -9.64499e-06 0)
(1.74469 3.30614e-05 0)
(1.72908 -7.95997e-05 0)
(1.7112 0.000172066 0)
(1.69027 -0.000346447 0)
(1.66675 0.000689658 0)
(1.63892 -0.00243052 0)
(1.53744 0.025174 0)
(0.933441 0.0689658 0)
(0.805453 0.118954 0)
(1.75856 -9.79626e-06 0)
(1.74469 3.35683e-05 0)
(1.72908 -8.01595e-05 0)
(1.71119 0.000173485 0)
(1.69028 -0.000345255 0)
(1.66677 0.000696812 0)
(1.63873 -0.00244578 0)
(1.54432 0.0237367 0)
(0.94098 0.0693826 0)
(0.813886 0.116636 0)
(1.75856 9.79626e-06 0)
(1.74469 -3.35683e-05 0)
(1.72908 8.01595e-05 0)
(1.71119 -0.000173485 0)
(1.69028 0.000345254 0)
(1.66677 -0.000696812 0)
(1.63873 0.00244577 0)
(1.54432 -0.0237367 0)
(0.94098 -0.0693829 0)
(0.813886 -0.116636 0)
(1.75856 9.64498e-06 0)
(1.74469 -3.30614e-05 0)
(1.72908 7.95996e-05 0)
(1.7112 -0.000172066 0)
(1.69027 0.000346447 0)
(1.66675 -0.000689658 0)
(1.63892 0.00243052 0)
(1.53744 -0.0251739 0)
(0.933441 -0.068966 0)
(0.805453 -0.118954 0)
(1.75856 9.45311e-06 0)
(1.7447 -3.24207e-05 0)
(1.72908 7.87637e-05 0)
(1.7112 -0.000170093 0)
(1.69027 0.000346681 0)
(1.66674 -0.000679958 0)
(1.63906 0.00240639 0)
(1.53025 -0.0261993 0)
(0.925433 -0.068279 0)
(0.797007 -0.120777 0)
(1.75855 9.2194e-06 0)
(1.7447 -3.16399e-05 0)
(1.72907 7.76197e-05 0)
(1.7112 -0.000167488 0)
(1.69026 0.000345695 0)
(1.66673 -0.000668134 0)
(1.63915 0.0023608 0)
(1.5231 -0.0267464 0)
(0.91722 -0.0672906 0)
(0.788569 -0.122655 0)
(1.75855 8.94229e-06 0)
(1.7447 -3.07135e-05 0)
(1.72907 7.61345e-05 0)
(1.7112 -0.000164189 0)
(1.69025 0.00034322 0)
(1.66672 -0.000653995 0)
(1.63921 0.00231956 0)
(1.51644 -0.0267537 0)
(0.908964 -0.0662593 0)
(0.779678 -0.124116 0)
(1.75855 8.62137e-06 0)
(1.7447 -2.96373e-05 0)
(1.72907 7.42772e-05 0)
(1.71121 -0.000160128 0)
(1.69024 0.000339196 0)
(1.6667 -0.000638195 0)
(1.63922 0.00224362 0)
(1.51026 -0.0261703 0)
(0.900944 -0.064988 0)
(0.770208 -0.125312 0)
(1.75855 8.25656e-06 0)
(1.7447 -2.8408e-05 0)
(1.72906 7.2017e-05 0)
(1.71121 -0.00015523 0)
(1.69023 0.000333366 0)
(1.66669 -0.000620228 0)
(1.63917 0.00215566 0)
(1.50443 -0.0252008 0)
(0.893321 -0.0634586 0)
(0.759967 -0.125879 0)
(1.75855 7.8482e-06 0)
(1.7447 -2.70247e-05 0)
(1.72906 6.93256e-05 0)
(1.71121 -0.000149428 0)
(1.69021 0.000325578 0)
(1.66668 -0.000600072 0)
(1.63909 0.00205595 0)
(1.49885 -0.0238898 0)
(0.886226 -0.0616246 0)
(0.748968 -0.125724 0)
(1.75855 7.3972e-06 0)
(1.7447 -2.54889e-05 0)
(1.72906 6.61793e-05 0)
(1.71122 -0.000142662 0)
(1.6902 0.000315632 0)
(1.66667 -0.000577453 0)
(1.63898 0.00194245 0)
(1.49365 -0.0222188 0)
(0.87962 -0.059772 0)
(0.737762 -0.126483 0)
(1.75855 6.90503e-06 0)
(1.7447 -2.38048e-05 0)
(1.72905 6.2561e-05 0)
(1.71122 -0.000134886 0)
(1.69018 0.000303296 0)
(1.66666 -0.000551898 0)
(1.63885 0.00181626 0)
(1.48922 -0.0202319 0)
(0.873963 -0.0576419 0)
(0.725156 -0.125218 0)
(1.75855 6.37372e-06 0)
(1.7447 -2.19793e-05 0)
(1.72905 5.84615e-05 0)
(1.71122 -0.000126071 0)
(1.69016 0.000288343 0)
(1.66665 -0.000522885 0)
(1.63871 0.00167732 0)
(1.48571 -0.0181277 0)
(0.869139 -0.0552546 0)
(0.708767 -0.123156 0)
(1.75855 5.80583e-06 0)
(1.7447 -2.00221e-05 0)
(1.72904 5.38816e-05 0)
(1.71122 -0.000116213 0)
(1.69014 0.000270554 0)
(1.66664 -0.000489776 0)
(1.63857 0.00152645 0)
(1.4828 -0.0160019 0)
(0.864098 -0.0525562 0)
(0.688473 -0.119635 0)
(1.75855 5.20439e-06 0)
(1.7447 -1.79449e-05 0)
(1.72904 4.88329e-05 0)
(1.71123 -0.000105331 0)
(1.69012 0.000249716 0)
(1.66662 -0.000451892 0)
(1.63844 0.00136566 0)
(1.48038 -0.0138834 0)
(0.85839 -0.0492082 0)
(0.665292 -0.114848 0)
(1.75855 4.57284e-06 0)
(1.7447 -1.57617e-05 0)
(1.72903 4.33389e-05 0)
(1.71123 -9.34771e-05 0)
(1.69009 0.000225682 0)
(1.6666 -0.000408674 0)
(1.63833 0.00119689 0)
(1.47837 -0.0117934 0)
(0.852426 -0.0449667 0)
(0.639791 -0.107876 0)
(1.75855 3.91494e-06 0)
(1.74471 -1.34874e-05 0)
(1.72903 3.74349e-05 0)
(1.71123 -8.07308e-05 0)
(1.69007 0.000198389 0)
(1.66659 -0.000359766 0)
(1.63823 0.00102171 0)
(1.47671 -0.00970471 0)
(0.84584 -0.0402206 0)
(0.612482 -0.100124 0)
(1.75855 3.23473e-06 0)
(1.74471 -1.11378e-05 0)
(1.72902 3.11682e-05 0)
(1.71123 -6.72025e-05 0)
(1.69005 0.000167917 0)
(1.66657 -0.000305051 0)
(1.63816 0.000839916 0)
(1.47558 -0.00764813 0)
(0.83958 -0.0344225 0)
(0.584573 -0.0893139 0)
(1.75855 2.53643e-06 0)
(1.74471 -8.7287e-06 0)
(1.72902 2.45967e-05 0)
(1.71124 -5.30169e-05 0)
(1.69003 0.000134472 0)
(1.66655 -0.000244679 0)
(1.6381 0.000654194 0)
(1.47502 -0.00568573 0)
(0.834012 -0.0279453 0)
(0.554943 -0.0770694 0)
(1.75855 1.82421e-06 0)
(1.74471 -6.27659e-06 0)
(1.72902 1.77865e-05 0)
(1.71124 -3.83301e-05 0)
(1.69001 9.85459e-05 0)
(1.66654 -0.000179076 0)
(1.63806 0.000468005 0)
(1.47495 -0.00388452 0)
(0.82954 -0.0207369 0)
(0.525055 -0.0589125 0)
(1.75855 1.10472e-06 0)
(1.74471 -3.7962e-06 0)
(1.72901 1.08055e-05 0)
(1.71124 -2.32807e-05 0)
(1.68999 6.03274e-05 0)
(1.66653 -0.000109821 0)
(1.63804 0.000279925 0)
(1.47514 -0.00219098 0)
(0.824416 -0.0133354 0)
(0.49374 -0.0398452 0)
(1.75855 3.85528e-07 0)
(1.74471 -1.33215e-06 0)
(1.72901 3.85703e-06 0)
(1.71124 -8.29222e-06 0)
(1.68999 2.22751e-05 0)
(1.66653 -3.74285e-05 0)
(1.63802 9.22954e-05 0)
(1.47577 -0.000730528 0)
(0.820869 -0.00453697 0)
(0.471515 -0.0137581 0)
(0.834216 -0.126012 0)
(0.8436 -0.130172 0)
(0.850387 -0.136682 0)
(0.861275 -0.142164 0)
(0.872817 -0.148826 0)
(0.888546 -0.154248 0)
(0.90679 -0.160262 0)
(0.930679 -0.164411 0)
(0.959229 -0.166433 0)
(0.995681 -0.1667 0)
(0.824562 -0.131398 0)
(0.835156 -0.135481 0)
(0.842395 -0.142273 0)
(0.853982 -0.147932 0)
(0.866119 -0.15513 0)
(0.882842 -0.160796 0)
(0.902112 -0.167326 0)
(0.927411 -0.171605 0)
(0.957839 -0.173862 0)
(0.996599 -0.173223 0)
(0.814948 -0.137388 0)
(0.826375 -0.141368 0)
(0.834032 -0.148402 0)
(0.846253 -0.154198 0)
(0.858912 -0.161912 0)
(0.876558 -0.167766 0)
(0.896797 -0.174744 0)
(0.923662 -0.179119 0)
(0.95614 -0.181617 0)
(0.998071 -0.180654 0)
(0.805141 -0.143589 0)
(0.816893 -0.147392 0)
(0.824737 -0.154544 0)
(0.837403 -0.160432 0)
(0.85044 -0.168685 0)
(0.869008 -0.174787 0)
(0.890395 -0.182374 0)
(0.919432 -0.1872 0)
(0.954612 -0.190127 0)
(1.00016 -0.188826 0)
(0.794542 -0.149454 0)
(0.806254 -0.153226 0)
(0.814139 -0.160577 0)
(0.827238 -0.166607 0)
(0.840681 -0.175468 0)
(0.860408 -0.181941 0)
(0.883323 -0.190496 0)
(0.914964 -0.196096 0)
(0.953217 -0.199492 0)
(1.00297 -0.197848 0)
(0.783123 -0.154431 0)
(0.794446 -0.15832 0)
(0.802296 -0.166081 0)
(0.816193 -0.172597 0)
(0.830509 -0.18252 0)
(0.852062 -0.189927 0)
(0.876941 -0.199964 0)
(0.911154 -0.206023 0)
(0.952462 -0.210006 0)
(1.00647 -0.207642 0)
(0.77166 -0.158726 0)
(0.782743 -0.163229 0)
(0.790643 -0.172219 0)
(0.805818 -0.180057 0)
(0.821311 -0.191426 0)
(0.844472 -0.199312 0)
(0.870698 -0.210056 0)
(0.906513 -0.215865 0)
(0.950094 -0.220741 0)
(1.00988 -0.218445 0)
(0.76195 -0.163684 0)
(0.773371 -0.169916 0)
(0.780515 -0.179927 0)
(0.795512 -0.187788 0)
(0.810644 -0.199571 0)
(0.834407 -0.207603 0)
(0.861569 -0.219384 0)
(0.900167 -0.226264 0)
(0.948369 -0.232247 0)
(1.01403 -0.229634 0)
(0.748432 -0.165489 0)
(0.759897 -0.172332 0)
(0.766288 -0.183594 0)
(0.781586 -0.192984 0)
(0.79693 -0.206819 0)
(0.822286 -0.216564 0)
(0.851474 -0.230358 0)
(0.892694 -0.238529 0)
(0.943922 -0.245164 0)
(1.01383 -0.24052 0)
(0.728685 -0.168189 0)
(0.740366 -0.175693 0)
(0.747204 -0.188482 0)
(0.763903 -0.199168 0)
(0.779719 -0.214598 0)
(0.805998 -0.225579 0)
(0.836141 -0.240509 0)
(0.878739 -0.248457 0)
(0.933092 -0.255981 0)
(1.00916 -0.250398 0)
(0.706411 -0.167019 0)
(0.717675 -0.176503 0)
(0.723932 -0.191003 0)
(0.741481 -0.20279 0)
(0.757615 -0.219722 0)
(0.784979 -0.231922 0)
(0.81636 -0.248285 0)
(0.861575 -0.257966 0)
(0.920683 -0.267987 0)
(1.00675 -0.262467 0)
(0.681292 -0.163761 0)
(0.693685 -0.175543 0)
(0.699353 -0.19269 0)
(0.717857 -0.206192 0)
(0.734482 -0.224826 0)
(0.763283 -0.238792 0)
(0.796488 -0.257284 0)
(0.844238 -0.268801 0)
(0.907765 -0.281469 0)
(1.00169 -0.275608 0)
(0.652188 -0.160797 0)
(0.66744 -0.173863 0)
(0.67348 -0.193688 0)
(0.693838 -0.209674 0)
(0.711584 -0.230724 0)
(0.742068 -0.246938 0)
(0.777454 -0.267387 0)
(0.827907 -0.280777 0)
(0.896483 -0.296812 0)
(1.00026 -0.291229 0)
(0.621779 -0.159261 0)
(0.640306 -0.17405 0)
(0.647214 -0.196521 0)
(0.66977 -0.214405 0)
(0.688981 -0.237503 0)
(0.720869 -0.256071 0)
(0.758117 -0.27849 0)
(0.810716 -0.294301 0)
(0.88401 -0.313695 0)
(0.996886 -0.308157 0)
(0.588839 -0.157602 0)
(0.611478 -0.174264 0)
(0.619476 -0.199916 0)
(0.644163 -0.220136 0)
(0.665134 -0.245005 0)
(0.698055 -0.265497 0)
(0.736736 -0.289423 0)
(0.790816 -0.307854 0)
(0.868316 -0.331418 0)
(0.990472 -0.326006 0)
(0.55056 -0.155463 0)
(0.578117 -0.172754 0)
(0.587677 -0.200388 0)
(0.614226 -0.22268 0)
(0.637234 -0.249413 0)
(0.671202 -0.272492 0)
(0.711418 -0.298259 0)
(0.766861 -0.320208 0)
(0.847173 -0.348138 0)
(0.977428 -0.345535 0)
(0.506198 -0.157004 0)
(0.538659 -0.174836 0)
(0.55015 -0.203913 0)
(0.578719 -0.227315 0)
(0.605528 -0.254535 0)
(0.641803 -0.279214 0)
(0.68437 -0.306534 0)
(0.740905 -0.331607 0)
(0.821794 -0.362953 0)
(0.957125 -0.3681 0)
(0.456137 -0.149011 0)
(0.494977 -0.162217 0)
(0.512457 -0.193805 0)
(0.545148 -0.224885 0)
(0.577352 -0.258577 0)
(0.61744 -0.288199 0)
(0.663684 -0.318385 0)
(0.723151 -0.347141 0)
(0.805694 -0.383503 0)
(0.946036 -0.39863 0)
(0.404852 -0.155545 0)
(0.456625 -0.175679 0)
(0.484805 -0.216164 0)
(0.525824 -0.250345 0)
(0.564516 -0.283095 0)
(0.606397 -0.311054 0)
(0.651876 -0.33879 0)
(0.708621 -0.366673 0)
(0.786173 -0.403057 0)
(0.920769 -0.431082 0)
(0.375808 -0.130382 0)
(0.444816 -0.162248 0)
(0.484445 -0.21398 0)
(0.528755 -0.252315 0)
(0.568542 -0.285499 0)
(0.609281 -0.313353 0)
(0.653621 -0.341027 0)
(0.709064 -0.368714 0)
(0.785034 -0.406899 0)
(0.92285 -0.444654 0)
(1.08694 -0.146531 0)
(1.22409 -0.0803517 0)
(1.34519 0.0163305 0)
(1.43941 0.126707 0)
(1.51079 0.236918 0)
(1.56381 0.326212 0)
(1.57733 0.324594 0)
(1.55286 0.245219 0)
(1.48661 0.0769106 0)
(1.43686 -0.0280184 0)
(1.09438 -0.151075 0)
(1.23816 -0.0795567 0)
(1.36143 0.0236798 0)
(1.45468 0.139267 0)
(1.52294 0.254441 0)
(1.56843 0.333889 0)
(1.57823 0.323099 0)
(1.54306 0.2292 0)
(1.46435 0.0652889 0)
(1.43359 -0.0273502 0)
(1.10374 -0.156119 0)
(1.25377 -0.0780473 0)
(1.37783 0.0315126 0)
(1.46937 0.153047 0)
(1.53384 0.270861 0)
(1.57071 0.341644 0)
(1.57882 0.321684 0)
(1.53204 0.209976 0)
(1.44889 0.0560222 0)
(1.43043 -0.0275657 0)
(1.1133 -0.161444 0)
(1.26932 -0.076529 0)
(1.39461 0.0417922 0)
(1.48342 0.169088 0)
(1.54361 0.285536 0)
(1.57138 0.344237 0)
(1.57665 0.318581 0)
(1.5214 0.191717 0)
(1.44064 0.0508232 0)
(1.42736 -0.0272591 0)
(1.12353 -0.166793 0)
(1.28559 -0.0729092 0)
(1.41003 0.0532069 0)
(1.49529 0.182998 0)
(1.55295 0.30243 0)
(1.57211 0.347279 0)
(1.57035 0.311814 0)
(1.50699 0.171816 0)
(1.43442 0.0469049 0)
(1.42451 -0.0265257 0)
(1.13524 -0.172029 0)
(1.30094 -0.0684948 0)
(1.42499 0.0660901 0)
(1.50736 0.198973 0)
(1.56046 0.321797 0)
(1.57114 0.349237 0)
(1.56229 0.303187 0)
(1.49064 0.155359 0)
(1.42741 0.0447913 0)
(1.42095 -0.0244462 0)
(1.14606 -0.176922 0)
(1.31673 -0.0614188 0)
(1.43836 0.0774983 0)
(1.51952 0.219684 0)
(1.56445 0.33458 0)
(1.56932 0.349494 0)
(1.55351 0.292701 0)
(1.4692 0.136648 0)
(1.41816 0.0415157 0)
(1.41578 -0.0224375 0)
(1.15639 -0.181286 0)
(1.33096 -0.0549883 0)
(1.4549 0.095157 0)
(1.52935 0.241973 0)
(1.5676 0.342321 0)
(1.56788 0.349245 0)
(1.54299 0.277776 0)
(1.4512 0.12226 0)
(1.40884 0.0385487 0)
(1.40963 -0.0213424 0)
(1.16569 -0.184464 0)
(1.34763 -0.0451262 0)
(1.47019 0.114508 0)
(1.53801 0.256857 0)
(1.56816 0.348203 0)
(1.56673 0.347908 0)
(1.53218 0.261132 0)
(1.43014 0.107214 0)
(1.39962 0.0361618 0)