/*--------------------------------*- C++ -*----------------------------------*\
  =========                 |
  \\      /  F ield         | OpenFOAM: The Open Source CFD Toolbox
   \\    /   O peration     | Website:  https://openfoam.org
    \\  /    A nd           | Version:  7
     \\/     M anipulation  |
\*---------------------------------------------------------------------------*/
FoamFile
{
    version     2.0;
    format      ascii;
    class       volScalarField;
    location    "0.3";
    object      p;
}
// * * * * * * * * * * * * * * * * * * * * * * * * * * * * * * * * * * * * * //

dimensions      [1 -1 -2 0 0 0 0];

internalField   nonuniform List<scalar> 
3225
(
0.665752
0.668042
0.668906
0.671253
0.673853
0.67436
0.678338
0.682178
0.683291
0.685791
0.689613
0.696673
0.733168
0.722007
0.713683
0.705252
0.693554
0.687418
0.680473
0.676109
0.672825
0.669173
0.671441
0.672548
0.674357
0.676921
0.677163
0.680636
0.684824
0.686351
0.689338
0.693282
0.699798
0.74042
0.729501
0.719295
0.710311
0.698993
0.69252
0.686582
0.681068
0.677058
0.672903
0.675037
0.676162
0.677309
0.679759
0.679784
0.682822
0.687353
0.689303
0.692803
0.696652
0.702542
0.747387
0.736036
0.724576
0.715198
0.705221
0.697842
0.692311
0.685886
0.681386
0.677108
0.678813
0.679614
0.680009
0.68249
0.682445
0.685023
0.689835
0.692235
0.695836
0.699545
0.705091
0.753773
0.741575
0.729774
0.720356
0.712092
0.70354
0.697445
0.690485
0.685942
0.681967
0.682705
0.682913
0.682538
0.685084
0.685229
0.68747
0.692254
0.695058
0.698653
0.702152
0.707559
0.759431
0.746567
0.735261
0.72601
0.719078
0.709582
0.702144
0.695049
0.69061
0.687298
0.686617
0.685927
0.684979
0.68777
0.688231
0.690174
0.694865
0.697778
0.701177
0.704464
0.710134
0.764496
0.751651
0.741357
0.732066
0.725722
0.715523
0.706727
0.69998
0.695498
0.692716
0.69045
0.6888
0.68748
0.690545
0.691443
0.693025
0.697537
0.700522
0.703586
0.706644
0.712935
0.769384
0.757331
0.74809
0.738261
0.731756
0.721029
0.711491
0.705466
0.700721
0.697823
0.694102
0.691751
0.690317
0.693454
0.694728
0.695919
0.700186
0.703191
0.705879
0.708936
0.716109
0.774659
0.763704
0.755119
0.744362
0.737072
0.726097
0.716727
0.711398
0.706274
0.702546
0.697496
0.694887
0.693579
0.696524
0.697971
0.698676
0.702776
0.7058
0.708223
0.711536
0.719396
0.780699
0.770507
0.761959
0.75013
0.741864
0.731061
0.722471
0.717495
0.711923
0.70704
0.700792
0.698354
0.697381
0.699734
0.700994
0.701233
0.705186
0.708229
0.710651
0.714519
0.722611
0.787423
0.777282
0.768245
0.755422
0.746535
0.736404
0.728601
0.72349
0.717241
0.711332
0.704197
0.702183
0.701689
0.703138
0.703801
0.703661
0.707465
0.710569
0.713306
0.717531
0.725338
0.794316
0.783654
0.773831
0.760339
0.751492
0.742327
0.734961
0.72924
0.722041
0.715441
0.708001
0.706317
0.706191
0.706547
0.706448
0.70611
0.709669
0.71286
0.71598
0.72021
0.727555
0.800794
0.789397
0.778875
0.765225
0.756981
0.748691
0.741318
0.734708
0.726285
0.719576
0.712525
0.710624
0.710607
0.709883
0.708979
0.708714
0.711954
0.71515
0.718536
0.722394
0.729246
0.8066
0.794582
0.783655
0.770498
0.763016
0.755152
0.747425
0.739854
0.730262
0.723892
0.717761
0.71508
0.714598
0.713059
0.711555
0.711616
0.714401
0.717355
0.720814
0.72418
0.730579
0.811807
0.79952
0.788561
0.776337
0.769346
0.761382
0.753063
0.744648
0.734339
0.728673
0.723432
0.719716
0.718165
0.715993
0.714284
0.714846
0.717077
0.719333
0.722741
0.725668
0.731746
0.816731
0.804549
0.793902
0.782636
0.775649
0.767176
0.758141
0.749175
0.738761
0.733973
0.729237
0.724358
0.721527
0.718774
0.717274
0.718109
0.719917
0.721203
0.724453
0.727049
0.732815
0.821709
0.809958
0.799698
0.78903
0.781734
0.772461
0.762664
0.753714
0.74376
0.739567
0.735038
0.728956
0.724792
0.721649
0.720483
0.721357
0.722744
0.723112
0.72592
0.728343
0.733841
0.826939
0.815751
0.805766
0.795148
0.78743
0.777387
0.766906
0.758486
0.749356
0.745277
0.740522
0.73346
0.728244
0.724929
0.723844
0.724535
0.725419
0.725173
0.727449
0.729637
0.734835
0.832475
0.821656
0.81174
0.800882
0.792769
0.782006
0.771245
0.763791
0.755325
0.750848
0.74566
0.737711
0.731964
0.728819
0.727372
0.727552
0.727887
0.72733
0.729097
0.731024
0.735866
0.838136
0.827401
0.817406
0.806149
0.797806
0.786646
0.775901
0.769531
0.761629
0.756116
0.75021
0.741959
0.736053
0.733085
0.731156
0.730611
0.730228
0.729632
0.730915
0.732519
0.736939
0.843598
0.832769
0.822817
0.811142
0.802526
0.791413
0.781229
0.775482
0.767799
0.76114
0.754263
0.74608
0.740672
0.737707
0.735003
0.733636
0.73262
0.732024
0.732947
0.734252
0.7381
0.848748
0.837905
0.82802
0.816046
0.807225
0.796469
0.786926
0.781526
0.77375
0.765691
0.758191
0.750489
0.745447
0.742504
0.739072
0.736661
0.735218
0.734549
0.735112
0.736151
0.739371
0.853548
0.84297
0.833294
0.820958
0.811899
0.802061
0.792889
0.787176
0.779185
0.770136
0.762031
0.755432
0.750602
0.747114
0.743109
0.739907
0.738014
0.737209
0.737575
0.738256
0.74077
0.858302
0.848057
0.838594
0.82616
0.816849
0.807822
0.798855
0.792506
0.783902
0.77427
0.766438
0.760599
0.755863
0.751842
0.747015
0.743273
0.741226
0.740009
0.740093
0.740525
0.742374
0.8632
0.853299
0.843943
0.831448
0.822086
0.81383
0.804511
0.797213
0.788301
0.778473
0.771285
0.766204
0.760964
0.75627
0.75113
0.746851
0.744609
0.743131
0.742829
0.742833
0.74412
0.868362
0.858549
0.84931
0.837064
0.827431
0.819487
0.809981
0.801418
0.792151
0.783186
0.776537
0.771663
0.766113
0.760502
0.755076
0.750838
0.748317
0.746347
0.745689
0.745361
0.746089
0.873856
0.863868
0.854519
0.842704
0.832915
0.824805
0.814814
0.805422
0.796275
0.788267
0.782171
0.776953
0.770709
0.764818
0.759267
0.7548
0.752279
0.750006
0.748698
0.747992
0.74819
0.879509
0.869216
0.859721
0.848308
0.838048
0.829647
0.819458
0.809358
0.800878
0.793938
0.787667
0.78197
0.77514
0.768817
0.763703
0.759266
0.756196
0.753672
0.752095
0.750936
0.750476
0.885285
0.874538
0.864683
0.853703
0.843005
0.833921
0.823662
0.813797
0.806008
0.799695
0.793097
0.786418
0.779312
0.773218
0.768103
0.763689
0.760533
0.757591
0.755538
0.754058
0.753008
0.890993
0.879885
0.86945
0.858613
0.847519
0.838142
0.827983
0.818608
0.811676
0.805363
0.798033
0.790699
0.783303
0.777615
0.772973
0.768292
0.764672
0.761671
0.759344
0.757391
0.75574
0.896508
0.885031
0.873915
0.86322
0.851828
0.842251
0.832791
0.824172
0.817189
0.810558
0.802601
0.794672
0.787659
0.782228
0.777603
0.772983
0.769107
0.765715
0.763173
0.760969
0.758807
0.90176
0.88998
0.878117
0.867464
0.856155
0.846792
0.837979
0.829924
0.82265
0.815199
0.806705
0.798756
0.792127
0.787103
0.782404
0.777462
0.773437
0.769945
0.767101
0.764653
0.762131
0.906574
0.894575
0.882276
0.87169
0.860641
0.851797
0.843759
0.835562
0.827413
0.819398
0.810823
0.8031
0.796909
0.791867
0.787
0.782053
0.777831
0.774089
0.771069
0.768503
0.765741
0.911019
0.898718
0.88638
0.876215
0.865652
0.857256
0.849443
0.840919
0.831876
0.823001
0.814963
0.807868
0.801883
0.796738
0.791467
0.786375
0.782243
0.778345
0.775036
0.772413
0.769582
0.916907
0.905214
0.893592
0.884301
0.874436
0.865772
0.857096
0.847375
0.837841
0.829369
0.822135
0.815705
0.809572
0.803746
0.798136
0.793148
0.789004
0.784824
0.781222
0.778658
0.775906
0.925186
0.915205
0.90499
0.895559
0.884957
0.875234
0.865955
0.856268
0.846541
0.83874
0.832853
0.826163
0.819053
0.812837
0.806998
0.802091
0.798156
0.793571
0.789473
0.787199
0.784597
0.935159
0.926036
0.91588
0.90567
0.894084
0.883746
0.874276
0.865694
0.857103
0.848775
0.842556
0.835934
0.828156
0.821636
0.81608
0.810939
0.806794
0.802265
0.79805
0.795807
0.792977
0.945951
0.936392
0.925292
0.914223
0.902589
0.892804
0.883662
0.875526
0.867746
0.859033
0.851396
0.844541
0.837263
0.830827
0.825199
0.819599
0.815069
0.810896
0.806879
0.804367
0.800968
0.956418
0.945241
0.933421
0.922564
0.911782
0.902718
0.893925
0.885533
0.877218
0.868426
0.86035
0.853141
0.846268
0.840053
0.8342
0.828156
0.823319
0.819622
0.815783
0.812635
0.808545
0.965215
0.953298
0.941574
0.931416
0.921993
0.913211
0.903605
0.894693
0.886016
0.877136
0.869377
0.86231
0.855435
0.848881
0.842735
0.836738
0.831986
0.82834
0.824276
0.820625
0.81611
0.972959
0.961135
0.950868
0.94125
0.931934
0.922982
0.912646
0.903015
0.894469
0.886229
0.878743
0.871468
0.864242
0.857311
0.851285
0.845637
0.840753
0.83689
0.832329
0.8282
0.823697
0.980786
0.969973
0.960877
0.951117
0.941133
0.931587
0.920842
0.9116
0.90342
0.895361
0.887998
0.880405
0.87283
0.865683
0.859866
0.854882
0.849464
0.844583
0.840092
0.836171
0.831569
0.989718
0.979491
0.97076
0.960336
0.949078
0.939709
0.929315
0.920332
0.912847
0.904807
0.896781
0.888619
0.881196
0.874675
0.868642
0.863238
0.857897
0.852641
0.847676
0.844043
0.839485
0.999592
0.988965
0.979188
0.968634
0.957017
0.947527
0.938346
0.929893
0.921725
0.913374
0.905301
0.897002
0.889497
0.883382
0.877679
0.871655
0.865314
0.860363
0.856038
0.85222
0.847143
1.00894
0.997473
0.986805
0.976054
0.965389
0.956433
0.947151
0.938839
0.930698
0.92165
0.913213
0.905491
0.898465
0.892012
0.885596
0.879542
0.873544
0.868316
0.863936
0.860241
0.854803
1.01692
1.00466
0.994389
0.984297
0.973976
0.9654
0.956407
0.947356
0.938633
0.929854
0.921717
0.913952
0.906825
0.900434
0.893912
0.88712
0.881173
0.876645
0.872248
0.868018
0.862158
1.02402
1.01218
1.00215
0.992863
0.983315
0.974154
0.964432
0.955572
0.947044
0.937875
0.929788
0.922583
0.91537
0.908208
0.901542
0.89538
0.889412
0.884325
0.879992
0.87587
0.86966
1.03114
1.01983
1.01083
1.00176
0.991645
0.982313
0.972656
0.963375
0.954972
0.946403
0.938042
0.930338
0.923381
0.916612
0.909653
0.902935
0.897248
0.892385
0.887742
0.883453
0.876979
1.03881
1.02844
1.01919
1.00998
0.999876
0.989977
0.980234
0.971531
0.963181
0.954333
0.945968
0.938468
0.931404
0.924455
0.917704
0.911108
0.904859
0.899808
0.89548
0.891174
0.884245
1.04689
1.03675
1.02747
1.01777
1.00717
0.997597
0.988227
0.979306
0.971034
0.962542
0.953925
0.946122
0.939459
0.932782
0.925513
0.918501
0.912629
0.907629
0.902999
0.898565
0.891369
1.05493
1.04488
1.03498
1.0251
1.01459
1.00501
0.996081
0.987434
0.978744
0.970163
0.96204
0.954324
0.947124
0.940259
0.933426
0.926387
0.920063
0.915123
0.910557
0.905846
0.898377
1.06245
1.05246
1.04239
1.0322
1.02188
1.01273
1.00388
0.995164
0.986526
0.978046
0.969819
0.962068
0.95496
0.947824
0.940742
0.934099
0.927988
0.922548
0.917646
0.912958
0.905462
1.06981
1.0597
1.04942
1.03944
1.02935
1.02029
1.01166
1.00296
0.994041
0.985682
0.977774
0.969756
0.962198
0.955171
0.948494
0.941846
0.935523
0.929853
0.924647
0.919911
0.9125
1.07684
1.0669
1.05645
1.04655
1.03704
1.02807
1.01914
1.01047
1.00173
0.99328
0.985221
0.977242
0.96971
0.962547
0.955925
0.94962
0.943171
0.936848
0.931449
0.926932
0.919577
1.08396
1.07382
1.06341
1.05386
1.04458
1.03574
1.02673
1.01776
1.00897
1.00079
0.992792
0.984515
0.976963
0.970148
0.963546
0.956965
0.950508
0.944014
0.938201
0.933781
0.926545
1.09072
1.08081
1.07047
1.061
1.05221
1.04329
1.03384
1.02485
1.01631
1.00812
1.00009
0.991911
0.984288
0.977546
0.971098
0.964354
0.95751
0.950866
0.945102
0.940734
0.93344
1.09763
1.08777
1.07744
1.06835
1.05959
1.05041
1.04087
1.03184
1.02348
1.01551
1.00741
0.999168
0.991617
0.984936
0.978434
0.971438
0.964476
0.957826
0.951935
0.947583
0.940278
1.1044
1.09462
1.08467
1.07541
1.06653
1.05734
1.04775
1.03875
1.03069
1.02292
1.01472
1.0064
0.998813
0.992102
0.985674
0.978508
0.971123
0.964604
0.958989
0.954544
0.947062
1.11117
1.10164
1.09153
1.0822
1.07339
1.06409
1.05449
1.04585
1.03796
1.0302
1.02194
1.01362
1.006
0.999086
0.992504
0.985372
0.977995
0.971464
0.965904
0.96144
0.953826
1.11793
1.10816
1.09828
1.08897
1.0799
1.07071
1.06158
1.05298
1.04505
1.03748
1.02923
1.02062
1.01297
1.006
0.999242
0.992066
0.984793
0.978447
0.972945
0.968306
0.960502
1.12425
1.11466
1.10483
1.09536
1.08659
1.07751
1.06845
1.06023
1.05233
1.04442
1.03611
1.02764
1.01986
1.01264
1.00576
0.998804
0.991829
0.985504
0.979831
0.975061
0.967147
1.1305
1.12084
1.1113
1.10211
1.09322
1.08416
1.0757
1.0675
1.05914
1.0512
1.04299
1.03432
1.02645
1.01933
1.01243
1.00552
0.998827
0.992621
0.986731
0.981745
0.973736
1.13636
1.12722
1.11802
1.10859
1.09988
1.09117
1.08262
1.07442
1.06609
1.05769
1.04928
1.04098
1.03319
1.02583
1.01905
1.01247
1.0059
0.999586
0.993525
0.988442
0.980331
1.1426
1.13374
1.12459
1.11523
1.1066
1.09792
1.08962
1.0813
1.0723
1.0638
1.05575
1.04754
1.03974
1.03255
1.02586
1.01934
1.01285
1.00655
1.00036
0.995148
0.986836
1.14896
1.14043
1.13133
1.12155
1.11313
1.10493
1.09634
1.08743
1.07842
1.06999
1.06206
1.05429
1.04667
1.03918
1.03251
1.02632
1.0199
1.01341
1.00715
1.00184
0.993203
1.15572
1.14709
1.13754
1.12774
1.11973
1.11152
1.10278
1.09352
1.08413
1.07618
1.06893
1.06124
1.05331
1.04595
1.03933
1.03312
1.02683
1.02037
1.01392
1.0083
0.9993
1.16235
1.15338
1.14364
1.13382
1.1261
1.11812
1.10894
1.09908
1.09019
1.08294
1.07586
1.06818
1.06022
1.05262
1.04602
1.04006
1.03382
1.02712
1.02039
1.01447
1.00524
1.16876
1.15918
1.14928
1.14002
1.13258
1.12427
1.11462
1.10499
1.09665
1.08986
1.08312
1.07519
1.06676
1.05941
1.05302
1.04684
1.04048
1.03368
1.02656
1.0203
1.01118
1.17451
1.16452
1.15513
1.14638
1.13876
1.13027
1.12037
1.11112
1.10377
1.09717
1.08996
1.08183
1.07358
1.06624
1.05985
1.05359
1.04687
1.03965
1.03232
1.02612
1.01742
1.1797
1.16977
1.16121
1.15292
1.14494
1.136
1.12634
1.1181
1.11108
1.10417
1.09673
1.08837
1.08019
1.07319
1.06664
1.05977
1.05266
1.0454
1.03807
1.03217
1.02407
1.1847
1.17547
1.16767
1.15939
1.1508
1.14192
1.13293
1.12526
1.11837
1.11098
1.10294
1.09479
1.08703
1.07977
1.0728
1.0656
1.05821
1.05102
1.04412
1.03878
1.0311
1.19017
1.18194
1.17435
1.16573
1.15665
1.14814
1.14011
1.13256
1.12502
1.11714
1.10915
1.1012
1.09354
1.08604
1.07853
1.07095
1.06377
1.05712
1.05076
1.04584
1.03821
1.19651
1.18897
1.18103
1.17179
1.16255
1.15487
1.14736
1.13934
1.13115
1.12296
1.11515
1.10761
1.09982
1.09165
1.08389
1.07656
1.06976
1.06372
1.05797
1.05315
1.04512
1.20349
1.19607
1.18744
1.17763
1.1688
1.16164
1.15418
1.14551
1.13665
1.12866
1.12127
1.11373
1.10564
1.09715
1.08936
1.0826
1.07651
1.07088
1.06527
1.06024
1.05166
1.21057
1.20279
1.19325
1.18345
1.17532
1.16816
1.1603
1.15102
1.14203
1.13449
1.12735
1.11971
1.11119
1.10263
1.0955
1.08949
1.08372
1.07811
1.07236
1.06694
1.05783
1.21709
1.20859
1.19842
1.18927
1.18175
1.17425
1.16577
1.15609
1.14755
1.14062
1.13342
1.12538
1.11683
1.10877
1.10232
1.09683
1.09116
1.08511
1.07886
1.07314
1.06376
1.22286
1.21357
1.20334
1.19515
1.18791
1.17986
1.17085
1.16141
1.15345
1.14675
1.13954
1.13128
1.1228
1.11566
1.10982
1.10418
1.09808
1.09158
1.08496
1.07906
1.06965
1.22769
1.21801
1.20849
1.20092
1.19369
1.18529
1.17606
1.16714
1.15978
1.15314
1.14555
1.13731
1.1297
1.12312
1.11714
1.11112
1.10452
1.09755
1.09076
1.08492
1.07566
1.23213
1.22267
1.21407
1.20674
1.19928
1.19057
1.18166
1.17369
1.16633
1.15931
1.15181
1.14391
1.13689
1.13058
1.12418
1.11736
1.11029
1.10333
1.09663
1.09091
1.08181
1.23665
1.22813
1.2202
1.21253
1.2047
1.19623
1.18795
1.18043
1.17301
1.16566
1.15808
1.15083
1.1443
1.13752
1.13038
1.12318
1.11597
1.10908
1.10265
1.09711
1.0881
1.24194
1.23439
1.22657
1.21838
1.21026
1.20233
1.1947
1.18738
1.17944
1.17177
1.16478
1.1578
1.15098
1.14391
1.13629
1.12865
1.12165
1.11517
1.10889
1.10342
1.09441
1.24822
1.24111
1.23292
1.2242
1.21623
1.2091
1.20161
1.19384
1.18567
1.17806
1.17126
1.16443
1.1574
1.14973
1.14176
1.13437
1.12769
1.1214
1.11525
1.10981
1.10069
1.25521
1.24768
1.23889
1.23012
1.22272
1.21598
1.20825
1.19998
1.1916
1.18421
1.1778
1.17073
1.16308
1.15537
1.14752
1.14023
1.13397
1.12792
1.12166
1.1161
1.10687
1.26207
1.25399
1.24457
1.23626
1.22942
1.22261
1.21438
1.20563
1.19759
1.19048
1.18381
1.17666
1.16885
1.16092
1.15341
1.14663
1.14045
1.13433
1.128
1.12235
1.11299
1.26838
1.25962
1.25033
1.24275
1.23582
1.22866
1.22013
1.21132
1.20358
1.19655
1.1898
1.18245
1.17439
1.16688
1.1598
1.15301
1.14688
1.1408
1.13426
1.12845
1.11904
1.27398
1.26491
1.25616
1.24909
1.24203
1.2343
1.22553
1.21707
1.20978
1.20268
1.19541
1.1882
1.18042
1.17299
1.16626
1.15966
1.15326
1.147
1.14043
1.13454
1.12512
1.27933
1.27026
1.26223
1.25523
1.24767
1.23969
1.23122
1.22309
1.21581
1.20869
1.20127
1.19406
1.18651
1.17952
1.17285
1.16604
1.15952
1.15322
1.14652
1.14059
1.13124
1.28446
1.27625
1.26838
1.261
1.25325
1.24518
1.23708
1.22931
1.22188
1.21464
1.20711
1.20026
1.19305
1.18587
1.1792
1.17253
1.16573
1.15922
1.1526
1.14674
1.13744
1.28968
1.28211
1.27457
1.26688
1.25877
1.25098
1.24331
1.23551
1.22775
1.22065
1.21337
1.20653
1.19949
1.19241
1.18549
1.17867
1.17194
1.16537
1.15867
1.15293
1.14369
1.29591
1.28817
1.28009
1.27241
1.26487
1.25725
1.24943
1.24161
1.23378
1.22676
1.21971
1.21301
1.20598
1.19859
1.19165
1.18499
1.17807
1.17141
1.16486
1.15922
1.14993
1.30233
1.29443
1.2859
1.27799
1.27079
1.26366
1.2558
1.24757
1.23976
1.23318
1.22632
1.21923
1.21218
1.20499
1.19781
1.19102
1.18427
1.17766
1.17107
1.16548
1.15613
1.30828
1.30042
1.29188
1.28433
1.27723
1.2697
1.26164
1.2537
1.24622
1.23953
1.23267
1.22558
1.21834
1.21106
1.20402
1.19729
1.19036
1.1838
1.17741
1.17179
1.16226
1.31437
1.30565
1.29779
1.29097
1.28377
1.27601
1.26758
1.25962
1.25259
1.24611
1.23904
1.23159
1.22436
1.21745
1.21015
1.20334
1.19663
1.19009
1.18365
1.178
1.16839
1.32118
1.31196
1.30366
1.29712
1.29023
1.28225
1.27365
1.26612
1.25902
1.25216
1.24508
1.23792
1.2305
1.22352
1.21636
1.20963
1.20281
1.1963
1.18998
1.18424
1.17452
1.3263
1.31862
1.31113
1.30349
1.29585
1.28823
1.28011
1.27266
1.26542
1.25846
1.25111
1.24387
1.23671
1.22992
1.22253
1.2157
1.20919
1.20268
1.19621
1.19044
1.18075
1.33298
1.32427
1.31767
1.3107
1.30271
1.29379
1.28606
1.27922
1.27191
1.26463
1.25732
1.25025
1.2429
1.23594
1.22891
1.22213
1.21545
1.20892
1.20254
1.19677
1.18708
1.3429
1.33353
1.3243
1.31662
1.30924
1.30086
1.29266
1.28472
1.27776
1.27105
1.26382
1.25657
1.24921
1.24224
1.23523
1.22842
1.22199
1.21538
1.20881
1.20311
1.19353
1.34904
1.34287
1.33441
1.32488
1.31528
1.30722
1.29961
1.29166
1.28388
1.27658
1.27003
1.26322
1.25565
1.24848
1.24179
1.23498
1.22831
1.22186
1.21541
1.20958
1.20004
1.34767
1.34577
1.34117
1.33416
1.32495
1.31509
1.30607
1.2985
1.29115
1.2836
1.27614
1.26886
1.26191
1.25529
1.24839
1.24144
1.23476
1.22853
1.22196
1.21612
1.2067
1.34396
1.34147
1.34116
1.33777
1.33216
1.32452
1.31549
1.30657
1.29843
1.29123
1.28374
1.27563
1.26781
1.26133
1.25497
1.24842
1.24114
1.23508
1.22859
1.22274
1.21338
1.33948
1.33895
1.33632
1.33462
1.33314
1.32878
1.3233
1.31627
1.30807
1.29975
1.29168
1.2838
1.27581
1.2682
1.26101
1.25475
1.2479
1.24183
1.23514
1.22933
1.21994
1.29478
1.32405
1.33295
1.33027
1.32728
1.32663
1.32512
1.3208
1.3156
1.3089
1.30099
1.2929
1.28504
1.27708
1.26927
1.2616
1.2544
1.24836
1.24219
1.23619
1.22639
1.19884
1.25946
1.29368
1.31906
1.32287
1.32088
1.31949
1.31969
1.318
1.31299
1.30747
1.30131
1.29444
1.28696
1.27944
1.27118
1.26323
1.25549
1.24917
1.24321
1.23332
1.07018
1.13627
1.20406
1.25786
1.28864
1.31212
1.31357
1.31317
1.31246
1.31251
1.31012
1.30482
1.29912
1.29378
1.28849
1.28183
1.27437
1.26582
1.25818
1.25135
1.24105
1.00872
1.03133
1.07714
1.14093
1.2041
1.25311
1.28309
1.30456
1.30444
1.30492
1.30502
1.30479
1.30172
1.29628
1.29096
1.28672
1.28258
1.27662
1.26924
1.26264
1.25092
1.00025
1.00206
1.01059
1.03462
1.08027
1.14039
1.1995
1.24463
1.27451
1.29402
1.29424
1.29636
1.29734
1.2966
1.29276
1.28796
1.28335
1.27903
1.2752
1.27163
1.26145
1
1.00003
1.00034
1.00249
1.01155
1.03506
1.07792
1.13298
1.18833
1.2312
1.26191
1.28103
1.28392
1.28698
1.28841
1.28833
1.28424
1.27907
1.2748
1.2725
1.26584
1
1
1
1.00003
1.00039
1.00255
1.01093
1.03203
1.07016
1.11956
1.17131
1.21312
1.24487
1.26517
1.27157
1.27601
1.27887
1.27958
1.27513
1.26969
1.26538
1
1
1
1
1
1.00003
1.00035
1.00219
1.00907
1.02644
1.05812
1.10079
1.14791
1.18871
1.22177
1.24429
1.25529
1.26251
1.26657
1.26814
1.26473
1
1
1
1
1
1
1
1.00003
1.00026
1.00157
1.00644
1.01906
1.04296
1.07737
1.11807
1.15657
1.19047
1.21608
1.23184
1.24231
1.25064
1
1
1
1
1
1
1
1
1
1.00002
1.00015
1.00089
1.00372
1.01148
1.02711
1.05162
1.08335
1.11695
1.14936
1.17455
1.20477
1
1
1
1
1
1
1
1
1
1
1
1.00001
1.00006
1.00038
1.00164
1.00537
1.01356
1.02777
1.04867
1.07098
1.11323
1
1
1
1
1
1
1
1
1
1
1
1
1
1
1.00002
1.00011
1.00049
1.00174
1.00489
1.01012
1.02847
1
1
1
1
1
1
1
1
1
1
1
1
1
1
1
1
1
1.00002
1.00009
1.0003
1.0021
1
1
1
1
1
1
1
1
1
1
1
1
1
1
1
1
1
1
1
1
1.00015
1
1
1
1
1
1
1
1
1
1
1
1
1
1
1
1
1
1
1
1
1.00012
1
1
1
1
1
1
1
1
1
1
1
1
1
1
1
1
1
1
1
1
1.00012
1
1
1
1
1
1
1
1
1
1
1
1
1
1
1
1
1
1
1
1
1.00012
1
1
1
1
1
1
1
1
1
1
1
1
1
1
1
1
1
1
1
1
1.00012
1
1
1
1
1
1
1
1
1
1
1
1
1
1
1
1
1
1
1
1
1.00012
1
1
1
1
1
1
1
1
1
1
1
1
1
1
1
1
1
1
1
1
1.00012
1
1
1
1
1
1
1
1
1
1
1
1
1
1
1
1
1
1
1
1
1.00012
1
1
1
1
1
1
1
1
1
1
1
1
1
1
1
1
1
1
1
1
1.00012
1
1
1
1
1
1
1
1
1
1
1
1
1
1
1
1
1
1
1
1
1.00012
1
1
1
1
1
1
1
1
1
1
1
1
1
1
1
1
1
1
1
1
1.00012
1
1
1
1
1
1
1
1
1
1
1
1
1
1
1
1
1
1
1
1
1.00012
1
1
1
1
1
1
1
1
1
1
1
1
1
1
1
1
1
1
1
1
1.00012
1
1
1
1
1
1
1
1
1
1
1
1
1
1
1
1
1
1
1
1
1.00012
1
1
1
1
1
1
1
1
1
1
1
1
1
1
1
1
1
1
1
1
1.00012
1
1
1
1
1
1
1
1
1
1
1
1
1
1
1
1
1
1
1
1
1.00012
1
1
1
1
1
1
1
1
1
1
1
1
1
1
1
1
1
1
1
1
1.00012
1
1
1
1
1
1
1
1
1
1
1
1
1
1
1
1
1
1
1
1
1.00012
1
1
1
1
1
1
1
1
1
1
1
1
1
1
1
1
1
1
1
1
1.00012
1
1
1
1
1
1
1
1
1
1
1
1
1
1
1
1
1
1
1
1
1.00012
1
1
1
1
1
1
1
1
1
1
1
1
1
1
1
1
1
1
1
1
1.00012
1
1
1
1
1
1
1
1
1
1
1
1
1
1
1
1
1
1
1
1
1.00012
1
1
1
1
1
1
1
1
1
1
1
1
1
1
1
1
1
1
1
1
1.00012
1
1
1
1
1
1
1
1
1
1
1
1
1
1
1
1
1
1
1
1
1.00012
1
1
1
1
1
1
1
1
1
1
1
1
1
1
1
1
1
1
1
1
1.00012
1
1
1
1
1
1
1
1
1
1
1
1
1
1
1
1
1
1
1
1
1.00012
1
1
1
1
1
1
1
1
1
1
1
1
1
1
1
1
1
1
1
1
1.00012
1
1
1
1
1
1
1
1
1
1
1
1
1
1
1
1
1
1
1
1
1.00012
1
1
1
1
1
1
1
1
1
1
1
1
1
1
1
1
1
1
1
1
1.00012
1
1
1
1
1
1
1
1
1
1
1
1
1
1
1
1
1
1
1
1
1.00012
1
1
1
1
1
1
1
1
1
1
1
1
1
1
1
1
1
1
1
1
1.00012
1
1
1
1
1
1
1
1
1
1
1
1
1
1
1
1
1
1
1
1
1.00012
1
1
1
1
1
1
1
1
1
1
1
1
1
1
1
1
1
1
1
1
1.00012
1
1
1
1
1
1
1
1
1
1
1
1
1
1
1
1
1
1
1
1
1.00012
1
1
1
1
1
1
1
1
1
1
1
1
1
1
1
1
1
1
1
1
1.00012
1
1
1
1
1
1
1
1
1
1
1
1
1
1
1
1
1
1
1
1
1.00012
1
1
1
1
1
1
1
1
1
1
1
1
1
1
1
1
1
1
1
1
1.00012
1
1
1
1
1
1
1
1
1
1
1
1
1
1
1
1
1
1
1
1
1.00012
1
1
1
1
1
1
1
1
1
1
1
1
1
1
1
1
1
1
1
1
1.00012
1
1
1
1
1
1
1
1
1
1
1
1
1
1
1
1
1
1
1
1
1.00012
)
;

boundaryField
{
    inlet
    {
        type            fixedValue;
        value           nonuniform 0();
    }
    outlet
    {
        type            zeroGradient;
    }
    triangle
    {
        type            zeroGradient;
    }
    top
    {
        type            symmetryPlane;
    }
    bottom
    {
        type            symmetryPlane;
    }
    defaultFaces
    {
        type            empty;
    }
    procBoundary31to22
    {
        type            processor;
        value           nonuniform List<scalar> 6(0.743013 0.750139 0.75773 0.765104 0.771685 0.77731);
    }
    procBoundary31to23
    {
        type            processor;
        value           nonuniform List<scalar> 
22
(
0.662475
0.664581
0.665236
0.668043
0.67057
0.671308
0.675614
0.679086
0.680414
0.682349
0.685465
0.693005
0.726029
0.714104
0.707604
0.699651
0.68857
0.682456
0.67434
0.671121
0.668595
0.668595
)
;
    }
    procBoundary31to30
    {
        type            processor;
        value           nonuniform List<scalar> 
147
(
0.782285
0.787127
0.792315
0.798153
0.804591
0.811214
0.817575
0.82342
0.828843
0.834054
0.839346
0.844929
0.850779
0.856722
0.862295
0.867307
0.871801
0.876072
0.880506
0.885253
0.89037
0.895725
0.901161
0.906646
0.912087
0.917384
0.922599
0.929623
0.937728
0.945828
0.955623
0.966726
0.976852
0.985267
0.992509
1.00022
1.00893
1.01854
1.02762
1.03495
1.04198
1.04888
1.0565
1.06419
1.07187
1.07914
1.08621
1.09317
1.1001
1.10675
1.11361
1.12029
1.12722
1.13391
1.14031
1.14642
1.15219
1.15814
1.16428
1.17085
1.17739
1.18371
1.18955
1.19481
1.19974
1.20467
1.21038
1.21696
1.22384
1.23038
1.23632
1.24155
1.24626
1.25071
1.25577
1.26197
1.26873
1.27555
1.28201
1.28794
1.2928
1.29795
1.30364
1.30936
1.31528
1.32275
1.32925
1.33449
1.34352
1.35172
1.35283
1.34791
1.3465
1.32447
1.25445
1.12533
1.02614
1.0015
1.00002
1
1
1
1
1
1
1
1
1
1
1
1
1
1
1
1
1
1
1
1
1
1
1
1
1
1
1
1
1
1
1
1
1
1
1
1
1
1
1
1
1
1
1
1
1
1
1
1
)
;
    }
}


// ************************************************************************* //
