/*--------------------------------*- C++ -*----------------------------------*\
  =========                 |
  \\      /  F ield         | OpenFOAM: The Open Source CFD Toolbox
   \\    /   O peration     | Website:  https://openfoam.org
    \\  /    A nd           | Version:  7
     \\/     M anipulation  |
\*---------------------------------------------------------------------------*/
FoamFile
{
    version     2.0;
    format      ascii;
    class       volScalarField;
    location    "0.1";
    object      rho;
}
// * * * * * * * * * * * * * * * * * * * * * * * * * * * * * * * * * * * * * //

dimensions      [1 -3 0 0 0 0 0];

internalField   nonuniform List<scalar> 
3225
(
1.13449
1.14047
1.14741
1.15667
1.16458
1.16863
1.17019
1.173
1.17826
1.18425
1.18889
1.19152
1.19309
1.19501
1.19835
1.2037
1.21152
1.22239
1.23684
1.2561
1.27765
1.33365
1.13186
1.13777
1.14474
1.15398
1.16175
1.16563
1.16711
1.16996
1.17523
1.18118
1.18572
1.18823
1.18969
1.19153
1.19482
1.20018
1.20808
1.21909
1.23375
1.25332
1.27525
1.33207
1.12917
1.13504
1.14207
1.15128
1.1589
1.1626
1.16402
1.1669
1.17218
1.17809
1.18252
1.18491
1.18624
1.18799
1.19125
1.19663
1.2046
1.21575
1.23064
1.25054
1.27286
1.33052
1.12643
1.13228
1.1394
1.1486
1.15603
1.15954
1.16089
1.16382
1.16912
1.17497
1.17929
1.18154
1.18275
1.18441
1.18763
1.19303
1.20108
1.21239
1.22751
1.24775
1.27047
1.32899
1.12369
1.12955
1.13675
1.1459
1.15315
1.15646
1.15775
1.16071
1.16604
1.17183
1.17603
1.17813
1.17921
1.18078
1.18397
1.18939
1.19753
1.20899
1.22436
1.24496
1.26809
1.32748
1.12099
1.12683
1.13408
1.14318
1.15023
1.15334
1.15457
1.15759
1.16294
1.16867
1.17273
1.17468
1.17562
1.1771
1.18026
1.18571
1.19394
1.20558
1.2212
1.24216
1.26572
1.326
1.1183
1.12408
1.13139
1.14045
1.14729
1.1502
1.15137
1.15445
1.15982
1.16548
1.16939
1.17118
1.17197
1.17336
1.1765
1.18198
1.19032
1.20213
1.21803
1.23936
1.26336
1.32454
1.11556
1.12127
1.12867
1.13769
1.14433
1.14702
1.14814
1.15129
1.15668
1.16226
1.16602
1.16764
1.16828
1.16958
1.17268
1.17821
1.18665
1.19866
1.21484
1.23656
1.26101
1.32312
1.11276
1.11843
1.12595
1.13492
1.14134
1.14381
1.14488
1.1481
1.15351
1.15901
1.1626
1.16404
1.16453
1.16573
1.16881
1.17439
1.18295
1.19516
1.21163
1.23377
1.25868
1.32173
1.10993
1.11559
1.12322
1.13214
1.13831
1.14055
1.14159
1.14489
1.15033
1.15572
1.15913
1.16039
1.16072
1.16183
1.16489
1.17052
1.17922
1.19164
1.20842
1.23097
1.25638
1.32037
1.10709
1.11273
1.12048
1.12933
1.13524
1.13725
1.13827
1.14165
1.14711
1.1524
1.15562
1.15668
1.15686
1.15787
1.16092
1.16661
1.17544
1.18809
1.2052
1.22819
1.25409
1.31904
1.1042
1.10986
1.11775
1.1265
1.13212
1.13391
1.13492
1.13839
1.14387
1.14905
1.15205
1.15291
1.15293
1.15385
1.15688
1.16264
1.17163
1.18452
1.20198
1.22542
1.25183
1.31775
1.10126
1.107
1.11499
1.12362
1.12896
1.13053
1.13155
1.1351
1.1406
1.14565
1.14843
1.14907
1.14893
1.14976
1.15279
1.15863
1.16779
1.18094
1.19875
1.22266
1.2496
1.3165
1.09836
1.10414
1.11219
1.12069
1.12575
1.12712
1.12814
1.13179
1.1373
1.14221
1.14475
1.14516
1.14485
1.14561
1.14864
1.15457
1.1639
1.17733
1.19552
1.21992
1.2474
1.31529
1.09553
1.10123
1.10935
1.11774
1.12251
1.12367
1.12471
1.12845
1.13397
1.13872
1.14102
1.14119
1.1407
1.14138
1.14443
1.15046
1.15999
1.17371
1.19229
1.2172
1.24523
1.31413
1.09263
1.09822
1.10647
1.11477
1.11924
1.12018
1.12124
1.12509
1.13061
1.13519
1.13723
1.13714
1.13647
1.13708
1.14015
1.1463
1.15604
1.17007
1.18907
1.2145
1.24311
1.31301
1.08951
1.09513
1.1036
1.11178
1.11594
1.11665
1.11774
1.1217
1.12722
1.1316
1.13337
1.13301
1.13216
1.13271
1.13582
1.14209
1.15206
1.16642
1.18586
1.21183
1.24102
1.31193
1.0862
1.09204
1.10074
1.10877
1.11257
1.11307
1.11422
1.11828
1.12379
1.12796
1.12944
1.1288
1.12776
1.12826
1.13141
1.13783
1.14804
1.16276
1.18266
1.2092
1.23898
1.3109
1.0829
1.08903
1.09789
1.1057
1.10914
1.10944
1.11066
1.11484
1.12032
1.12426
1.12544
1.1245
1.12328
1.12373
1.12694
1.13352
1.144
1.15909
1.17948
1.2066
1.23699
1.30993
1.07973
1.08605
1.09499
1.10255
1.10564
1.10577
1.10708
1.11138
1.11681
1.1205
1.12135
1.1201
1.11871
1.11912
1.12241
1.12916
1.13993
1.15543
1.17632
1.20404
1.23506
1.309
1.07663
1.08302
1.09202
1.09933
1.10208
1.10206
1.10347
1.10789
1.11325
1.11668
1.11718
1.11561
1.11404
1.11443
1.1178
1.12476
1.13584
1.15176
1.17318
1.20152
1.23318
1.30813
1.07343
1.0799
1.08901
1.09607
1.09847
1.09831
1.09983
1.10438
1.10964
1.11278
1.11291
1.11102
1.10928
1.10965
1.11314
1.12031
1.13173
1.1481
1.17008
1.19906
1.23136
1.30731
1.07001
1.07672
1.08598
1.09276
1.0948
1.0945
1.09617
1.10083
1.10598
1.10882
1.10855
1.10632
1.10441
1.10479
1.1084
1.11581
1.1276
1.14445
1.16701
1.19665
1.22961
1.30655
1.06646
1.07356
1.08295
1.08939
1.09105
1.09066
1.09248
1.09726
1.10227
1.10476
1.10408
1.1015
1.09944
1.09984
1.1036
1.11128
1.12345
1.14081
1.16398
1.19431
1.22793
1.30585
1.06293
1.07045
1.0799
1.08595
1.08723
1.08676
1.08877
1.09365
1.09849
1.10062
1.0995
1.09657
1.09437
1.09481
1.09873
1.1067
1.1193
1.1372
1.16101
1.19203
1.22632
1.3052
1.05948
1.06737
1.07681
1.08242
1.08333
1.08283
1.08503
1.09
1.09464
1.09638
1.0948
1.09151
1.08918
1.08968
1.0938
1.10209
1.11514
1.13362
1.15808
1.18982
1.22479
1.30461
1.05606
1.06428
1.07364
1.07881
1.07936
1.07885
1.08127
1.08632
1.09072
1.09203
1.08997
1.08632
1.08388
1.08447
1.0888
1.09745
1.11099
1.13007
1.15522
1.18769
1.22334
1.30407
1.0526
1.06116
1.0704
1.07511
1.07533
1.07483
1.07748
1.08259
1.08672
1.08757
1.085
1.08099
1.07847
1.07916
1.08374
1.09278
1.10684
1.12656
1.15243
1.18564
1.22197
1.3036
1.04905
1.058
1.06709
1.07134
1.07122
1.07078
1.07367
1.0788
1.08264
1.08298
1.07988
1.07552
1.07294
1.07376
1.07863
1.08809
1.10271
1.1231
1.14971
1.18368
1.22069
1.30318
1.04547
1.05484
1.06372
1.06748
1.06703
1.06669
1.06982
1.07496
1.07846
1.07826
1.07459
1.06991
1.06728
1.06828
1.07346
1.08338
1.0986
1.1197
1.14708
1.18181
1.2195
1.30281
1.04192
1.0517
1.06029
1.06353
1.06277
1.06256
1.06595
1.07105
1.07418
1.0734
1.06914
1.06413
1.06151
1.06271
1.06824
1.07867
1.09452
1.11637
1.14453
1.18004
1.21839
1.3025
1.03845
1.04858
1.05679
1.05947
1.05842
1.0584
1.06205
1.06706
1.06977
1.06837
1.06351
1.0582
1.05562
1.05705
1.06298
1.07395
1.09049
1.11312
1.14208
1.17837
1.21738
1.30225
1.03505
1.04543
1.05318
1.05529
1.05398
1.05421
1.05812
1.06301
1.06523
1.06317
1.05769
1.05211
1.0496
1.05131
1.05768
1.06924
1.08651
1.10995
1.13974
1.1768
1.21646
1.30204
1.03171
1.04223
1.04945
1.05098
1.04948
1.04999
1.05415
1.05886
1.06055
1.05779
1.05166
1.04585
1.04346
1.04549
1.05234
1.06455
1.08259
1.10687
1.1375
1.17535
1.21564
1.30188
1.0284
1.03895
1.0456
1.04656
1.04491
1.04575
1.05014
1.05462
1.05571
1.05219
1.04542
1.03942
1.03721
1.0396
1.04699
1.05989
1.07875
1.1039
1.13539
1.174
1.2149
1.30177
1.0251
1.03558
1.04162
1.04202
1.04029
1.0415
1.04608
1.05028
1.05071
1.04638
1.03896
1.03282
1.03085
1.03365
1.04162
1.05527
1.075
1.10105
1.13339
1.17277
1.21426
1.3017
1.02179
1.03211
1.03751
1.03736
1.03562
1.03724
1.04196
1.04582
1.04552
1.04032
1.03227
1.02606
1.02437
1.02764
1.03626
1.05071
1.07134
1.09833
1.13153
1.17164
1.2137
1.30167
1.01844
1.02853
1.03325
1.03258
1.03091
1.03296
1.03778
1.04121
1.04012
1.034
1.02534
1.01913
1.01779
1.02158
1.03091
1.04623
1.06781
1.09574
1.1298
1.17064
1.21323
1.30167
1.01507
1.02482
1.02881
1.02764
1.02613
1.02863
1.03349
1.03643
1.03449
1.02739
1.01816
1.01204
1.01112
1.01549
1.02559
1.04183
1.0644
1.09329
1.12821
1.16974
1.21284
1.30171
1.01168
1.02098
1.02416
1.02252
1.02127
1.02423
1.02907
1.03143
1.02857
1.02046
1.01072
1.00479
1.00436
1.00938
1.02033
1.03754
1.06114
1.091
1.12675
1.16896
1.21253
1.30177
1.00832
1.01701
1.01931
1.01725
1.01634
1.01973
1.02448
1.02617
1.02232
1.01316
1.00302
0.997378
0.997509
1.00327
1.01514
1.03339
1.05804
1.08888
1.12544
1.16829
1.2123
1.30186
1.00497
1.01296
1.01433
1.01189
1.01138
1.01515
1.0197
1.02061
1.01567
1.00545
0.995031
0.989809
0.990586
0.997175
1.01003
1.02938
1.05512
1.08692
1.12427
1.16772
1.21213
1.30196
1.00119
1.00868
1.00923
1.00651
1.00646
1.01052
1.01475
1.01475
1.0086
0.997308
0.986755
0.982083
0.983593
0.991103
1.00504
1.02554
1.05238
1.08513
1.12325
1.16726
1.21203
1.30208
0.995847
1.00358
1.00377
1.0011
1.00162
1.00589
1.00965
1.0086
1.0011
0.988725
0.978206
0.974205
0.976539
0.985073
1.00018
1.02188
1.04983
1.08352
1.12236
1.16689
1.21198
1.30221
0.988103
0.996411
0.997221
0.995348
0.996781
1.00126
1.0044
1.00217
0.993163
0.979728
0.96942
0.966197
0.969441
0.979107
0.995471
1.01842
1.0475
1.08209
1.12161
1.16661
1.21198
1.30235
0.982015
0.987116
0.98863
0.988511
0.991578
0.996486
0.99894
0.995414
0.984775
0.97035
0.960444
0.95809
0.962331
0.973232
0.990938
1.01518
1.04537
1.08084
1.12098
1.16641
1.21202
1.30249
0.985439
0.981055
0.978645
0.979962
0.985381
0.991232
0.993104
0.988229
0.97587
0.960622
0.951324
0.949925
0.955255
0.967487
0.986604
1.01217
1.04345
1.07975
1.12048
1.1663
1.21211
1.30264
1.05757
0.982856
0.972501
0.970829
0.977678
0.985024
0.986638
0.980442
0.966349
0.950565
0.942098
0.941739
0.948266
0.961914
0.982497
1.00939
1.04175
1.07883
1.1201
1.16625
1.21222
1.30278
1.19091
1.04276
0.972844
0.965324
0.969695
0.977706
0.979319
0.971849
0.9561
0.940192
0.932792
0.933571
0.941419
0.95656
0.978645
1.00686
1.04024
1.07806
1.11981
1.16625
1.21235
1.30291
1.2685
1.15845
1.01307
0.966208
0.964969
0.970255
0.97123
0.962313
0.945043
0.929509
0.923436
0.92547
0.934761
0.951477
0.97508
1.00458
1.03894
1.07743
1.11962
1.1663
1.2125
1.30304
1.29394
1.23352
1.10394
0.990354
0.966769
0.965643
0.963194
0.951948
0.9332
0.918556
0.914042
0.917478
0.928353
0.946712
0.971826
1.00255
1.03782
1.07693
1.1195
1.16639
1.21266
1.30317
1.30275
1.26459
1.18214
1.05243
0.981468
0.966465
0.956883
0.941427
0.92084
0.907426
0.904624
0.909637
0.922255
0.942314
0.968904
1.00079
1.03687
1.07653
1.11946
1.1665
1.21283
1.30328
1.30935
1.27715
1.22097
1.12024
1.01579
0.9745
0.954597
0.931877
0.908579
0.896337
0.895228
0.902003
0.916523
0.93832
0.966332
0.999271
1.03609
1.07625
1.11944
1.16663
1.21299
1.30338
1.31346
1.28158
1.24058
1.16966
1.40001
1.40001
1.40001
1.40001
1.40001
1.40001
1.40001
1.40003
1.40907
1.45813
1.4162
1.40145
1.40003
1.40001
1.40001
1.40001
1.40001
1.40001
1.40001
1.40001
1.40001
1.40001
1.40001
1.40001
1.40001
1.40001
1.40001
1.40001
1.40001
1.40003
1.40907
1.51759
1.46851
1.42077
1.4019
1.40003
1.40001
1.40001
1.40001
1.40001
1.40001
1.40001
1.40001
1.40001
1.40001
1.40001
1.40001
1.40001
1.40001
1.40001
1.40001
1.40003
1.40907
1.54797
1.5188
1.47176
1.42207
1.40189
1.40003
1.40001
1.40001
1.40001
1.40001
1.40001
1.40001
1.40001
1.40001
1.40001
1.40001
1.40001
1.40001
1.40001
1.40001
1.40003
1.40907
1.54874
1.53444
1.5119
1.4685
1.42009
1.40147
1.40002
1.40001
1.40001
1.40001
1.40001
1.40001
1.40001
1.40001
1.40001
1.40001
1.40001
1.40001
1.40001
1.40001
1.40003
1.40907
1.55377
1.54367
1.53036
1.50569
1.46163
1.41592
1.4009
1.40001
1.40001
1.4
1.40001
1.40001
1.40001
1.40001
1.40001
1.40001
1.40001
1.40001
1.40001
1.40001
1.40003
1.40907
1.55583
1.5435
1.52924
1.51528
1.49371
1.45117
1.41083
1.40042
1.40001
1.4
1.4
1.40001
1.40001
1.40001
1.40001
1.40001
1.40001
1.40001
1.40001
1.40001
1.40003
1.40907
1.55208
1.54103
1.53076
1.5224
1.50968
1.48365
1.4395
1.4062
1.40015
1.40001
1.4
1.4
1.40001
1.40001
1.40001
1.40001
1.40001
1.40001
1.40001
1.40001
1.40003
1.40907
1.54306
1.53914
1.53246
1.52221
1.50924
1.49522
1.46926
1.42709
1.40287
1.40004
1.40001
1.4
1.4
1.40001
1.40001
1.40001
1.40001
1.40001
1.40001
1.40001
1.40003
1.40907
1.53462
1.52982
1.52491
1.51789
1.50984
1.50236
1.48729
1.45546
1.41615
1.40102
1.40001
1.4
1.4
1.40001
1.40001
1.40001
1.40001
1.40001
1.40001
1.40001
1.40003
1.40907
1.52794
1.52106
1.51505
1.51177
1.50959
1.50178
1.48944
1.47288
1.43956
1.40786
1.40027
1.40001
1.4
1.4
1.40001
1.40001
1.40001
1.40001
1.40001
1.40001
1.40003
1.40907
1.52176
1.51496
1.50917
1.50324
1.49902
1.49604
1.49168
1.48234
1.46048
1.42496
1.40296
1.40005
1.40001
1.4
1.40001
1.40001
1.40001
1.40001
1.40001
1.40001
1.40003
1.40907
1.51728
1.51057
1.50426
1.49691
1.48977
1.48905
1.4893
1.48187
1.4691
1.44436
1.41281
1.4008
1.40001
1.4
1.4
1.40001
1.40001
1.40001
1.40001
1.40001
1.40003
1.40907
1.51246
1.50523
1.49882
1.4928
1.48595
1.48017
1.47944
1.47873
1.47348
1.45815
1.42903
1.40506
1.40015
1.40001
1.4
1.40001
1.40001
1.40001
1.40001
1.40001
1.40003
1.40907
1.5074
1.50041
1.49464
1.48943
1.48243
1.47368
1.4712
1.4731
1.47163
1.46198
1.44314
1.41532
1.40141
1.40002
1.40001
1.4
1.40001
1.40001
1.40001
1.40001
1.40003
1.40907
1.5026
1.49598
1.49023
1.48477
1.47843
1.47115
1.46548
1.46511
1.46505
1.46281
1.45156
1.42839
1.40615
1.40026
1.40001
1.4
1.40001
1.40001
1.40001
1.40001
1.40003
1.40907
1.49807
1.49151
1.48554
1.4804
1.47558
1.46892
1.46078
1.45835
1.45966
1.45976
1.45335
1.43832
1.41498
1.4017
1.40003
1.40001
1.40001
1.40001
1.40001
1.40001
1.40003
1.40907
1.49317
1.4867
1.48101
1.47648
1.47196
1.4655
1.458
1.45395
1.454
1.45408
1.45232
1.44335
1.42471
1.40586
1.40029
1.40001
1.40001
1.40001
1.40001
1.40001
1.40003
1.40907
1.48817
1.48226
1.4768
1.47207
1.4676
1.46249
1.45584
1.44981
1.44856
1.44924
1.44926
1.44449
1.43186
1.41262
1.40152
1.40003
1.40001
1.40001
1.40001
1.40001
1.40003
1.40907
1.48316
1.47762
1.47222
1.46743
1.46346
1.45922
1.45291
1.44648
1.44445
1.44498
1.44521
1.44339
1.43536
1.41969
1.4046
1.40024
1.40001
1.40001
1.40001
1.40001
1.40003
1.40907
1.47793
1.47275
1.46775
1.46323
1.45939
1.45537
1.44998
1.4437
1.44048
1.44064
1.44113
1.44065
1.43615
1.42504
1.40937
1.40106
1.40002
1.40001
1.40001
1.40001
1.40003
1.40907
1.47252
1.46768
1.46324
1.45907
1.45521
1.45148
1.44698
1.44084
1.43663
1.43662
1.4374
1.43756
1.43555
1.42797
1.41448
1.40303
1.40014
1.40001
1.40001
1.40001
1.40003
1.40907
1.46701
1.46254
1.45854
1.45468
1.45104
1.44772
1.44376
1.43804
1.43307
1.43269
1.43374
1.43425
1.43344
1.42878
1.41863
1.40616
1.40059
1.40001
1.40001
1.40001
1.40003
1.40907
1.46158
1.45717
1.45342
1.45006
1.44698
1.44399
1.44048
1.43537
1.42983
1.42871
1.43007
1.43098
1.43093
1.42852
1.42123
1.40975
1.40168
1.40006
1.40001
1.40001
1.40003
1.40907
1.45606
1.45174
1.44827
1.44534
1.44265
1.44004
1.43712
1.43273
1.42688
1.42467
1.42624
1.42773
1.4282
1.42713
1.42226
1.41295
1.40353
1.40026
1.40001
1.40001
1.40003
1.40907
1.4507
1.44646
1.44303
1.4403
1.43802
1.43601
1.43375
1.43005
1.42425
1.42084
1.42227
1.42443
1.42541
1.42514
1.42227
1.41526
1.40589
1.40076
1.40002
1.40001
1.40003
1.40907
1.44541
1.44131
1.43786
1.43519
1.43321
1.43167
1.42998
1.42709
1.42182
1.41734
1.41826
1.42085
1.42258
1.4229
1.4215
1.41648
1.40824
1.40172
1.40009
1.40001
1.40003
1.40907
1.44021
1.43632
1.43281
1.43008
1.42824
1.42708
1.42604
1.42403
1.41949
1.41426
1.41429
1.41694
1.41967
1.42055
1.42003
1.41675
1.41017
1.40309
1.40028
1.40001
1.40003
1.40907
1.43492
1.43141
1.42807
1.42525
1.42332
1.42235
1.42178
1.42051
1.4169
1.41148
1.41052
1.41295
1.41642
1.41816
1.41826
1.41646
1.41145
1.40465
1.40068
1.40002
1.40003
1.40907
1.42961
1.4266
1.42348
1.42055
1.41844
1.41753
1.41737
1.4168
1.41417
1.40908
1.40693
1.40898
1.41268
1.41568
1.41633
1.41551
1.41198
1.40612
1.40135
1.40008
1.40003
1.40907
1.42415
1.42163
1.41894
1.41619
1.41393
1.41284
1.41284
1.41278
1.41105
1.40662
1.40357
1.40519
1.40868
1.41286
1.41435
1.41419
1.41199
1.40726
1.40223
1.40021
1.40003
1.40907
1.41853
1.41653
1.41437
1.41192
1.40956
1.40821
1.40827
1.40865
1.40776
1.40425
1.40059
1.4015
1.40463
1.40942
1.41232
1.41269
1.41153
1.40796
1.4032
1.40047
1.40004
1.40908
1.41279
1.41118
1.4096
1.40769
1.40553
1.40392
1.40381
1.40443
1.40417
1.40156
1.39774
1.39798
1.40075
1.40551
1.41001
1.41109
1.41064
1.40817
1.40407
1.40087
1.40007
1.40908
1.407
1.40571
1.40466
1.40332
1.4015
1.39976
1.39941
1.40018
1.40047
1.39879
1.39523
1.39461
1.39701
1.4014
1.40707
1.40946
1.40955
1.40807
1.40474
1.40138
1.40013
1.40909
1.4013
1.4001
1.39942
1.39871
1.39747
1.39586
1.39523
1.39599
1.39666
1.3957
1.39258
1.3914
1.39349
1.3974
1.40344
1.40769
1.40831
1.40759
1.40511
1.40194
1.40023
1.40912
1.39577
1.39459
1.39412
1.39392
1.39328
1.39196
1.39115
1.39185
1.39282
1.39252
1.39005
1.3884
1.39009
1.39357
1.3994
1.40539
1.40706
1.40687
1.40519
1.40245
1.40039
1.40916
1.39045
1.38923
1.38877
1.38889
1.38886
1.38803
1.38723
1.38782
1.38899
1.38916
1.38729
1.38548
1.38685
1.38998
1.39532
1.40232
1.40575
1.406
1.40504
1.40283
1.4006
1.40923
1.3854
1.38422
1.38366
1.3839
1.38432
1.38401
1.38335
1.38385
1.38515
1.38575
1.3845
1.38268
1.38369
1.38655
1.39137
1.3986
1.40414
1.40506
1.40464
1.40302
1.40082
1.40932
1.3803
1.37938
1.37875
1.37895
1.37963
1.3798
1.37945
1.37997
1.38138
1.38229
1.38155
1.37989
1.38065
1.3833
1.38766
1.3946
1.40183
1.40413
1.4041
1.40305
1.40105
1.40941
1.37528
1.37479
1.3742
1.37423
1.37498
1.37551
1.37552
1.37611
1.3776
1.37878
1.37851
1.37708
1.37764
1.38015
1.38415
1.39059
1.39874
1.40308
1.40345
1.40291
1.40124
1.40949
1.36991
1.36999
1.36974
1.36978
1.37048
1.37122
1.37153
1.37227
1.37389
1.37532
1.37542
1.37427
1.3747
1.37709
1.38084
1.38676
1.39511
1.40159
1.40281
1.40262
1.40135
1.40957
1.36434
1.36514
1.3654
1.3655
1.36606
1.36687
1.36745
1.36838
1.37013
1.37178
1.37223
1.37136
1.37175
1.37408
1.37766
1.38314
1.39125
1.39938
1.40216
1.40223
1.40137
1.40964
1.35856
1.35987
1.36075
1.36131
1.362
1.36284
1.36353
1.36458
1.36647
1.36833
1.36905
1.36845
1.36882
1.37109
1.37457
1.37973
1.38741
1.39648
1.40133
1.4018
1.40131
1.40969
1.35244
1.35435
1.35596
1.35704
1.35785
1.35865
1.35942
1.36064
1.3627
1.36479
1.3658
1.36545
1.36586
1.36812
1.37154
1.37647
1.38371
1.3931
1.40003
1.40139
1.40116
1.4097
1.34684
1.34883
1.35087
1.35253
1.35381
1.35485
1.35571
1.35694
1.35908
1.36133
1.36256
1.36246
1.36291
1.36515
1.36854
1.37332
1.3802
1.38952
1.39811
1.40097
1.40097
1.4097
1.34089
1.34301
1.34556
1.34786
1.34959
1.35082
1.35173
1.35303
1.35533
1.35781
1.35928
1.35941
1.35994
1.36217
1.36556
1.37024
1.37684
1.38592
1.39559
1.4004
1.40074
1.40963
1.3358
1.33789
1.34047
1.34307
1.34525
1.34687
1.34799
1.34934
1.3517
1.35433
1.35601
1.35635
1.35696
1.35919
1.36258
1.36721
1.37361
1.3824
1.39264
1.39943
1.4005
1.40959
1.33035
1.33242
1.33511
1.33813
1.34081
1.3428
1.34412
1.34554
1.34801
1.35083
1.35272
1.35327
1.35396
1.3562
1.3596
1.3642
1.37046
1.37899
1.38946
1.39798
1.40018
1.40957
1.32493
1.3275
1.33029
1.33339
1.33632
1.33866
1.34023
1.34178
1.34435
1.34733
1.34942
1.35016
1.35095
1.3532
1.35662
1.3612
1.36737
1.37569
1.38619
1.39605
1.3997
1.40954
1.31948
1.32227
1.32513
1.32844
1.33179
1.33454
1.33639
1.33804
1.34072
1.34385
1.34611
1.34704
1.34793
1.3502
1.35363
1.35821
1.36431
1.37247
1.38291
1.39374
1.39898
1.40949
1.31345
1.31689
1.32016
1.3237
1.32728
1.33029
1.33237
1.33419
1.33703
1.34035
1.3428
1.34391
1.34489
1.34719
1.35064
1.35523
1.36128
1.36932
1.37966
1.39116
1.39797
1.4094
1.30777
1.31155
1.31503
1.31878
1.32271
1.32611
1.32851
1.3305
1.33343
1.33688
1.33949
1.34076
1.34184
1.34417
1.34764
1.35224
1.35827
1.36621
1.37646
1.38838
1.39666
1.40923
1.30196
1.30599
1.30976
1.3138
1.31804
1.32177
1.32444
1.32661
1.32974
1.33337
1.33616
1.33759
1.33877
1.34113
1.34464
1.34925
1.35527
1.36314
1.37329
1.3855
1.39506
1.40897
1.29639
1.30076
1.30476
1.309
1.31352
1.31756
1.32048
1.32284
1.32611
1.3299
1.33283
1.33441
1.33569
1.33809
1.34162
1.34625
1.35227
1.36009
1.37016
1.38254
1.39319
1.40859
1.29159
1.29579
1.29967
1.30396
1.30876
1.31316
1.3164
1.31899
1.32243
1.32639
1.32949
1.33121
1.3326
1.33503
1.33859
1.34325
1.34927
1.35706
1.36707
1.37954
1.3911
1.40807
1.28663
1.29099
1.29507
1.29949
1.30437
1.3089
1.31231
1.3151
1.31875
1.3229
1.32615
1.32801
1.32949
1.33197
1.33555
1.34024
1.34627
1.35405
1.364
1.37654
1.38881
1.40741
1.28209
1.2866
1.29055
1.29479
1.29977
1.30459
1.30828
1.31127
1.31508
1.31938
1.32279
1.32479
1.32637
1.32889
1.3325
1.33722
1.34327
1.35104
1.36096
1.37352
1.38638
1.4066
1.27746
1.2822
1.28622
1.29046
1.29544
1.30032
1.30414
1.30733
1.31138
1.31588
1.31944
1.32156
1.32323
1.32579
1.32944
1.33418
1.34026
1.34804
1.35794
1.37052
1.38382
1.40564
1.27279
1.27799
1.28211
1.28621
1.29118
1.29617
1.30012
1.30345
1.30766
1.31234
1.31605
1.31831
1.32008
1.32268
1.32636
1.33113
1.33724
1.34503
1.35492
1.36752
1.38118
1.40454
1.2683
1.27371
1.27788
1.28197
1.28693
1.29199
1.29605
1.29955
1.30397
1.30883
1.31268
1.31505
1.31691
1.31956
1.32326
1.32807
1.33421
1.34202
1.35192
1.36454
1.37847
1.4033
1.26355
1.26959
1.27412
1.27815
1.28295
1.28794
1.29202
1.29563
1.30022
1.30528
1.30928
1.31178
1.31373
1.31642
1.32015
1.32499
1.33117
1.33901
1.34892
1.36156
1.37571
1.40194
1.25933
1.26552
1.27001
1.27403
1.27889
1.28396
1.28808
1.29177
1.29652
1.30174
1.30588
1.30849
1.31053
1.31326
1.31702
1.3219
1.32811
1.33599
1.34593
1.3586
1.37291
1.40047
1.25471
1.26144
1.26646
1.27056
1.27518
1.28003
1.28409
1.28786
1.29278
1.29818
1.30247
1.30519
1.30732
1.31009
1.31388
1.31879
1.32504
1.33296
1.34293
1.35564
1.3701
1.3989
1.25062
1.25764
1.26276
1.2668
1.27139
1.27625
1.28026
1.28404
1.28908
1.29462
1.29905
1.30188
1.30408
1.30689
1.31071
1.31565
1.32195
1.32992
1.33993
1.35269
1.36726
1.39724
1.24624
1.25348
1.25899
1.26329
1.26782
1.2725
1.2764
1.2802
1.28536
1.29106
1.29562
1.29856
1.30084
1.30368
1.30752
1.3125
1.31884
1.32686
1.33693
1.34975
1.36441
1.39549
1.2418
1.24966
1.25552
1.25988
1.26432
1.26888
1.27265
1.27642
1.28167
1.2875
1.29218
1.29522
1.29757
1.30046
1.30432
1.30933
1.31571
1.32379
1.33391
1.3468
1.36156
1.39368
1.23767
1.2456
1.25165
1.25627
1.26082
1.2653
1.26893
1.27266
1.27799
1.28394
1.28874
1.29187
1.29429
1.29721
1.30109
1.30613
1.31256
1.3207
1.33089
1.34386
1.35871
1.39181
1.23303
1.24149
1.24806
1.25296
1.2575
1.26181
1.26528
1.26895
1.27433
1.28038
1.28529
1.28851
1.291
1.29394
1.29784
1.30291
1.30939
1.31759
1.32785
1.34092
1.35585
1.38988
1.22867
1.23748
1.24429
1.24943
1.25409
1.25835
1.26167
1.26527
1.27069
1.27683
1.28183
1.28514
1.28768
1.29065
1.29457
1.29967
1.30619
1.31445
1.3248
1.33797
1.353
1.38791
1.22411
1.23317
1.24041
1.24595
1.25078
1.25496
1.25812
1.26163
1.26707
1.27328
1.27837
1.28176
1.28435
1.28734
1.29127
1.2964
1.30297
1.3113
1.32174
1.33502
1.35014
1.38591
1.21925
1.22886
1.23657
1.24246
1.24745
1.25159
1.2546
1.25802
1.26347
1.26973
1.2749
1.27836
1.281
1.284
1.28795
1.2931
1.29972
1.30812
1.31865
1.33206
1.34729
1.38387
1.21475
1.22455
1.23257
1.23885
1.24409
1.24824
1.25112
1.25445
1.25989
1.26619
1.27143
1.27495
1.27763
1.28065
1.2846
1.28978
1.29644
1.30492
1.31555
1.32909
1.34443
1.3818
1.20983
1.21996
1.22848
1.23523
1.24075
1.24491
1.24766
1.2509
1.25632
1.26266
1.26795
1.27153
1.27425
1.27727
1.28123
1.28643
1.29314
1.30169
1.31242
1.32611
1.34157
1.37971
1.2051
1.21557
1.22443
1.23157
1.23735
1.24157
1.24422
1.24737
1.25277
1.25913
1.26447
1.2681
1.27084
1.27387
1.27783
1.28305
1.2898
1.29844
1.30928
1.32311
1.33871
1.37761
1.20072
1.21109
1.22022
1.22781
1.23394
1.23823
1.24079
1.24385
1.24924
1.25561
1.26099
1.26465
1.26742
1.27044
1.2744
1.27964
1.28644
1.29515
1.30611
1.3201
1.33585
1.37549
1.19603
1.20657
1.21603
1.22406
1.2305
1.23487
1.23735
1.24035
1.24572
1.2521
1.2575
1.26119
1.26397
1.26699
1.27095
1.2762
1.28305
1.29184
1.30291
1.31708
1.33298
1.37336
1.19196
1.20233
1.21188
1.22028
1.22702
1.23149
1.23393
1.23687
1.24221
1.24858
1.25401
1.25772
1.2605
1.26351
1.26746
1.27273
1.27962
1.28849
1.29969
1.31404
1.33012
1.37122
1.18798
1.19809
1.2077
1.21645
1.22352
1.2281
1.2305
1.23339
1.23871
1.24507
1.2505
1.25423
1.25701
1.26
1.26394
1.26923
1.27616
1.28512
1.29644
1.31098
1.32724
1.36907
1.18409
1.19399
1.20359
1.21264
1.22001
1.2247
1.22707
1.22991
1.23521
1.24156
1.247
1.25073
1.2535
1.25647
1.26039
1.26569
1.27266
1.28171
1.29317
1.3079
1.32436
1.36692
1.18058
1.19008
1.19956
1.20885
1.2165
1.22129
1.22363
1.22643
1.2317
1.23804
1.24348
1.24721
1.24996
1.2529
1.25681
1.26211
1.26913
1.27827
1.28986
1.30481
1.32147
1.36477
1.17713
1.1863
1.19561
1.20507
1.21297
1.21785
1.22017
1.22294
1.2282
1.23452
1.23995
1.24367
1.2464
1.24931
1.25319
1.2585
1.26556
1.27479
1.28653
1.30169
1.31858
1.36261
1.17393
1.18267
1.19174
1.20133
1.20944
1.21441
1.2167
1.21945
1.22469
1.231
1.23641
1.24011
1.2428
1.24567
1.24954
1.25485
1.26196
1.27127
1.28317
1.29855
1.31568
1.36046
1.17084
1.17912
1.18795
1.19763
1.20593
1.21094
1.21321
1.21595
1.22118
1.22747
1.23286
1.23653
1.23918
1.24201
1.24584
1.25116
1.25831
1.26773
1.27977
1.29539
1.31277
1.35832
1.16772
1.17568
1.18428
1.19399
1.20242
1.20747
1.20971
1.21244
1.21765
1.22393
1.22929
1.23292
1.23553
1.23831
1.24211
1.24743
1.25463
1.26414
1.27634
1.29221
1.30985
1.35617
1.16477
1.17238
1.18069
1.19038
1.1989
1.20398
1.20619
1.20892
1.21412
1.22038
1.22571
1.22929
1.23185
1.23457
1.23834
1.24366
1.2509
1.26051
1.27288
1.289
1.30693
1.35404
1.16188
1.16912
1.17713
1.18681
1.19541
1.20049
1.20266
1.20538
1.21058
1.21682
1.22211
1.22564
1.22813
1.23079
1.23453
1.23985
1.24713
1.25685
1.26939
1.28577
1.30399
1.35191
1.15892
1.16585
1.17363
1.18329
1.19194
1.19699
1.19911
1.20182
1.20702
1.21324
1.21849
1.22195
1.22437
1.22697
1.23067
1.23599
1.24332
1.25314
1.26587
1.28252
1.30105
1.3498
1.15589
1.16262
1.17022
1.17984
1.18848
1.19347
1.19553
1.19825
1.20345
1.20964
1.21484
1.21824
1.22058
1.22311
1.22676
1.23208
1.23946
1.2494
1.26231
1.27925
1.29811
1.34769
1.15291
1.15948
1.16687
1.17642
1.18501
1.18993
1.19194
1.19466
1.19986
1.20603
1.21117
1.21449
1.21674
1.2192
1.22281
1.22813
1.23556
1.24561
1.25872
1.27596
1.29515
1.3456
1.14996
1.15634
1.16353
1.17301
1.18155
1.18637
1.18832
1.19105
1.19625
1.2024
1.20748
1.2107
1.21286
1.21524
1.2188
1.22412
1.23161
1.24179
1.25509
1.27264
1.2922
1.34353
1.14692
1.15312
1.16018
1.16963
1.1781
1.18281
1.18469
1.18742
1.19262
1.19875
1.20375
1.20688
1.20893
1.21123
1.21474
1.22006
1.22761
1.23792
1.25144
1.2693
1.28923
1.34147
1.14376
1.14987
1.15688
1.1663
1.17466
1.17923
1.18102
1.18377
1.18898
1.19507
1.2
1.20301
1.20496
1.20716
1.21063
1.21595
1.22357
1.234
1.24775
1.26595
1.28627
1.33943
1.14057
1.14665
1.15363
1.16299
1.17121
1.17561
1.17732
1.18009
1.18531
1.19138
1.19621
1.1991
1.20093
1.20304
1.20646
1.21179
1.21947
1.23005
1.24402
1.26257
1.2833
1.33742
1.13739
1.14342
1.15038
1.15968
1.16774
1.17196
1.17359
1.17638
1.18162
1.18765
1.19239
1.19515
1.19684
1.19886
1.20223
1.20757
1.21532
1.22605
1.24027
1.25918
1.28034
1.33543
)
;

boundaryField
{
    inlet
    {
        type            calculated;
        value           nonuniform 0();
    }
    outlet
    {
        type            calculated;
        value           nonuniform List<scalar> 
147
(
1.33313
1.33155
1.32999
1.32845
1.32693
1.32544
1.32398
1.32255
1.32114
1.31977
1.31844
1.31714
1.31588
1.31466
1.31349
1.31236
1.31127
1.31024
1.30925
1.30831
1.30743
1.30661
1.30584
1.30512
1.30446
1.30386
1.30332
1.30284
1.30241
1.30204
1.30172
1.30146
1.30124
1.30108
1.30096
1.30089
1.30086
1.30086
1.30089
1.30095
1.30103
1.30113
1.30125
1.30138
1.30152
1.30166
1.3018
1.30195
1.30208
1.30221
1.30234
1.30245
1.30255
1.40907
1.40907
1.40907
1.40907
1.40907
1.40907
1.40907
1.40907
1.40907
1.40907
1.40907
1.40907
1.40907
1.40907
1.40907
1.40907
1.40907
1.40907
1.40907
1.40907
1.40907
1.40907
1.40907
1.40907
1.40907
1.40907
1.40907
1.40907
1.40907
1.40907
1.40907
1.40907
1.40907
1.40909
1.40911
1.40916
1.40924
1.40932
1.40941
1.40949
1.40958
1.40965
1.40969
1.4097
1.4097
1.40962
1.40958
1.40956
1.40954
1.40948
1.40939
1.40921
1.40894
1.40854
1.40801
1.40733
1.4065
1.40553
1.40441
1.40315
1.40178
1.40029
1.3987
1.39702
1.39526
1.39344
1.39155
1.38961
1.38763
1.38561
1.38357
1.38149
1.37939
1.37728
1.37515
1.37301
1.37086
1.36871
1.36655
1.36439
1.36223
1.36007
1.35791
1.35576
1.35362
1.35148
1.34936
1.34725
1.34515
1.34306
1.341
1.33895
1.33692
1.33492
)
;
    }
    triangle
    {
        type            calculated;
        value           nonuniform 0();
    }
    top
    {
        type            symmetryPlane;
    }
    bottom
    {
        type            symmetryPlane;
    }
    defaultFaces
    {
        type            empty;
    }
    procBoundary15to6
    {
        type            processor;
        value           nonuniform List<scalar> 6(1.50934 1.54901 1.56518 1.56354 1.56402 1.56649);
    }
    procBoundary15to7
    {
        type            processor;
        value           nonuniform List<scalar> 
23
(
1.40001
1.40001
1.40001
1.40001
1.40001
1.40001
1.40001
1.40003
1.40907
1.40975
1.40079
1.40002
1.40001
1.40001
1.40001
1.40001
1.40001
1.40001
1.40001
1.40001
1.40001
1.40001
1.40001
)
;
    }
    procBoundary15to14
    {
        type            processor;
        value           nonuniform List<scalar> 
141
(
1.12418
1.12155
1.11892
1.11625
1.11357
1.11095
1.10842
1.10591
1.10335
1.10077
1.09821
1.09564
1.09295
1.09021
1.08759
1.08513
1.08259
1.07974
1.07661
1.07351
1.07064
1.06787
1.06492
1.06162
1.05812
1.05461
1.05117
1.0477
1.04407
1.04024
1.03629
1.03227
1.02823
1.02419
1.02019
1.01628
1.01245
1.00867
1.00492
1.00122
0.997612
0.993925
0.989392
0.982993
0.977225
0.977886
1.04927
1.1989
1.28405
1.31172
1.32358
1.32976
1.33463
1.33909
1.5595
1.54836
1.54078
1.53577
1.5301
1.52495
1.52019
1.51512
1.50992
1.50489
1.49982
1.49438
1.48898
1.48347
1.47795
1.47226
1.46672
1.46111
1.45552
1.44991
1.44428
1.43856
1.43272
1.42684
1.42083
1.41487
1.40893
1.40318
1.39758
1.39206
1.38667
1.38107
1.37541
1.36945
1.36325
1.3572
1.35085
1.34529
1.33942
1.33387
1.32826
1.32204
1.31621
1.30964
1.30343
1.29766
1.29182
1.28703
1.28183
1.2768
1.2717
1.26643
1.26149
1.25622
1.25159
1.24668
1.24213
1.23772
1.23276
1.22845
1.22362
1.21868
1.21411
1.2088
1.20405
1.19917
1.19395
1.18991
1.18523
1.1812
1.17761
1.17377
1.17063
1.16734
1.16428
1.16148
1.15843
1.15546
1.15259
1.14961
1.1465
1.14334
1.14023
1.13708
1.13382
1.13047
1.12715
)
;
    }
    procBoundary15to23
    {
        type            processor;
        value           nonuniform List<scalar> 
23
(
1.06409
0.990795
0.955956
0.924069
0.897251
0.885693
0.885991
0.894655
0.911202
0.93476
0.964117
0.997996
1.03545
1.07604
1.11946
1.16677
1.21314
1.30347
1.31614
1.28621
1.25177
1.06409
1.19828
)
;
    }
}

