/*--------------------------------*- C++ -*----------------------------------*\
  =========                 |
  \\      /  F ield         | OpenFOAM: The Open Source CFD Toolbox
   \\    /   O peration     | Website:  https://openfoam.org
    \\  /    A nd           | Version:  7
     \\/     M anipulation  |
\*---------------------------------------------------------------------------*/
FoamFile
{
    version     2.0;
    format      ascii;
    class       volScalarField;
    location    "0.1";
    object      T;
}
// * * * * * * * * * * * * * * * * * * * * * * * * * * * * * * * * * * * * * //

dimensions      [0 0 0 1 0 0 0];

internalField   nonuniform List<scalar> 
3225
(
0.918527
0.920331
0.922885
0.926221
0.928864
0.930144
0.930635
0.931541
0.933233
0.935151
0.936629
0.937473
0.93798
0.938596
0.939654
0.94134
0.943793
0.947184
0.951655
0.957582
0.964099
0.980784
0.917627
0.919423
0.922
0.925345
0.927952
0.929185
0.929657
0.930575
0.932273
0.934181
0.935631
0.936438
0.93691
0.937501
0.938548
0.940241
0.94272
0.946159
0.950705
0.956738
0.963374
0.980329
0.916704
0.9185
0.921116
0.924471
0.927036
0.928218
0.928671
0.929601
0.931306
0.933202
0.934622
0.935391
0.935825
0.93639
0.937427
0.939128
0.941634
0.945124
0.949747
0.955891
0.96265
0.979881
0.915759
0.917571
0.920237
0.923599
0.926115
0.927241
0.927675
0.928619
0.930331
0.932214
0.933601
0.934329
0.934724
0.935262
0.936289
0.937999
0.940535
0.944078
0.948782
0.95504
0.961928
0.97944
0.914809
0.916649
0.919364
0.922726
0.925187
0.926254
0.926669
0.927629
0.929348
0.931217
0.932569
0.933253
0.933606
0.934116
0.935134
0.936854
0.939423
0.943022
0.94781
0.954186
0.961207
0.979006
0.913869
0.915731
0.918489
0.921848
0.924251
0.925257
0.925653
0.926629
0.928357
0.930209
0.931523
0.932161
0.932471
0.932953
0.933962
0.935694
0.938297
0.941956
0.946832
0.953331
0.960488
0.97858
0.912931
0.914803
0.917609
0.920965
0.923307
0.924249
0.924627
0.925621
0.927357
0.92919
0.930464
0.931053
0.931318
0.931771
0.932772
0.934517
0.937157
0.94088
0.945848
0.952474
0.959773
0.978161
0.911972
0.91386
0.916725
0.92008
0.922356
0.92323
0.92359
0.924603
0.926349
0.928161
0.929389
0.929926
0.930145
0.930569
0.931563
0.933324
0.936004
0.939793
0.944858
0.951616
0.95906
0.977752
0.91099
0.912909
0.915843
0.919195
0.921398
0.922199
0.922542
0.923576
0.925332
0.92712
0.928297
0.92878
0.928952
0.929347
0.930336
0.932115
0.934838
0.938697
0.943863
0.950758
0.958353
0.977351
0.910002
0.911961
0.914968
0.91831
0.92043
0.921154
0.921482
0.92254
0.924307
0.926068
0.927188
0.927613
0.927735
0.928103
0.929088
0.930888
0.933657
0.937591
0.942863
0.9499
0.95765
0.97696
0.90901
0.911015
0.9141
0.917422
0.919448
0.920093
0.920411
0.921496
0.923275
0.925005
0.926062
0.926423
0.926495
0.926836
0.92782
0.929643
0.932463
0.936476
0.941859
0.949044
0.956954
0.97658
0.908002
0.910074
0.913239
0.916526
0.91845
0.919017
0.919329
0.920443
0.922234
0.92393
0.924919
0.925211
0.925232
0.925545
0.92653
0.928381
0.931254
0.935352
0.940852
0.94819
0.956264
0.976211
0.906986
0.909148
0.91238
0.915618
0.917433
0.917924
0.918235
0.919381
0.921183
0.922841
0.923758
0.923978
0.923944
0.924229
0.925218
0.927099
0.930032
0.934219
0.939842
0.947338
0.955582
0.975853
0.905994
0.908236
0.911516
0.914696
0.9164
0.916818
0.917129
0.918308
0.92012
0.921735
0.922576
0.92272
0.922632
0.922889
0.923884
0.925799
0.928795
0.933079
0.93883
0.946491
0.954909
0.975507
0.905033
0.907318
0.910641
0.913761
0.915352
0.915696
0.91601
0.917225
0.919046
0.92061
0.921372
0.921436
0.921293
0.921526
0.922527
0.92448
0.927545
0.93193
0.937817
0.945649
0.954246
0.975173
0.904063
0.906374
0.909758
0.912816
0.914289
0.914558
0.914878
0.916131
0.917958
0.919466
0.920145
0.920126
0.919925
0.920135
0.921146
0.923141
0.926281
0.930774
0.936804
0.944813
0.953594
0.974853
0.903031
0.905414
0.908877
0.911859
0.913207
0.913401
0.913731
0.915026
0.916855
0.918302
0.918893
0.918787
0.918527
0.918717
0.919742
0.921783
0.925003
0.929613
0.935792
0.943985
0.952955
0.974546
0.901944
0.904465
0.907998
0.910884
0.912102
0.912224
0.912571
0.91391
0.915737
0.917117
0.917614
0.917417
0.917097
0.91727
0.918312
0.920406
0.923713
0.928445
0.934782
0.943165
0.952328
0.974254
0.900871
0.903547
0.907112
0.909881
0.910969
0.911026
0.911398
0.912783
0.914603
0.915909
0.916306
0.916014
0.915635
0.915793
0.916858
0.919009
0.92241
0.927273
0.933775
0.942356
0.951716
0.973976
0.899858
0.902642
0.906203
0.908846
0.909806
0.90981
0.910215
0.911644
0.913451
0.914678
0.914968
0.914577
0.914139
0.914286
0.915378
0.917593
0.921096
0.926098
0.932774
0.941558
0.95112
0.973713
0.898879
0.901719
0.905264
0.907779
0.908618
0.908577
0.909023
0.910493
0.91228
0.913421
0.913597
0.913103
0.912607
0.912746
0.913871
0.916157
0.91977
0.924921
0.931778
0.940773
0.950541
0.973466
0.897866
0.900761
0.904298
0.906685
0.907408
0.907325
0.907815
0.909328
0.911087
0.912136
0.91219
0.911591
0.911038
0.911174
0.912338
0.914703
0.918434
0.923743
0.930791
0.940003
0.949981
0.973234
0.896787
0.899783
0.903316
0.905566
0.906174
0.906053
0.906593
0.908148
0.909871
0.910821
0.910748
0.910037
0.90943
0.909569
0.910779
0.91323
0.917089
0.922565
0.929813
0.93925
0.949439
0.973018
0.895671
0.898809
0.90232
0.904421
0.904911
0.90476
0.905356
0.906953
0.908632
0.909473
0.909266
0.908441
0.907783
0.90793
0.909193
0.911739
0.915735
0.92139
0.928847
0.938514
0.948919
0.972819
0.894573
0.897847
0.901304
0.903244
0.903617
0.903445
0.904104
0.905741
0.907367
0.90809
0.907741
0.9068
0.906095
0.906256
0.90758
0.91023
0.914376
0.920219
0.927895
0.937798
0.948421
0.972636
0.893516
0.896889
0.900256
0.902031
0.902291
0.902107
0.902837
0.904512
0.906075
0.906669
0.906172
0.905112
0.904364
0.904547
0.905941
0.908706
0.913011
0.919054
0.926958
0.937104
0.947945
0.972469
0.892481
0.895914
0.899167
0.900781
0.900932
0.900748
0.901556
0.903264
0.904755
0.905209
0.904554
0.903375
0.902589
0.902802
0.904275
0.907166
0.911643
0.917898
0.926038
0.936432
0.947494
0.972319
0.891436
0.894907
0.898036
0.899496
0.899543
0.899368
0.900261
0.901996
0.903403
0.903705
0.902884
0.901586
0.900769
0.901021
0.902584
0.905613
0.910274
0.916753
0.925139
0.935786
0.947069
0.972185
0.890365
0.893866
0.896867
0.898179
0.898121
0.89797
0.898954
0.900707
0.902019
0.902155
0.90116
0.899743
0.898904
0.899205
0.900868
0.904047
0.908907
0.915622
0.924263
0.935166
0.946669
0.972068
0.889274
0.892792
0.895663
0.896828
0.896666
0.896554
0.897634
0.899394
0.900599
0.900556
0.899377
0.897844
0.896992
0.897352
0.899129
0.902472
0.907544
0.914507
0.923411
0.934574
0.946297
0.971966
0.88817
0.891691
0.894428
0.895439
0.895179
0.895123
0.896303
0.898055
0.899138
0.898906
0.89753
0.895886
0.895033
0.895464
0.897367
0.900889
0.906188
0.913411
0.922587
0.934012
0.945952
0.97188
0.887053
0.890561
0.893159
0.894011
0.893662
0.893677
0.89496
0.89669
0.897633
0.897199
0.895618
0.893869
0.893026
0.893542
0.895585
0.899302
0.904843
0.912339
0.921792
0.933482
0.945635
0.971808
0.885916
0.889398
0.891854
0.89254
0.892115
0.892221
0.893603
0.895296
0.89608
0.895429
0.893636
0.891789
0.890972
0.891585
0.893785
0.897712
0.903512
0.911292
0.92103
0.932984
0.945347
0.971751
0.884747
0.888201
0.890511
0.891026
0.890543
0.890756
0.892232
0.89387
0.894476
0.893592
0.891579
0.889646
0.888869
0.889595
0.891968
0.896125
0.902199
0.910275
0.920303
0.932519
0.945087
0.971708
0.883543
0.88697
0.88913
0.889469
0.888949
0.889284
0.890845
0.89241
0.892816
0.891682
0.889443
0.887438
0.88672
0.887575
0.890139
0.894543
0.900908
0.909292
0.919612
0.932089
0.944855
0.971677
0.882304
0.885709
0.887712
0.887873
0.887338
0.887807
0.889439
0.890913
0.891096
0.889692
0.887224
0.885165
0.884524
0.885526
0.8883
0.892972
0.899644
0.908344
0.918961
0.931695
0.944652
0.971659
0.881038
0.884422
0.886256
0.886239
0.885709
0.886325
0.888012
0.889373
0.889311
0.887613
0.884918
0.882827
0.882283
0.883452
0.886457
0.891417
0.898412
0.907438
0.918351
0.931336
0.944476
0.971653
0.879756
0.883112
0.88475
0.884563
0.884062
0.884834
0.886558
0.88778
0.887455
0.885438
0.882521
0.880423
0.879998
0.881355
0.884614
0.889882
0.897216
0.906575
0.917784
0.931014
0.944327
0.971655
0.878467
0.881771
0.883184
0.882834
0.882391
0.883326
0.885069
0.886124
0.885513
0.883157
0.88003
0.877955
0.877672
0.87924
0.882776
0.888375
0.896062
0.905759
0.917261
0.930727
0.944203
0.971666
0.877188
0.880393
0.881547
0.881045
0.880691
0.881792
0.883532
0.88439
0.883469
0.880757
0.87744
0.875421
0.875306
0.877113
0.880951
0.886902
0.894955
0.904993
0.916784
0.930476
0.944105
0.971684
0.875941
0.878982
0.879841
0.879199
0.878962
0.880224
0.881932
0.882562
0.881304
0.87822
0.874745
0.872821
0.872903
0.874977
0.879145
0.88547
0.893901
0.904281
0.916353
0.93026
0.944029
0.97171
0.874714
0.877545
0.878085
0.87732
0.877218
0.878624
0.880264
0.880627
0.878999
0.87553
0.871939
0.870153
0.870466
0.872837
0.877364
0.884086
0.892905
0.903625
0.915968
0.930077
0.943975
0.97174
0.873353
0.876033
0.876284
0.875433
0.875486
0.877002
0.878533
0.878581
0.876539
0.872675
0.869019
0.867418
0.867995
0.870699
0.875618
0.882757
0.89197
0.903026
0.91563
0.929927
0.94394
0.971775
0.871452
0.874231
0.874357
0.87353
0.873786
0.875374
0.876743
0.876436
0.873916
0.869652
0.865988
0.864617
0.865492
0.868568
0.873914
0.881489
0.891102
0.902485
0.915337
0.929808
0.943925
0.971813
0.868705
0.871699
0.872056
0.871496
0.87208
0.873743
0.874899
0.874185
0.871132
0.866468
0.862857
0.861756
0.862964
0.866453
0.872258
0.880289
0.890302
0.902005
0.915089
0.929718
0.943923
0.971853
0.866559
0.868408
0.869028
0.869073
0.870251
0.872059
0.872976
0.871815
0.868175
0.86313
0.859642
0.858846
0.860421
0.864362
0.870659
0.879161
0.889573
0.901582
0.914883
0.929654
0.943934
0.971894
0.867886
0.866272
0.865488
0.866041
0.868067
0.870201
0.870915
0.869287
0.86502
0.859648
0.856359
0.855901
0.85788
0.86231
0.869126
0.878109
0.888916
0.901217
0.914717
0.929615
0.943959
0.971935
0.893816
0.867029
0.863321
0.8628
0.865334
0.868002
0.868629
0.866537
0.861628
0.856026
0.853018
0.852932
0.855359
0.860312
0.86767
0.877139
0.88833
0.900906
0.914589
0.929599
0.943993
0.971975
0.937802
0.888655
0.863534
0.86086
0.862487
0.865404
0.866036
0.863487
0.857955
0.852267
0.849629
0.84996
0.852878
0.858386
0.866301
0.876253
0.887813
0.900647
0.914494
0.929599
0.944034
0.972015
0.961959
0.927418
0.878217
0.861217
0.860809
0.862749
0.863159
0.860085
0.853965
0.848369
0.846201
0.846998
0.850454
0.856551
0.865031
0.875454
0.887364
0.900434
0.914429
0.929613
0.94408
0.972052
0.969767
0.951183
0.909479
0.869994
0.861464
0.861104
0.86029
0.856366
0.84966
0.844346
0.842738
0.844061
0.848111
0.854825
0.863869
0.874744
0.886978
0.900264
0.914391
0.929641
0.944129
0.972087
0.972536
0.960773
0.934795
0.891754
0.866726
0.861405
0.85804
0.852566
0.845131
0.84023
0.839245
0.841165
0.845872
0.853227
0.862824
0.874123
0.886653
0.900131
0.914375
0.929677
0.94418
0.97212
0.974415
0.964398
0.946767
0.914332
0.878846
0.864266
0.857227
0.849097
0.840601
0.836099
0.835738
0.838332
0.843758
0.851772
0.861903
0.87359
0.886383
0.900033
0.914369
0.929718
0.94423
0.972149
0.975346
0.965406
0.95255
0.93011
1
1
1
1
1
1
1
1.00001
1.00258
1.0166
1.00469
1.00042
1.00001
1
1
1
1
1
1
1
1
1
1
1
1
1
1
1
1
1.00001
1.00258
1.03297
1.01947
1.00599
1.00055
1.00001
1
1
1
1
1
1
1
1
1
1
1
1
1
1
1
1.00001
1.00258
1.0412
1.03328
1.02034
1.00636
1.00055
1.00001
1
1
1
1
1
1
1
1
1
1
1
1
1
1
1.00001
1.00258
1.04139
1.0375
1.03137
1.01942
1.00579
1.00042
1
1
1
1
1
1
1
1
1
1
1
1
1
1
1.00001
1.00258
1.04276
1.04001
1.0364
1.02966
1.01749
1.00459
1.00026
1
1
1
1
1
1
1
1
1
1
1
1
1
1.00001
1.00258
1.04331
1.03996
1.03608
1.03226
1.02635
1.01456
1.00312
1.00012
1
1
1
1
1
1
1
1
1
1
1
1
1.00001
1.00258
1.0423
1.0393
1.0365
1.03421
1.03073
1.02357
1.01127
1.00179
1.00004
1
1
1
1
1
1
1
1
1
1
1
1.00001
1.00258
1.03988
1.03879
1.03696
1.03416
1.0306
1.02675
1.01958
1.00776
1.00083
1.00001
1
1
1
1
1
1
1
1
1
1
1.00001
1.00258
1.0376
1.03627
1.03492
1.03299
1.03077
1.02871
1.02456
1.01573
1.00464
1.00029
1
1
1
1
1
1
1
1
1
1
1.00001
1.00258
1.0358
1.0339
1.03224
1.03132
1.03071
1.02855
1.02514
1.02056
1.01127
1.00226
1.00008
1
1
1
1
1
1
1
1
1
1.00001
1.00258
1.03412
1.03224
1.03063
1.02899
1.02781
1.02698
1.02577
1.02318
1.01712
1.00714
1.00085
1.00001
1
1
1
1
1
1
1
1
1.00001
1.00258
1.0329
1.03104
1.02929
1.02726
1.02527
1.02506
1.02512
1.02305
1.0195
1.0126
1.00368
1.00023
1
1
1
1
1
1
1
1
1.00001
1.00258
1.03159
1.02958
1.0278
1.02613
1.02422
1.02261
1.02239
1.02219
1.02072
1.01646
1.00828
1.00145
1.00004
1
1
1
1
1
1
1
1.00001
1.00258
1.03021
1.02826
1.02665
1.0252
1.02325
1.02082
1.02011
1.02063
1.02021
1.01752
1.01225
1.00439
1.0004
1
1
1
1
1
1
1
1.00001
1.00258
1.02889
1.02705
1.02544
1.02392
1.02215
1.02012
1.01852
1.01841
1.01839
1.01775
1.01461
1.00809
1.00176
1.00007
1
1
1
1
1
1
1.00001
1.00258
1.02766
1.02582
1.02415
1.02271
1.02136
1.0195
1.01722
1.01653
1.01689
1.01691
1.01511
1.01089
1.00428
1.00049
1.00001
1
1
1
1
1
1.00001
1.00258
1.02631
1.0245
1.0229
1.02163
1.02036
1.01855
1.01644
1.0153
1.01531
1.01532
1.01482
1.0123
1.00705
1.00168
1.00008
1
1
1
1
1
1.00001
1.00258
1.02493
1.02327
1.02174
1.02041
1.01915
1.01771
1.01584
1.01414
1.01378
1.01397
1.01397
1.01262
1.00906
1.00361
1.00043
1.00001
1
1
1
1
1.00001
1.00258
1.02355
1.02199
1.02047
1.01912
1.018
1.0168
1.01503
1.01321
1.01263
1.01278
1.01283
1.01231
1.01005
1.00562
1.00132
1.00007
1
1
1
1
1.00001
1.00258
1.02211
1.02064
1.01923
1.01795
1.01686
1.01573
1.01421
1.01243
1.01152
1.01156
1.01169
1.01154
1.01027
1.00713
1.00268
1.0003
1.00001
1
1
1
1.00001
1.00258
1.02061
1.01924
1.01798
1.0168
1.0157
1.01464
1.01337
1.01163
1.01044
1.01043
1.01064
1.01068
1.0101
1.00796
1.00413
1.00087
1.00004
1
1
1
1.00001
1.00258
1.01909
1.01781
1.01667
1.01557
1.01453
1.01359
1.01246
1.01085
1.00943
1.00932
1.00961
1.00974
1.00951
1.00819
1.00531
1.00176
1.00017
1
1
1
1.00001
1.00258
1.01758
1.01631
1.01524
1.01428
1.0134
1.01254
1.01154
1.0101
1.00852
1.0082
1.00857
1.00882
1.0088
1.00811
1.00605
1.00279
1.00048
1.00002
1
1
1.00001
1.00258
1.01604
1.0148
1.0138
1.01296
1.01218
1.01143
1.0106
1.00935
1.00769
1.00705
1.00749
1.0079
1.00803
1.00772
1.00634
1.0037
1.00101
1.00007
1
1
1.00001
1.00258
1.01454
1.01332
1.01233
1.01154
1.01088
1.0103
1.00965
1.00859
1.00695
1.00597
1.00637
1.00697
1.00724
1.00716
1.00634
1.00435
1.00168
1.00022
1.00001
1
1.00001
1.00258
1.01306
1.01188
1.01088
1.01011
1.00953
1.00908
1.00859
1.00776
1.00626
1.00498
1.00523
1.00596
1.00644
1.00652
1.00612
1.0047
1.00235
1.00049
1.00002
1
1.00001
1.00258
1.0116
1.01047
1.00946
1.00866
1.00812
1.00778
1.00747
1.00689
1.0056
1.0041
1.0041
1.00485
1.00561
1.00586
1.00571
1.00477
1.0029
1.00088
1.00008
1
1.00001
1.00258
1.01012
1.00909
1.00812
1.0073
1.00674
1.00644
1.00627
1.0059
1.00486
1.00331
1.00303
1.00371
1.00469
1.00518
1.0052
1.00469
1.00326
1.00133
1.00019
1.00001
1.00001
1.00258
1.00862
1.00773
1.00682
1.00597
1.00536
1.00508
1.00502
1.00485
1.00409
1.00263
1.00201
1.00258
1.00363
1.00447
1.00466
1.00442
1.00342
1.00175
1.00038
1.00002
1.00001
1.00258
1.00708
1.00633
1.00554
1.00474
1.00408
1.00375
1.00374
1.00371
1.0032
1.00193
1.00105
1.0015
1.00249
1.00367
1.00409
1.00405
1.00342
1.00207
1.00064
1.00006
1.00001
1.00258
1.00549
1.00488
1.00424
1.00352
1.00284
1.00243
1.00243
1.00253
1.00227
1.00126
1.0002
1.00045
1.00133
1.0027
1.00352
1.00362
1.00329
1.00227
1.00091
1.00013
1.00001
1.00258
1.00386
1.00336
1.00289
1.00232
1.00169
1.00121
1.00116
1.00133
1.00125
1.00049
0.999384
0.999444
1.00023
1.00158
1.00286
1.00316
1.00304
1.00233
1.00116
1.00025
1.00002
1.00258
1.00221
1.00181
1.00148
1.00108
1.00053
1.00002
0.999906
1.00011
1.00019
0.999695
0.998663
0.99848
0.999158
1.00041
1.00202
1.0027
1.00272
1.0023
1.00135
1.00039
1.00003
1.00259
1.00059
1.00021
0.999982
0.999757
0.999381
0.998901
0.99871
0.998919
0.999098
0.998813
0.997905
0.997558
0.99815
0.999264
1.00099
1.0022
1.00237
1.00217
1.00146
1.00055
1.00007
1.00259
0.999005
0.998628
0.998466
0.998386
0.998182
0.997784
0.997541
0.997731
0.997996
0.997902
0.997178
0.996694
0.997174
0.998166
0.999834
1.00154
1.00201
1.00196
1.00148
1.0007
1.00011
1.00261
0.997483
0.997094
0.99693
0.996944
0.996914
0.996655
0.996414
0.996576
0.996896
0.996938
0.996387
0.995855
0.996242
0.997136
0.998666
1.00067
1.00164
1.00171
1.00144
1.00081
1.00017
1.00263
0.996031
0.995653
0.995458
0.995511
0.995607
0.995501
0.995299
0.995434
0.995793
0.995954
0.995584
0.995049
0.995334
0.996151
0.997532
0.999604
1.00118
1.00144
1.00132
1.00086
1.00023
1.00265
0.994566
0.994256
0.994044
0.994084
0.994256
0.994289
0.994176
0.994316
0.994708
0.994958
0.994735
0.994245
0.994457
0.995215
0.996467
0.998457
1.00052
1.00118
1.00117
1.00087
1.0003
1.00268
0.993117
0.992927
0.992728
0.992724
0.992915
0.993051
0.993043
0.993201
0.993615
0.993944
0.993857
0.993435
0.99359
0.994307
0.995458
0.997308
0.999644
1.00088
1.00098
1.00083
1.00035
1.0027
0.991561
0.991542
0.991438
0.991437
0.991616
0.991811
0.991891
0.992091
0.992545
0.992944
0.992965
0.992621
0.99274
0.993424
0.994503
0.996208
0.998604
1.00045
1.0008
1.00075
1.00038
1.00273
0.989947
0.990132
0.990183
0.990197
0.990334
0.990551
0.990709
0.990964
0.991454
0.99192
0.99204
0.991779
0.991886
0.992553
0.993585
0.995167
0.997497
0.999824
1.00062
1.00064
1.00039
1.00275
0.988264
0.988601
0.988836
0.98898
0.989155
0.989383
0.989572
0.989862
0.990392
0.990919
0.99112
0.990938
0.991039
0.99169
0.992693
0.994182
0.996395
0.998996
1.00038
1.00051
1.00037
1.00276
0.986479
0.986992
0.987444
0.987737
0.987948
0.988165
0.988377
0.988714
0.989296
0.989891
0.990174
0.990069
0.990181
0.990829
0.991816
0.993241
0.995333
0.99803
1.00001
1.0004
1.00033
1.00276
0.984843
0.985382
0.98596
0.986421
0.986772
0.987059
0.987295
0.987637
0.988242
0.988886
0.989234
0.989199
0.989324
0.989966
0.990947
0.992331
0.99432
0.997002
0.99946
1.00028
1.00027
1.00276
0.983102
0.983676
0.984407
0.985055
0.985539
0.985883
0.986135
0.986497
0.987149
0.987858
0.98828
0.988311
0.988458
0.989101
0.990082
0.991441
0.993351
0.995967
0.99874
1.00011
1.00021
1.00274
0.98161
0.982178
0.982912
0.983651
0.984269
0.984727
0.985042
0.985419
0.986091
0.986844
0.987327
0.987421
0.987589
0.988232
0.989216
0.990561
0.992417
0.994955
0.997897
0.999838
1.00014
1.00273
0.98001
0.980568
0.981336
0.982202
0.982968
0.983537
0.983908
0.984306
0.98501
0.98582
0.986366
0.98652
0.986714
0.987362
0.98835
0.989688
0.991505
0.993973
0.996985
0.999423
1.00005
1.00272
0.978411
0.97912
0.979914
0.980807
0.981652
0.982321
0.982767
0.983201
0.983939
0.984798
0.985401
0.985613
0.985834
0.986487
0.987482
0.988817
0.990609
0.99302
0.996047
0.998874
0.999912
1.00272
0.9768
0.977576
0.978391
0.979349
0.980318
0.981111
0.981638
0.982105
0.982872
0.983779
0.984435
0.9847
0.984949
0.985609
0.986611
0.987948
0.989723
0.992089
0.995104
0.998214
0.999708
1.0027
0.975013
0.97598
0.976921
0.977948
0.978988
0.979858
0.980453
0.98097
0.981788
0.982751
0.983463
0.98378
0.984059
0.984727
0.985737
0.987078
0.988843
0.991176
0.994168
0.997473
0.999421
1.00267
0.973324
0.974398
0.975398
0.97649
0.977636
0.978627
0.979316
0.979881
0.980727
0.981732
0.98249
0.982854
0.983163
0.983842
0.984861
0.986206
0.987966
0.990275
0.993242
0.996678
0.999047
1.00263
0.971591
0.97274
0.97383
0.975009
0.976253
0.977342
0.978111
0.978734
0.979638
0.980699
0.98151
0.981923
0.982262
0.982952
0.98398
0.985333
0.987091
0.989383
0.992328
0.995849
0.998589
1.00255
0.969925
0.971177
0.97234
0.973582
0.974912
0.976094
0.97694
0.977618
0.978565
0.979675
0.980532
0.980987
0.981357
0.982058
0.983096
0.984456
0.986216
0.988498
0.991423
0.994999
0.998055
1.00244
0.968486
0.969687
0.970817
0.972079
0.973494
0.974786
0.975728
0.976475
0.977479
0.978639
0.979543
0.980043
0.980444
0.981159
0.982208
0.983577
0.985341
0.987616
0.990526
0.994137
0.997455
1.00229
0.966997
0.968244
0.969437
0.970741
0.972186
0.973518
0.974514
0.975322
0.976388
0.977606
0.978557
0.979098
0.979528
0.980256
0.981314
0.982694
0.984464
0.986737
0.989637
0.993269
0.996801
1.00209
0.965632
0.966924
0.968077
0.969331
0.970811
0.972233
0.973313
0.974181
0.975296
0.976562
0.97756
0.978143
0.978605
0.979347
0.980416
0.981806
0.983584
0.985859
0.988752
0.9924
0.996103
1.00186
0.964234
0.965595
0.966772
0.968031
0.969512
0.970956
0.972077
0.973007
0.974196
0.975523
0.976566
0.977186
0.977677
0.978433
0.979513
0.980913
0.982701
0.984981
0.987872
0.99153
0.99537
1.00158
0.962823
0.964321
0.965531
0.96675
0.968233
0.969715
0.970876
0.97185
0.973089
0.974469
0.97556
0.976222
0.976743
0.977514
0.978604
0.980016
0.981815
0.984101
0.986994
0.990663
0.994609
1.00126
0.961464
0.963024
0.964251
0.96547
0.966954
0.968458
0.969655
0.970683
0.971985
0.97342
0.974555
0.975254
0.975803
0.976589
0.977689
0.979112
0.980924
0.98322
0.986118
0.989797
0.993829
1.00091
0.96002
0.961773
0.963109
0.964316
0.965755
0.967242
0.968446
0.969509
0.970865
0.972359
0.973542
0.97428
0.974858
0.975658
0.976768
0.978203
0.980027
0.982336
0.985243
0.988933
0.993033
1.00051
0.958736
0.960532
0.961863
0.963067
0.964528
0.966042
0.967263
0.968351
0.969755
0.9713
0.972526
0.9733
0.973906
0.97472
0.97584
0.977288
0.979126
0.981449
0.984367
0.988071
0.992226
1.00009
0.957325
0.959289
0.960782
0.962012
0.963401
0.964855
0.966058
0.967173
0.968632
0.970233
0.971506
0.972316
0.972948
0.973776
0.974906
0.976365
0.978218
0.980557
0.983489
0.98721
0.991411
0.999631
0.95607
0.958128
0.959654
0.960871
0.962254
0.963709
0.964903
0.966022
0.967516
0.969165
0.970481
0.971326
0.971984
0.972825
0.973965
0.975436
0.977304
0.97966
0.98261
0.986351
0.99059
0.999151
0.954725
0.956856
0.958504
0.959799
0.961167
0.962575
0.963734
0.96486
0.966395
0.968094
0.969453
0.970331
0.971014
0.971868
0.973016
0.9745
0.976383
0.978758
0.981727
0.985491
0.989765
0.998647
0.953355
0.955683
0.957442
0.958758
0.960101
0.961472
0.962597
0.963716
0.965279
0.96702
0.968419
0.969331
0.970038
0.970903
0.97206
0.973556
0.975455
0.97785
0.980841
0.984631
0.988938
0.998123
0.952075
0.954435
0.956256
0.957656
0.959035
0.960384
0.961468
0.962576
0.964164
0.965945
0.967383
0.968326
0.969055
0.969931
0.971096
0.972603
0.974519
0.976936
0.979951
0.983771
0.988108
0.997583
0.950629
0.953166
0.955156
0.956643
0.958018
0.959319
0.960355
0.961445
0.963052
0.964868
0.966342
0.967315
0.968065
0.968951
0.970124
0.971643
0.973575
0.976014
0.979056
0.982908
0.987277
0.997027
0.949264
0.951923
0.953996
0.955558
0.956974
0.958262
0.959256
0.960325
0.961945
0.963791
0.965299
0.9663
0.967069
0.967964
0.969144
0.970674
0.972623
0.975086
0.978155
0.982044
0.986445
0.996459
0.947831
0.950585
0.952799
0.954491
0.95596
0.957226
0.958169
0.959213
0.960842
0.962713
0.964252
0.965279
0.966066
0.966969
0.968155
0.969695
0.971662
0.974149
0.977249
0.981176
0.985611
0.995879
0.946296
0.94924
0.951611
0.953415
0.954937
0.95619
0.95709
0.958109
0.959743
0.961636
0.963202
0.964253
0.965056
0.965966
0.967157
0.968708
0.970691
0.973204
0.976336
0.980306
0.984777
0.995291
0.944867
0.947888
0.950372
0.952303
0.953905
0.955161
0.956021
0.957013
0.958648
0.960558
0.962149
0.963222
0.964039
0.964954
0.96615
0.967711
0.969712
0.97225
0.975415
0.979431
0.983941
0.994694
0.943299
0.94644
0.949098
0.951185
0.952873
0.954136
0.954958
0.955921
0.957556
0.95948
0.961093
0.962185
0.963015
0.963934
0.965133
0.966704
0.968722
0.971287
0.974488
0.978552
0.983104
0.994092
0.941787
0.945052
0.947833
0.95005
0.951827
0.953106
0.953896
0.954833
0.956466
0.958403
0.960035
0.961144
0.961984
0.962905
0.964107
0.965686
0.967722
0.970314
0.973553
0.977668
0.982265
0.993484
0.940375
0.943624
0.946513
0.948886
0.950771
0.952074
0.952836
0.953749
0.95538
0.957327
0.958974
0.960097
0.960944
0.961867
0.963071
0.964659
0.966711
0.969331
0.972609
0.976779
0.981424
0.992872
0.938861
0.942179
0.945196
0.947719
0.949707
0.951034
0.951773
0.952666
0.954296
0.95625
0.95791
0.959044
0.959897
0.960819
0.962024
0.96362
0.965689
0.968338
0.971657
0.975883
0.980582
0.992256
0.937541
0.940815
0.943886
0.94654
0.948629
0.949987
0.950709
0.951586
0.953214
0.955173
0.956843
0.957986
0.958841
0.959762
0.960967
0.96257
0.964656
0.967335
0.970695
0.974982
0.979737
0.991638
0.936245
0.939445
0.942563
0.945347
0.947541
0.948932
0.949643
0.950507
0.952132
0.954094
0.955771
0.95692
0.957777
0.958694
0.959898
0.961508
0.963611
0.96632
0.969725
0.974075
0.978889
0.991018
0.934973
0.938112
0.941255
0.944154
0.946448
0.947873
0.948574
0.949426
0.951049
0.953014
0.954696
0.955848
0.956703
0.957616
0.958818
0.960434
0.962555
0.965294
0.968744
0.97316
0.978039
0.990397
0.933822
0.936835
0.939968
0.942964
0.945351
0.946806
0.947499
0.948341
0.949963
0.951931
0.953616
0.95477
0.955621
0.956527
0.957726
0.959347
0.961485
0.964256
0.967754
0.972239
0.977185
0.989775
0.932687
0.935595
0.938703
0.941777
0.944248
0.945732
0.946418
0.947254
0.948876
0.950845
0.952532
0.953684
0.954529
0.955426
0.956621
0.958248
0.960403
0.963206
0.966753
0.97131
0.976329
0.989153
0.931635
0.934401
0.937457
0.940595
0.943143
0.944651
0.94533
0.946163
0.947787
0.949757
0.951442
0.952589
0.953426
0.954314
0.955504
0.957135
0.959307
0.962143
0.965741
0.970373
0.975469
0.988532
0.930613
0.933228
0.936232
0.939426
0.942039
0.943564
0.944236
0.945068
0.946694
0.948665
0.950347
0.951487
0.952313
0.953189
0.954373
0.956008
0.958198
0.961068
0.964719
0.969429
0.974606
0.987911
0.929589
0.932091
0.93504
0.938269
0.940932
0.942469
0.943135
0.943969
0.945598
0.947568
0.949245
0.950375
0.951188
0.952051
0.953228
0.954867
0.957075
0.95998
0.963685
0.968477
0.973739
0.987292
0.928614
0.930997
0.933871
0.93712
0.939823
0.941369
0.94203
0.942865
0.944497
0.946466
0.948136
0.949254
0.950051
0.9509
0.952069
0.953712
0.955937
0.958878
0.962641
0.967517
0.972869
0.986675
0.927665
0.929915
0.932709
0.935977
0.938716
0.940267
0.940918
0.941755
0.94339
0.945358
0.947019
0.948123
0.948902
0.949734
0.950894
0.952541
0.954784
0.957763
0.961584
0.966549
0.971996
0.98606
0.926688
0.928828
0.93156
0.93485
0.937616
0.93916
0.939798
0.940638
0.942278
0.944245
0.945895
0.946981
0.947739
0.948553
0.949704
0.951354
0.953616
0.956633
0.960516
0.965573
0.971119
0.985449
0.92569
0.927754
0.930439
0.93374
0.936516
0.938045
0.938669
0.939514
0.94116
0.943125
0.944761
0.945826
0.946562
0.947357
0.948497
0.95015
0.952433
0.95549
0.959436
0.964588
0.970239
0.98484
0.924706
0.926708
0.929335
0.932635
0.935411
0.936921
0.937532
0.938384
0.940036
0.941997
0.943618
0.94466
0.94537
0.946144
0.947274
0.948929
0.951233
0.954332
0.958344
0.963596
0.969356
0.984236
0.923728
0.925658
0.928229
0.931531
0.934305
0.935793
0.936389
0.937248
0.938905
0.940861
0.942464
0.94348
0.944163
0.944913
0.946032
0.947691
0.950016
0.953159
0.957241
0.962595
0.96847
0.983637
0.922716
0.924583
0.927121
0.930435
0.933201
0.934661
0.935237
0.936103
0.937766
0.939717
0.941299
0.942287
0.942939
0.943665
0.944771
0.946435
0.948782
0.951971
0.956125
0.961587
0.967582
0.983042
0.921661
0.923494
0.926027
0.929353
0.932099
0.933521
0.934075
0.934948
0.936618
0.938563
0.940123
0.941078
0.941697
0.942397
0.943491
0.945159
0.947531
0.950767
0.954998
0.960572
0.966692
0.982454
0.920588
0.922411
0.924947
0.928276
0.930992
0.932369
0.932901
0.933784
0.935461
0.937399
0.938933
0.939853
0.940436
0.941109
0.942191
0.943864
0.946262
0.949549
0.953858
0.959549
0.9658
0.981872
0.919512
0.921326
0.923867
0.927199
0.929879
0.931206
0.931717
0.932611
0.934296
0.936225
0.937731
0.938612
0.939156
0.9398
0.940869
0.942549
0.944975
0.948314
0.952707
0.95852
0.964907
0.981297
)
;

boundaryField
{
    inlet
    {
        type            fixedValue;
        value           nonuniform 0();
    }
    outlet
    {
        type            inletOutlet;
        inletValue      uniform 1;
        value           nonuniform List<scalar> 
147
(
0.98116
0.980712
0.98027
0.979836
0.979409
0.978989
0.978578
0.978175
0.977782
0.977398
0.977025
0.976663
0.976313
0.975974
0.975649
0.975336
0.975037
0.974752
0.974482
0.974226
0.973986
0.973761
0.973553
0.97336
0.973184
0.973024
0.97288
0.972753
0.972641
0.972545
0.972464
0.972398
0.972345
0.972306
0.972279
0.972265
0.972261
0.972266
0.972279
0.9723
0.972327
0.972359
0.972394
0.972433
0.972473
0.972514
0.972555
0.972595
0.972634
0.972671
0.972705
0.972737
0.972766
1.00259
1.00259
1.00259
1.00259
1.00259
1.00259
1.00259
1.00259
1.00259
1.00259
1.00259
1.00259
1.00259
1.00259
1.00259
1.00259
1.00259
1.00259
1.00259
1.00259
1.00259
1.00259
1.00259
1.00259
1.00259
1.00259
1.00259
1.00259
1.00259
1.00259
1.00259
1.00259
1.00259
1.00259
1.0026
1.00261
1.00263
1.00265
1.00268
1.0027
1.00272
1.00275
1.00276
1.00276
1.00276
1.00274
1.00273
1.00273
1.00272
1.00271
1.00268
1.00264
1.00257
1.00247
1.00233
1.00215
1.00193
1.00166
1.00136
1.00101
1.00063
1.00022
0.999775
0.999305
0.998812
0.998299
0.997767
0.997221
0.99666
0.996089
0.995508
0.994919
0.994323
0.993722
0.993116
0.992507
0.991895
0.991281
0.990666
0.99005
0.989435
0.988819
0.988205
0.987592
0.986981
0.986373
0.985768
0.985166
0.984569
0.983976
0.983389
0.982808
0.982233
0.981666
)
;
    }
    triangle
    {
        type            zeroGradient;
    }
    top
    {
        type            symmetryPlane;
    }
    bottom
    {
        type            symmetryPlane;
    }
    defaultFaces
    {
        type            empty;
    }
    procBoundary15to6
    {
        type            processor;
        value           nonuniform List<scalar> 6(1.03076 1.0415 1.04585 1.04541 1.04554 1.0462);
    }
    procBoundary15to7
    {
        type            processor;
        value           nonuniform List<scalar> 
23
(
1
1
1
1
1
1
1
1.00001
1.00258
1.00283
1.00023
1
1
1
1
1
1
1
1
1
1
1
1
)
;
    }
    procBoundary15to14
    {
        type            processor;
        value           nonuniform List<scalar> 
141
(
0.916341
0.91544
0.914524
0.913585
0.912629
0.91168
0.910748
0.909813
0.90885
0.907869
0.90689
0.905896
0.904861
0.903806
0.902797
0.901846
0.90088
0.899817
0.898673
0.897556
0.896534
0.895563
0.894541
0.89342
0.892243
0.891087
0.889984
0.8889
0.887792
0.886645
0.885471
0.884278
0.883062
0.881814
0.880532
0.87922
0.877876
0.876495
0.875083
0.873667
0.87228