/*--------------------------------*- C++ -*----------------------------------*\
  =========                 |
  \\      /  F ield         | OpenFOAM: The Open Source CFD Toolbox
   \\    /   O peration     | Website:  https://openfoam.org
    \\  /    A nd           | Version:  8
     \\/     M anipulation  |
\*---------------------------------------------------------------------------*/
FoamFile
{
    version     2.0;
    format      ascii;
    class       volVectorField;
    location    "0.4";
    object      U;
}
// * * * * * * * * * * * * * * * * * * * * * * * * * * * * * * * * * * * * * //

dimensions      [0 1 -1 0 0 0 0];

internalField   nonuniform List<vector> 
325
(
(3 2.67374e-14 0)
(3 2.11641e-11 0)
(3 -1.43286e-11 0)
(3 -8.74991e-11 0)
(2.99999 8.31603e-08 0)
(3 -1.81976e-14 0)
(3 -2.36829e-10 0)
(3 1.69756e-10 0)
(3 -4.95474e-08 0)
(2.99999 2.49059e-06 0)
(2.99925 -8.71284e-05 0)
(2.9741 0.00206041 0)
(2.64361 -0.0146281 0)
(3 2.08872e-14 0)
(3 -2.46214e-10 0)
(3 1.81225e-10 0)
(3 -4.9031e-08 0)
(2.99999 2.48092e-06 0)
(2.99925 -8.77346e-05 0)
(2.97413 0.00216011 0)
(2.64185 -0.0165433 0)
(3 2.58176e-14 0)
(3 -2.54158e-10 0)
(3 1.89989e-10 0)
(3 -4.79604e-08 0)
(2.99999 2.43536e-06 0)
(2.99925 -8.69989e-05 0)
(2.97418 0.00222838 0)
(2.63944 -0.018188 0)
(3 8.0116e-14 0)
(3 -2.61347e-10 0)
(3 1.98801e-10 0)
(3 -4.64678e-08 0)
(2.99999 2.36597e-06 0)
(2.99926 -8.63747e-05 0)
(2.97421 0.00232528 0)
(2.63816 -0.0201962 0)
(3 5.1478e-14 0)
(3 -2.67342e-10 0)
(3 2.05142e-10 0)
(3 -4.46628e-08 0)
(2.99999 2.27868e-06 0)
(2.99926 -8.54451e-05 0)
(2.97425 0.0024262 0)
(2.63622 -0.0221112 0)
(3 -5.23086e-14 0)
(3 -2.71405e-10 0)
(3 2.09288e-10 0)
(3 -4.27124e-08 0)
(2.99999 2.17666e-06 0)
(2.99926 -8.4374e-05 0)
(2.97427 0.00253179 0)
(2.63565 -0.0239264 0)
(3 -3.40788e-14 0)
(3 -2.72734e-10 0)
(3 2.10056e-10 0)
(3 -4.0658e-08 0)
(2.99999 2.06565e-06 0)
(2.99926 -8.28282e-05 0)
(2.97429 0.00261664 0)
(2.63485 -0.0256947 0)
(3 7.66854e-15 0)
(3 -2.7375e-10 0)
(3 2.10009e-10 0)
(3 -3.83184e-08 0)
(2.99999 1.93334e-06 0)
(2.99926 -8.01832e-05 0)
(2.97428 0.00268797 0)
(2.6352 -0.0270612 0)
(3 -3.61311e-14 0)
(3 -2.72823e-10 0)
(3 2.06497e-10 0)
(3 -3.55732e-08 0)
(2.99999 1.76571e-06 0)
(2.99926 -7.58428e-05 0)
(2.97427 0.00271208 0)
(2.63554 -0.0282008 0)
(3 9.23808e-15 0)
(3 -2.68342e-10 0)
(3 1.99352e-10 0)
(3 -3.22179e-08 0)
(2.99999 1.53627e-06 0)
(2.99926 -6.85671e-05 0)
(2.97424 0.00266965 0)
(2.63602 -0.0289436 0)
(3 2.61459e-14 0)
(3 -2.57012e-10 0)
(3 1.85709e-10 0)
(3 -2.77118e-08 0)
(2.99999 1.27062e-06 0)
(2.99926 -5.92135e-05 0)
(2.97419 0.00252678 0)
(2.63652 -0.0285929 0)
(3 1.88547e-14 0)
(3 -2.43223e-10 0)
(3 1.69105e-10 0)
(3 -2.30687e-08 0)
(2.99999 9.52276e-07 0)
(2.99926 -4.76508e-05 0)
(2.97411 0.00227851 0)
(2.63691 -0.0266749 0)
(3 1.69982e-14 0)
(3 -2.24476e-10 0)
(3 1.5131e-10 0)
(3 -1.80024e-08 0)
(2.99999 6.25612e-07 0)
(2.99926 -3.52854e-05 0)
(2.97404 0.00199311 0)
(2.63707 -0.0243909 0)
(3 -8.8594e-15 0)
(3 -2.0659e-10 0)
(3 1.31032e-10 0)
(3 -1.31816e-08 0)
(2.99999 2.94591e-07 0)
(2.99926 -2.15542e-05 0)
(2.97403 0.00163869 0)
(2.6369 -0.0204652 0)
(3 8.22768e-14 0)
(3 -1.81992e-10 0)
(3 1.1089e-10 0)
(3 -8.75627e-09 0)
(2.99999 2.36754e-08 0)
(2.99926 -1.00627e-05 0)
(2.97404 0.00125447 0)
(2.63431 -0.0176512 0)
(3 5.77999e-14 0)
(3 -1.55416e-10 0)
(3 9.03906e-11 0)
(3 -5.15995e-09 0)
(2.99999 -1.4439e-07 0)
(2.99926 -3.3563e-06 0)
(2.97402 0.000945154 0)
(2.63005 -0.0139832 0)
(3 -3.67008e-14 0)
(3 -1.25405e-10 0)
(3 7.01108e-11 0)
(3 -2.64595e-09 0)
(2.99999 -2.07659e-07 0)
(2.99925 -4.84171e-07 0)
(2.97406 0.00073989 0)
(2.62539 -0.010999 0)
(3 2.48745e-14 0)
(3 -9.10877e-11 0)
(3 5.18295e-11 0)
(3 -1.05302e-09 0)
(2.99999 -2.17238e-07 0)
(2.99925 2.1355e-06 0)
(2.97411 0.000502076 0)
(2.62265 -0.00861157 0)
(3 7.36644e-14 0)
(3 -5.47238e-11 0)
(3 3.41794e-11 0)
(3 -2.18311e-10 0)
(2.99999 -1.70346e-07 0)
(2.99925 2.76158e-06 0)
(2.97412 0.000291735 0)
(2.62157 -0.00533855 0)
(3 8.52328e-14 0)
(3 -2.08302e-11 0)
(3 1.46366e-11 0)
(3 8.58549e-11 0)
(2.99999 -8.30924e-08 0)
(2.99925 2.01754e-06 0)
(2.9741 9.18579e-05 0)
(2.62136 -0.00172807 0)
(3 -3.12761e-14 0)
(3 -3.43708e-14 0)
(3 -8.71014e-14 0)
(3 5.07205e-13 0)
(2.99999 -2.73642e-11 0)
(2.99925 8.61031e-10 0)
(2.97392 -1.84712e-08 0)
(2.64603 2.03322e-07 0)
(3 -7.85424e-15 0)
(3 -1.655e-14 0)
(3 -7.24781e-14 0)
(3 4.44377e-13 0)
(2.99999 -2.25804e-11 0)
(2.99925 8.00294e-10 0)
(2.97392 -2.70565e-08 0)
(2.64603 4.72075e-07 0)
(3 4.26364e-14 0)
(3 5.40076e-14 0)
(3 1.06424e-13 0)
(3 8.23241e-13 0)
(2.99999 -3.76226e-11 0)
(2.99925 -6.06447e-10 0)
(2.97392 2.27882e-07 0)
(2.64603 -4.6764e-06 0)
(3 6.82716e-15 0)
(3 1.05972e-13 0)
(3 9.24824e-14 0)
(3 -2.30074e-13 0)
(2.99999 2.16644e-10 0)
(2.99925 -3.47559e-08 0)
(2.97392 2.49869e-06 0)
(2.64602 -3.33262e-05 0)
(3 -3.71229e-14 0)
(3 2.54567e-14 0)
(3 2.4449e-14 0)
(3 -1.80275e-11 0)
(2.99999 2.65475e-09 0)
(2.99925 -2.18441e-07 0)
(2.97392 9.20205e-06 0)
(2.64602 -7.5619e-05 0)
(3 -4.80544e-14 0)
(3 -3.02109e-13 0)
(3 2.16121e-13 0)
(3 -1.35565e-10 0)
(2.99999 1.34366e-08 0)
(2.99925 -7.4157e-07 0)
(2.97393 2.0343e-05 0)
(2.64602 -0.000100536 0)
(3 2.65589e-14 0)
(3 -1.11278e-12 0)
(3 9.51094e-13 0)
(3 -5.40671e-10 0)
(2.99999 4.16646e-08 0)
(2.99925 -1.75065e-06 0)
(2.97393 3.46702e-05 0)
(2.64602 -0.000111658 0)
(3 6.67716e-14 0)
(3 -3.49135e-12 0)
(3 3.14357e-12 0)
(3 -1.46023e-09 0)
(2.99999 9.43253e-08 0)
(2.99925 -3.2636e-06 0)
(2.97393 5.00051e-05 0)
(2.64603 -9.8654e-05 0)
(3 -9.82208e-15 0)
(3 -9.03827e-12 0)
(3 8.93431e-12 0)
(3 -3.09238e-09 0)
(2.99999 1.75018e-07 0)
(2.99925 -5.2224e-06 0)
(2.97394 6.45192e-05 0)
(2.64603 -5.13817e-05 0)
(3 -4.8049e-14 0)
(3 -1.89894e-11 0)
(3 1.77272e-11 0)
(3 -5.58319e-09 0)
(2.99999 2.84808e-07 0)
(2.99925 -7.58624e-06 0)
(2.97394 7.92488e-05 0)
(2.64605 -1.45659e-05 0)
(3 -5.31986e-14 0)
(3 -3.38941e-11 0)
(3 2.95443e-11 0)
(3 -9.00972e-09 0)
(2.99999 4.24219e-07 0)
(2.99925 -1.04632e-05 0)
(2.97395 9.87021e-05 0)
(2.64611 2.94621e-05 0)
(3 1.04295e-14 0)
(3 -5.24855e-11 0)
(3 4.45938e-11 0)
(3 -1.33666e-08 0)
(2.99999 5.94502e-07 0)
(2.99925 -1.4213e-05 0)
(2.97396 0.000140698 0)
(2.64622 -0.000132983 0)
(3 6.76726e-14 0)
(3 -7.49975e-11 0)
(3 6.13394e-11 0)
(3 -1.85569e-08 0)
(2.99999 7.98807e-07 0)
(2.99925 -1.9635e-05 0)
(2.97397 0.000254352 0)
(2.64633 -0.00108487 0)
(3 -2.76512e-15 0)
(3 -1.00567e-10 0)
(3 7.80214e-11 0)
(3 -2.43465e-08 0)
(2.99999 1.03678e-06 0)
(2.99925 -2.7278e-05 0)
(2.97401 0.000454671 0)
(2.64622 -0.00291372 0)
(3 -4.75302e-14 0)
(3 -1.26197e-10 0)
(3 9.41647e-11 0)
(3 -3.05248e-08 0)
(2.99999 1.3032e-06 0)
(2.99925 -3.70811e-05 0)
(2.97405 0.000730464 0)
(2.64578 -0.00551907 0)
(3 5.95011e-14 0)
(3 -1.54942e-10 0)
(3 1.12366e-10 0)
(3 -3.67542e-08 0)
(2.99999 1.60298e-06 0)
(2.99925 -4.84949e-05 0)
(2.97407 0.0010334 0)
(2.64551 -0.0079876 0)
(3 7.48534e-14 0)
(3 -1.78527e-10 0)
(3 1.28406e-10 0)
(3 -4.16591e-08 0)
(2.99999 1.87466e-06 0)
(2.99925 -6.10558e-05 0)
(2.97407 0.00136463 0)
(2.64586 -0.0102198 0)
(3 2.10508e-14 0)
(3 -1.92596e-10 0)
(3 1.36e-10 0)
(3 -4.51929e-08 0)
(2.99999 2.11343e-06 0)
(2.99925 -7.24443e-05 0)
(2.97408 0.00167626 0)
(2.64654 -0.0121073 0)
(3 -1.73045e-14 0)
(3 -2.08034e-10 0)
(3 1.44304e-10 0)
(3 -4.78146e-08 0)
(2.99999 2.32526e-06 0)
(2.99925 -8.21578e-05 0)
(2.97409 0.00193583 0)
(2.64644 -0.0138354 0)
(3 -4.95634e-14 0)
(3 -2.24765e-10 0)
(3 1.57486e-10 0)
(3 -4.95031e-08 0)
(2.99999 2.46964e-06 0)
(2.99925 -8.72258e-05 0)
(2.97409 0.00204299 0)
(2.64543 -0.0141737 0)
)
;

boundaryField
{
    inlet
    {
        type            fixedValue;
        value           uniform (3 0 0);
    }
    outlet
    {
        type            inletOutlet;
        inletValue      nonuniform List<vector> 0();
        value           nonuniform List<vector> 0();
    }
    triangle
    {
        type            slip;
    }
    top
    {
        type            symmetryPlane;
    }
    bottom
    {
        type            symmetryPlane;
    }
    defaultFaces
    {
        type            empty;
    }
    procBoundary0to1
    {
        type            processor;
        value           nonuniform List<vector> 
40
(
(2.16785 0.0224782 0)
(2.16996 0.0259701 0)
(2.17446 0.0309616 0)
(2.17715 0.0348224 0)
(2.18258 0.0400845 0)
(2.18541 0.0433363 0)
(2.18894 0.0477088 0)
(2.19075 0.0505147 0)
(2.19207 0.0530969 0)
(2.19402 0.0552382 0)
(2.19836 0.0585036 0)
(2.20365 0.0611208 0)
(2.20894 0.0626432 0)
(2.21354 0.0582565 0)
(2.22343 0.0490443 0)
(2.24767 0.0431072 0)
(2.2761 0.0268651 0)
(2.28894 0.0206425 0)
(2.29378 0.0121588 0)
(2.29337 0.00376521 0)
(2.16498 -4.45553e-07 0)
(2.16499 -5.90186e-06 0)
(2.16502 -1.04815e-05 0)
(2.16504 -5.84651e-06 0)
(2.16503 -4.87891e-06 0)
(2.16495 -6.75999e-06 0)
(2.16482 -3.96564e-05 0)
(2.16476 -0.000127417 0)
(2.16478 -0.000304143 0)
(2.16473 -0.000423627 0)
(2.16437 -0.000562063 0)
(2.16364 -0.000558542 0)
(2.16265 -0.000364186 0)
(2.16172 0.000639389 0)
(2.16162 0.00370972 0)
(2.16215 0.00785998 0)
(2.16214 0.0114502 0)
(2.1618 0.0135372 0)
(2.16259 0.0164089 0)
(2.16481 0.0194578 0)
)
;
    }
    procBoundary0to4
    {
        type            processor;
        value           nonuniform List<vector> 9((3 -1.8435e-14 0) (3 5.47113e-11 0) (3 -3.42175e-11 0) (3 2.16821e-10 0) (2.99925 -2.01918e-06 0) (2.99999 1.70402e-07 0) (2.99925 -2.01918e-06 0) (2.9741 -9.19033e-05 0) (2.62136 0.00172895 0));
    }
}


// ************************************************************************* //
