/*--------------------------------*- C++ -*----------------------------------*\
  =========                 |
  \\      /  F ield         | OpenFOAM: The Open Source CFD Toolbox
   \\    /   O peration     | Website:  https://openfoam.org
    \\  /    A nd           | Version:  7
     \\/     M anipulation  |
\*---------------------------------------------------------------------------*/
FoamFile
{
    version     2.0;
    format      ascii;
    class       volVectorField;
    location    "0.4";
    object      U;
}
// * * * * * * * * * * * * * * * * * * * * * * * * * * * * * * * * * * * * * //

dimensions      [0 1 -1 0 0 0 0];

internalField   nonuniform List<vector> 
325
(
(2.99925 -2.01841e-06 0)
(2.9741 -9.18712e-05 0)
(2.62136 0.00172873 0)
(3 -3.43568e-15 0)
(3 5.46617e-11 0)
(3 -3.42661e-11 0)
(3 2.18152e-10 0)
(2.99999 1.70368e-07 0)
(2.99925 -2.7626e-06 0)
(2.97412 -0.000291722 0)
(2.62157 0.00533902 0)
(3 -5.6303e-15 0)
(3 9.11739e-11 0)
(3 -5.18117e-11 0)
(3 1.05329e-09 0)
(2.99999 2.17228e-07 0)
(2.99925 -2.13374e-06 0)
(2.97411 -0.00050215 0)
(2.62265 0.00861169 0)
(3 -7.95014e-15 0)
(3 1.25374e-10 0)
(3 -7.02418e-11 0)
(3 2.64632e-09 0)
(2.99999 2.07675e-07 0)
(2.99925 4.81981e-07 0)
(2.97406 -0.000739839 0)
(2.62539 0.0109984 0)
(3 -9.97961e-15 0)
(3 1.5537e-10 0)
(3 -9.05889e-11 0)
(3 5.16059e-09 0)
(2.99999 1.44376e-07 0)
(2.99926 3.35585e-06 0)
(2.97402 -0.000945122 0)
(2.63005 0.013984 0)
(3 -1.19655e-14 0)
(3 1.82114e-10 0)
(3 -1.10829e-10 0)
(3 8.75728e-09 0)
(2.99999 -2.36965e-08 0)
(2.99926 1.00626e-05 0)
(2.97404 -0.00125443 0)
(2.63431 0.0176505 0)
(3 -1.37286e-14 0)
(3 2.06486e-10 0)
(3 -1.3106e-10 0)
(3 1.31829e-08 0)
(2.99999 -2.94612e-07 0)
(2.99926 2.15539e-05 0)
(2.97403 -0.00163866 0)
(2.6369 0.020465 0)
(3 -1.47296e-14 0)
(3 2.24447e-10 0)
(3 -1.51482e-10 0)
(3 1.80039e-08 0)
(2.99999 -6.25639e-07 0)
(2.99926 3.52851e-05 0)
(2.97404 -0.00199308 0)
(2.63707 0.0243906 0)
(3 -1.47295e-14 0)
(3 2.43235e-10 0)
(3 -1.69126e-10 0)
(3 2.30706e-08 0)
(2.99999 -9.52313e-07 0)
(2.99926 4.76504e-05 0)
(2.97411 -0.00227849 0)
(2.63691 0.0266748 0)
(3 -1.51968e-14 0)
(3 2.5706e-10 0)
(3 -1.85528e-10 0)
(3 2.7714e-08 0)
(2.99999 -1.27065e-06 0)
(2.99926 5.92127e-05 0)
(2.97419 -0.00252676 0)
(2.63652 0.0285928 0)
(3 -1.67798e-14 0)
(3 2.68505e-10 0)
(3 -1.99276e-10 0)
(3 3.22203e-08 0)
(2.99999 -1.53631e-06 0)
(2.99926 6.85664e-05 0)
(2.97424 -0.00266962 0)
(2.63602 0.0289435 0)
(3 -1.67335e-14 0)
(3 2.72845e-10 0)
(3 -2.06433e-10 0)
(3 3.55758e-08 0)
(2.99999 -1.76577e-06 0)
(2.99926 7.5842e-05 0)
(2.97427 -0.00271204 0)
(2.63554 0.0282007 0)
(3 -1.67652e-14 0)
(3 2.73689e-10 0)
(3 -2.09967e-10 0)
(3 3.83213e-08 0)
(2.99999 -1.9334e-06 0)
(2.99926 8.01826e-05 0)
(2.97428 -0.00268792 0)
(2.6352 0.0270611 0)
(3 -1.70068e-14 0)
(3 2.72786e-10 0)
(3 -2.1012e-10 0)
(3 4.06607e-08 0)
(2.99999 -2.0657e-06 0)
(2.99926 8.28277e-05 0)
(2.97429 -0.00261659 0)
(2.63485 0.0256945 0)
(3 -1.69457e-14 0)
(3 2.71435e-10 0)
(3 -2.09302e-10 0)
(3 4.27151e-08 0)
(2.99999 -2.17671e-06 0)
(2.99926 8.43733e-05 0)
(2.97427 -0.00253175 0)
(2.63565 0.0239262 0)
(3 -1.69481e-14 0)
(3 2.67338e-10 0)
(3 -2.05311e-10 0)
(3 4.46653e-08 0)
(2.99999 -2.27873e-06 0)
(2.99926 8.54441e-05 0)
(2.97425 -0.00242614 0)
(2.63622 0.0221108 0)
(3 -1.63563e-14 0)
(3 2.61576e-10 0)
(3 -1.98602e-10 0)
(3 4.64704e-08 0)
(2.99999 -2.366e-06 0)
(2.99926 8.63734e-05 0)
(2.97421 -0.00232522 0)
(2.63816 0.0201959 0)
(3 -1.64338e-14 0)
(3 2.54695e-10 0)
(3 -1.90025e-10 0)
(3 4.79628e-08 0)
(2.99999 -2.43538e-06 0)
(2.99925 8.69971e-05 0)
(2.97418 -0.00222832 0)
(2.63944 0.0181876 0)
(3 -1.57878e-14 0)
(3 2.45807e-10 0)
(3 -1.81279e-10 0)
(3 4.90329e-08 0)
(2.99999 -2.48093e-06 0)
(2.99925 8.77325e-05 0)
(2.97413 -0.00216004 0)
(2.64185 0.0165429 0)
(3 -1.51064e-14 0)
(3 2.36474e-10 0)
(3 -1.69949e-10 0)
(3 4.95489e-08 0)
(2.99999 -2.49058e-06 0)
(2.99925 8.7126e-05 0)
(2.9741 -0.00206033 0)
(2.64361 0.0146276 0)
(3 -1.52646e-14 0)
(3 2.24767e-10 0)
(3 -1.57689e-10 0)
(3 4.95043e-08 0)
(2.99999 -2.46963e-06 0)
(2.99925 8.72232e-05 0)
(2.97409 -0.00204291 0)
(2.64543 0.0141732 0)
(3 -1.44439e-14 0)
(3 2.0803e-10 0)
(3 -1.44358e-10 0)
(3 4.7816e-08 0)
(2.99999 -2.32524e-06 0)
(2.99925 8.21553e-05 0)
(2.97409 -0.00193576 0)
(2.64644 0.0138351 0)
(3 -1.34239e-14 0)
(3 1.92585e-10 0)
(3 -1.36036e-10 0)
(3 4.51941e-08 0)
(2.99999 -2.11342e-06 0)
(2.99925 7.24421e-05 0)
(2.97408 -0.0016762 0)
(2.64654 0.012107 0)
(3 -1.32062e-14 0)
(3 1.78467e-10 0)
(3 -1.28424e-10 0)
(3 4.16603e-08 0)
(2.99999 -1.87466e-06 0)
(2.99925 6.10541e-05 0)
(2.97407 -0.00136459 0)
(2.64586 0.0102198 0)
(3 -1.10467e-14 0)
(3 1.55146e-10 0)
(3 -1.12302e-10 0)
(3 3.67554e-08 0)
(2.99999 -1.60299e-06 0)
(2.99925 4.84938e-05 0)
(2.97407 -0.00103337 0)
(2.64551 0.00798751 0)
(3 -8.93145e-15 0)
(3 1.26251e-10 0)
(3 -9.40829e-11 0)
(3 3.05261e-08 0)
(2.99999 -1.30323e-06 0)
(2.99925 3.70813e-05 0)
(2.97405 -0.00073046 0)
(2.64578 0.00551905 0)
(3 -6.85092e-15 0)
(3 1.00464e-10 0)
(3 -7.81958e-11 0)
(3 2.43479e-08 0)
(2.99999 -1.03683e-06 0)
(2.99925 2.72792e-05 0)
(2.97401 -0.000454688 0)
(2.64622 0.00291373 0)
(3 -4.39356e-15 0)
(3 7.49927e-11 0)
(3 -6.13826e-11 0)
(3 1.85584e-08 0)
(2.99999 -7.98883e-07 0)
(2.99925 1.96374e-05 0)
(2.97397 -0.000254394 0)
(2.64633 0.00108501 0)
(3 -3.04343e-15 0)
(3 5.24516e-11 0)
(3 -4.45316e-11 0)
(3 1.33683e-08 0)
(2.99999 -5.94604e-07 0)
(2.99925 1.42166e-05 0)
(2.97396 -0.000140766 0)
(2.64622 0.000133247 0)
(3 -2.1086e-15 0)
(3 3.37512e-11 0)
(3 -2.94383e-11 0)
(3 9.0117e-09 0)
(2.99999 -4.24345e-07 0)
(2.99925 1.04679e-05 0)
(2.97395 -9.87955e-05 0)
(2.64611 -2.90588e-05 0)
(3 -1.0179e-15 0)
(3 1.89477e-11 0)
(3 -1.74454e-11 0)
(3 5.58552e-09 0)
(2.99999 -2.84955e-07 0)
(2.99925 7.59182e-06 0)
(2.97394 -7.93583e-05 0)
(2.64605 1.50356e-05 0)
(2.16473 0.000423486 0)
(3 -7.40709e-16 0)
(3 9.19176e-12 0)
(3 -8.84528e-12 0)
(3 3.09456e-09 0)
(2.99999 -1.75179e-07 0)
(2.99925 5.22853e-06 0)
(2.97394 -6.46374e-05 0)
(2.64603 5.18491e-05 0)
(2.16478 0.000303978 0)
(3 -5.5183e-16 0)
(3 3.56926e-12 0)
(3 -3.5598e-12 0)
(3 1.46218e-09 0)
(2.99999 -9.44906e-08 0)
(2.99925 3.2699e-06 0)
(2.97393 -5.01253e-05 0)
(2.64603 9.91562e-05 0)
(2.16476 0.000127147 0)
(3 6.607e-17 0)
(3 9.65979e-13 0)
(3 -9.87635e-13 0)
(3 5.42725e-10 0)
(2.99999 -4.18212e-08 0)
(2.99925 1.75672e-06 0)
(2.97393 -3.47866e-05 0)
(2.64602 0.000112131 0)
(2.16482 3.92727e-05 0)
(3 3.05461e-16 0)
(3 1.40225e-13 0)
(3 -1.53377e-13 0)
(3 1.37371e-10 0)
(2.99999 -1.35742e-08 0)
(2.99925 7.46942e-07 0)
(2.97393 -2.04467e-05 0)
(2.64602 0.000100942 0)
(2.16495 6.40647e-06 0)
(3 3.10113e-17 0)
(3 1.28039e-14 0)
(3 -8.67698e-15 0)
(3 2.02833e-11 0)
(2.99999 -2.78028e-09 0)
(2.99925 2.22874e-07 0)
(2.97392 -9.28906e-06 0)
(2.64602 7.5981e-05 0)
(2.16503 4.54404e-06 0)
(3 1.58425e-16 0)
(3 2.29189e-15 0)
(3 -3.58419e-16 0)
(3 2.33359e-12 0)
(2.99999 -3.37042e-10 0)
(2.99925 3.8616e-08 0)
(2.97392 -2.56728e-06 0)
(2.64602 3.36345e-05 0)
(2.16504 5.57152e-06 0)
(3 -1.62141e-16 0)
(3 -1.59307e-15 0)
(3 -2.17651e-15 0)
(3 7.38194e-13 0)
(2.99999 -4.96411e-11 0)
(2.99925 3.34692e-09 0)
(2.97392 -2.72113e-07 0)
(2.64603 4.84945e-06 0)
(2.16502 1.02111e-05 0)
(3 -4.19125e-16 0)
(3 -9.43245e-16 0)
(3 -1.50719e-15 0)
(3 3.98912e-13 0)
(2.99999 -2.0245e-11 0)
(2.99925 3.82945e-10 0)
(2.97392 7.2127e-09 0)
(2.64603 -4.09242e-07 0)
(2.16499 5.71314e-06 0)
(3 -1.28135e-16 0)
(3 1.95244e-16 0)
(3 -4.57982e-16 0)
(3 1.3553e-13 0)
(2.99999 -7.02014e-12 0)
(2.99925 1.39469e-10 0)
(2.97392 4.68023e-09 0)
(2.64603 -1.68102e-07 0)
(2.16498 3.93566e-07 0)
)
;

boundaryField
{
    inlet
    {
        type            fixedValue;
        value           uniform (3 0 0);
    }
    outlet
    {
        type            inletOutlet;
        inletValue      nonuniform 0();
        value           nonuniform 0();
    }
    triangle
    {
        type            slip;
    }
    top
    {
        type            symmetryPlane;
    }
    bottom
    {
        type            symmetryPlane;
    }
    defaultFaces
    {
        type            empty;
    }
    procBoundary4to0
    {
        type            processor;
        value           nonuniform List<vector> 9((3 -1.34935e-15 0) (3 2.11883e-11 0) (3 -1.45696e-11 0) (3 -8.63472e-11 0) (2.99999 8.31146e-08 0) (2.99999 8.31146e-08 0) (2.99925 2.01914e-06 0) (2.9741 9.18554e-05 0) (2.62136 -0.00172861 0));
    }
    procBoundary4to1
    {
        type            processor;
        value           nonuniform List<vector> 2((2.29337 -0.0037651 0) (2.29378 -0.0121588 0));
    }
    procBoundary4to5
    {
        type            processor;
        value           nonuniform List<vector> 
39
(
(2.28894 -0.0206427 0)
(2.2761 -0.0268651 0)
(2.24767 -0.0431069 0)
(2.22343 -0.0490447 0)
(2.21354 -0.0582568 0)
(2.20894 -0.0626433 0)
(2.20365 -0.0611209 0)
(2.19836 -0.0585036 0)
(2.19402 -0.0552381 0)
(2.19207 -0.0530968 0)
(2.19075 -0.0505147 0)
(2.18894 -0.0477088 0)
(2.18541 -0.0433362 0)
(2.18258 -0.0400845 0)
(2.17715 -0.0348223 0)
(2.17446 -0.0309613 0)
(2.16996 -0.0259697 0)
(2.16785 -0.0224777 0)
(2.16481 -0.0194575 0)
(2.16259 -0.0164087 0)
(2.1618 -0.0135371 0)
(2.16214 -0.0114503 0)
(2.16215 -0.00785995 0)
(2.16162 -0.00370965 0)
(2.16172 -0.000639225 0)
(2.16265 0.000364245 0)
(2.16364 0.000558504 0)
(2.16437 0.000561933 0)
(2.16437 0.000561933 0)
(2.0515 -0.000777087 0)
(2.05219 -0.000658499 0)
(2.05258 -0.000381726 0)
(2.05237 -0.000210396 0)
(2.05187 -0.000136282 0)
(2.05146 -8.77601e-05 0)
(2.05136 -3.85118e-05 0)
(2.05144 -2.8731e-05 0)
(2.05156 -9.09551e-06 0)
(2.05162 1.13655e-06 0)
)
;
    }
}


// ************************************************************************* //
