/*--------------------------------*- C++ -*----------------------------------*\
  =========                 |
  \\      /  F ield         | OpenFOAM: The Open Source CFD Toolbox
   \\    /   O peration     | Website:  https://openfoam.org
    \\  /    A nd           | Version:  7
     \\/     M anipulation  |
\*---------------------------------------------------------------------------*/
FoamFile
{
    version     2.0;
    format      ascii;
    class       volScalarField;
    location    "0.3";
    object      T;
}
// * * * * * * * * * * * * * * * * * * * * * * * * * * * * * * * * * * * * * //

dimensions      [0 0 0 1 0 0 0];

internalField   nonuniform List<scalar> 
3225
(
1.22437
1.22316
1.22202
1.22096
1.21996
1.21903
1.21818
1.2174
1.21667
1.21597
1.21524
1.21441
1.21339
1.21217
1.21082
1.2094
1.20783
1.20599
1.20395
1.20192
1.19993
1.19762
1.19456
1.19097
1.18718
1.18303
1.22207
1.22087
1.21976
1.21871
1.21773
1.2168
1.21594
1.21512
1.21433
1.21356
1.21278
1.21192
1.21092
1.20972
1.20831
1.2068
1.2052
1.20344
1.20143
1.19926
1.19703
1.19465
1.19179
1.18835
1.18443
1.1799
1.22102
1.21981
1.21869
1.21765
1.21668
1.21575
1.21484
1.21393
1.21302
1.21209
1.21113
1.21014
1.2091
1.20791
1.20647
1.20486
1.20323
1.20153
1.19954
1.19718
1.19463
1.19209
1.18931
1.18587
1.18181
1.17703
1.21923
1.21799
1.21682
1.21574
1.21472
1.21373
1.21274
1.21178
1.21082
1.20978
1.20867
1.20752
1.20638
1.20516
1.20375
1.20213
1.20041
1.19868
1.19673
1.19434
1.19164
1.18896
1.18616
1.18271
1.17854
1.17363
1.21735
1.21604
1.21479
1.21361
1.21249
1.21142
1.21038
1.20933
1.20825
1.2071
1.20587
1.2046
1.20333
1.20208
1.20072
1.19911
1.19732
1.19549
1.19353
1.1912
1.18846
1.18563
1.18271
1.17928
1.17515
1.17023
1.21563
1.21422
1.21287
1.21157
1.21033
1.20916
1.20801
1.20684
1.20567
1.20447
1.20318
1.2018
1.20039
1.199
1.19757
1.19594
1.19408
1.19211
1.19009
1.18785
1.18517
1.18224
1.1792
1.17578
1.17173
1.16681
1.21429
1.2128
1.21135
1.20994
1.20857
1.20726
1.20598
1.20469
1.2034
1.20211
1.20076
1.19932
1.19778
1.19625
1.19474
1.19309
1.19115
1.18905
1.18691
1.18468
1.18204
1.17902
1.1758
1.17231
1.16825
1.16327
1.21331
1.21177
1.21026
1.20876
1.2073
1.20588
1.20449
1.20307
1.20163
1.2002
1.19876
1.19725
1.19561
1.19394
1.19229
1.19057
1.1886
1.18639
1.18409
1.18174
1.1791
1.17605
1.17266
1.16901
1.16479
1.15963
1.21262
1.21105
1.20951
1.20797
1.20644
1.20494
1.20346
1.20198
1.20046
1.19891
1.19737
1.19579
1.19407
1.19223
1.19037
1.1885
1.18648
1.18419
1.18171
1.17919
1.17651
1.17341
1.16988
1.166
1.16152
1.15612
1.21206
1.21048
1.20892
1.20738
1.20583
1.20428
1.20275
1.20121
1.19963
1.19798
1.19633
1.19467
1.19291
1.19098
1.18898
1.18696
1.18484
1.18247
1.17985
1.17715
1.17434
1.17113
1.16744
1.16332
1.15856
1.15291
1.21154
1.20996
1.2084
1.20686
1.20531
1.20374
1.20217
1.20061
1.19901
1.19731
1.19557
1.19382
1.19202
1.19005
1.18793
1.18575
1.18351
1.18107
1.17836
1.17552
1.17255
1.16919
1.16536
1.16101
1.15601
1.15012
1.21097
1.20941
1.20786
1.20632
1.20478
1.20322
1.20162
1.20003
1.19841
1.1967
1.1949
1.19307
1.19122
1.18924
1.18708
1.18479
1.18243
1.17993
1.17716
1.17419
1.17103
1.16752
1.16356
1.15905
1.15386
1.14777
1.21034
1.20881
1.20727
1.20573
1.2042
1.20264
1.20104
1.19943
1.19779
1.19608
1.19426
1.19237
1.19046
1.18845
1.18627
1.18393
1.18148
1.1789
1.17608
1.17301
1.1697
1.16606
1.16201
1.15738
1.15206
1.14581
1.20964
1.20813
1.20661
1.20508
1.20355
1.20201
1.20041
1.19877
1.1971
1.19539
1.19357
1.19165
1.18968
1.18765
1.18547
1.18311
1.1806
1.17795
1.17507
1.17192
1.16849
1.16474
1.1606
1.15588
1.15046
1.1441
1.2089
1.20741
1.2059
1.20438
1.20285
1.20131
1.19971
1.19806
1.19637
1.19465
1.19284
1.19091
1.1889
1.18682
1.18462
1.18226
1.17971
1.17701
1.17409
1.17088
1.16737
1.16354
1.15931
1.1545
1.14899
1.14255
1.20813
1.20665
1.20516
1.20365
1.20212
1.20057
1.19898
1.19732
1.19561
1.19387
1.19207
1.19015
1.18811
1.18598
1.18375
1.18137
1.17881
1.17608
1.17313
1.16988
1.1663
1.1624
1.15808
1.15317
1.14758
1.14109
1.20734
1.20587
1.20439
1.20289
1.20136
1.19981
1.19822
1.19657
1.19485
1.19309
1.19127
1.18936
1.18732
1.18515
1.18288
1.18046
1.17788
1.17514
1.17217
1.16888
1.16527
1.16132
1.15693
1.15193
1.14625
1.13972
1.20654
1.20509
1.20362
1.20213
1.2006
1.19905
1.19746
1.19582
1.1941
1.19231
1.19047
1.18855
1.18652
1.18433
1.18202
1.17957
1.17696
1.17419
1.17119
1.16788
1.16426
1.16027
1.15583
1.15076
1.14501
1.13841
1.20574
1.2043
1.20284
1.20136
1.19984
1.19829
1.1967
1.19506
1.19334
1.19155
1.18969
1.18775
1.1857
1.18351
1.18119
1.1787
1.17605
1.17324
1.17019
1.16685
1.16324
1.15924
1.15476
1.14965
1.14386
1.13718
1.20493
1.20351
1.20206
1.20059
1.19908
1.19753
1.19594
1.1943
1.1926
1.1908
1.18893
1.18695
1.18488
1.18268
1.18035
1.17785
1.17517
1.17231
1.1692
1.16584
1.16222
1.1582
1.15371
1.14859
1.14278
1.13605
1.20413
1.20272
1.20128
1.19982
1.19832
1.19679
1.1952
1.19356
1.19185
1.19006
1.18817
1.18618
1.18408
1.18185
1.1795
1.177
1.17432
1.17141
1.16825
1.16486
1.16121
1.15715
1.15264
1.14754
1.14174
1.13502
1.20333
1.20194
1.20052
1.19907
1.19758
1.19605
1.19447
1.19282
1.19111
1.18931
1.18743
1.18542
1.18329
1.18103
1.17866
1.17615
1.17347
1.17054
1.16735
1.16393
1.16022
1.15611
1.15157
1.14647
1.14069
1.13406
1.20255
1.20117
1.19976
1.19832
1.19684
1.19532
1.19375
1.19211
1.19038
1.18857
1.18668
1.18468
1.18254
1.18024
1.17783
1.17531
1.17262
1.16967
1.16648
1.16305
1.15929
1.15511
1.15051
1.14537
1.1396
1.13309
1.20178
1.20041
1.19902
1.1976
1.19613
1.19461
1.19304
1.19141
1.18968
1.18785
1.18595
1.18395
1.18181
1.17949
1.17704
1.17448
1.17174
1.16878
1.16561
1.16217
1.15838
1.15416
1.14949
1.14427
1.13848
1.13199
1.20102
1.19967
1.19829
1.19689
1.19543
1.19392
1.19235
1.19072
1.189
1.18716
1.18523
1.18322
1.1811
1.17878
1.17631
1.17368
1.17087
1.16788
1.16472
1.16126
1.15746
1.15323
1.14851
1.14321
1.13736
1.13078
1.20028
1.19895
1.19759
1.19619
1.19475
1.19324
1.19167
1.19005
1.18834
1.1865
1.18455
1.1825
1.18038
1.17808
1.17561
1.17292
1.17003
1.16702
1.16382
1.16033
1.15651
1.15228
1.14754
1.14221
1.13626
1.12956
1.19957
1.19825
1.19689
1.19551
1.19408
1.19259
1.19101
1.18939
1.18769
1.18587
1.18389
1.1818
1.17966
1.17738
1.17492
1.17219
1.16926
1.16621
1.16294
1.15939
1.15553
1.15128
1.14656
1.14124
1.13521
1.12845
1.19887
1.19756
1.19622
1.19485
1.19343
1.19195
1.19038
1.18874
1.18704
1.18523
1.18326
1.18114
1.17895
1.17665
1.1742
1.17145
1.16855
1.16547
1.16212
1.1585
1.15456
1.15026
1.14555
1.14024
1.13421
1.12747
1.19817
1.1969
1.19557
1.1942
1.19279
1.19132
1.18975
1.1881
1.18638
1.18459
1.18263
1.1805
1.17827
1.17593
1.17346
1.17069
1.16783
1.16473
1.16134
1.15765
1.15363
1.14926
1.1445
1.13917
1.13323
1.12653
1.19749
1.19624
1.19493
1.19356
1.19215
1.1907
1.18914
1.18747
1.18572
1.18392
1.18199
1.17986
1.17761
1.17521
1.17265
1.1699
1.16705
1.16394
1.16055
1.15684
1.15275
1.1483
1.14344
1.13806
1.13219
1.12553
1.19681
1.19559
1.1943
1.19294
1.19153
1.19008
1.18853
1.18686
1.18508
1.18325
1.18131
1.1792
1.17695
1.17447
1.17183
1.1691
1.16621
1.16308
1.15969
1.15599
1.15189
1.14738
1.14238
1.13693
1.13106
1.12444
1.19616
1.19495
1.19369
1.19235
1.19092
1.18946
1.18792
1.18627
1.18446
1.18258
1.18061
1.17849
1.17627
1.17374
1.17108
1.16831
1.16534
1.16218
1.15876
1.15507
1.15099
1.14644
1.14134
1.13582
1.12985
1.12331
1.19554
1.19433
1.19309
1.19176
1.19034
1.18886
1.18732
1.18567
1.18386
1.18192
1.1799
1.17779
1.17549
1.17294
1.17034
1.16753
1.1645
1.16126
1.15779
1.15406
1.14998
1.14542
1.14029
1.13472
1.12864
1.12222
1.19494
1.19373
1.1925
1.1912
1.18978
1.18828
1.18672
1.18508
1.18326
1.18129
1.17921
1.17701
1.17467
1.17216
1.16956
1.16673
1.16366
1.16037
1.1568
1.15298
1.14885
1.14429
1.1392
1.13361
1.1275
1.12123
1.19437
1.19316
1.19192
1.19064
1.18924
1.18772
1.18612
1.18446
1.18265
1.18066
1.17854
1.17626
1.17385
1.17136
1.16872
1.16589
1.16282
1.15947
1.15582
1.15187
1.14763
1.14303
1.138
1.13248
1.12649
1.12042
1.1938
1.19261
1.19136
1.19008
1.1887
1.18717
1.18553
1.18383
1.182
1.18003
1.17788
1.17553
1.17304
1.17055
1.16785
1.165
1.16191
1.15854
1.15482
1.15074
1.14636
1.14169
1.13671
1.13134
1.12563
1.11984
1.19324
1.19206
1.19081
1.18952
1.18814
1.18662
1.18495
1.18319
1.18134
1.17937
1.17717
1.17478
1.17233
1.16975
1.16698
1.16406
1.16092
1.15752
1.15375
1.14958
1.14507
1.14033
1.13539
1.13025
1.12493
1.11952
1.19269
1.19152
1.19027
1.18895
1.18757
1.18605
1.18436
1.18254
1.18063
1.17862
1.17642
1.17409
1.17164
1.16899
1.16615
1.16312
1.15987
1.15639
1.15257
1.14835
1.14379
1.13902
1.13414
1.1293
1.1244
1.1194
1.19214
1.19098
1.18972
1.18838
1.18697
1.18545
1.18375
1.18191
1.17992
1.17786
1.17563
1.17338
1.17091
1.16823
1.16533
1.16218
1.15877
1.15515
1.15125
1.14703
1.14251
1.13781
1.13307
1.12855
1.12403
1.11943
1.1916
1.19044
1.18918
1.18781
1.18636
1.18482
1.18312
1.18127
1.17924
1.17713
1.17484
1.17258
1.17009
1.1674
1.16445
1.16121
1.15763
1.15384
1.14983
1.14563
1.14123
1.13673
1.13226
1.12804
1.12384
1.11958
1.19106
1.1899
1.18864
1.18725
1.18575
1.18416
1.18246
1.1806
1.17854
1.17634
1.1741
1.17173
1.1692
1.16644
1.16345
1.16013
1.15643
1.15249
1.14837
1.14422
1.14001
1.13583
1.13172
1.12781
1.12383
1.11986
1.19052
1.18935
1.18809
1.18669
1.18514
1.18351
1.18175
1.17987
1.17781
1.17565
1.17337
1.17089
1.16825
1.16537
1.16227
1.15889
1.15512
1.15112
1.14696
1.14291
1.13892
1.13515
1.13143
1.12779
1.12401
1.12028
1.19
1.18881
1.18753
1.18611
1.18454
1.18286
1.18104
1.17912
1.17703
1.17491
1.17258
1.17
1.16724
1.16419
1.16092
1.15745
1.15368
1.14973
1.14566
1.1418
1.13809
1.13473
1.13136
1.12795
1.12441
1.12086
1.18949
1.18826
1.18694
1.18549
1.18393
1.1822
1.18032
1.17834
1.17625
1.17406
1.17167
1.16901
1.16611
1.1629
1.15944
1.15586
1.15213
1.14835
1.14452
1.14097
1.1376
1.13457
1.13145
1.12831
1.12502
1.12162
1.18901
1.18771
1.18632
1.18484
1.18324
1.18148
1.17959
1.17754
1.17544
1.17312
1.17063
1.16786
1.16482
1.16147
1.15786
1.15421
1.15055
1.14704
1.14359
1.14045
1.13742
1.13463
1.13173
1.12885
1.12582
1.12255
1.18854
1.18716
1.18568
1.18411
1.18246
1.18068
1.17876
1.17675
1.17456
1.1721
1.16946
1.16652
1.16335
1.15989
1.15624
1.15261
1.1491
1.14592
1.14292
1.14019
1.13746
1.13486
1.13218
1.12954
1.12671
1.12357
1.18805
1.1866
1.18501
1.18333
1.18162
1.17982
1.17792
1.17587
1.17358
1.17099
1.16815
1.16502
1.1617
1.15822
1.15464
1.15117
1.14792
1.14512
1.14253
1.14012
1.13763
1.13524
1.13276
1.13032
1.12763
1.1246
1.18753
1.18598
1.18429
1.18251
1.18074
1.17885
1.17695
1.17483
1.17244
1.16973
1.16671
1.1634
1.15998
1.15653
1.15314
1.14997
1.14712
1.14468
1.14239
1.1402
1.13794
1.13573
1.13344
1.13111
1.12848
1.12553
1.18691
1.18526
1.18348
1.18164
1.17976
1.17786
1.17584
1.17361
1.17112
1.16828
1.16512
1.16171
1.15828
1.15494
1.15186
1.14911
1.14669
1.14454
1.14248
1.14047
1.13841
1.13634
1.13416
1.13185
1.12923
1.12628
1.18622
1.18446
1.18261
1.18072
1.17879
1.17678
1.17461
1.17223
1.16959
1.16665
1.16344
1.16005
1.15672
1.15362
1.15093
1.1486
1.14656
1.14463
1.14277
1.14095
1.13908
1.1371
1.13494
1.13254
1.12983
1.12677
1.18545
1.18359
1.18172
1.17973
1.17775
1.1756
1.17326
1.1707
1.16791
1.1649
1.16174
1.15849
1.15543
1.15267
1.1504
1.14842
1.14663
1.1449
1.14327
1.14164
1.13991
1.13799
1.13578
1.1332
1.13029
1.127
1.18459
1.18269
1.18069
1.17871
1.17659
1.1743
1.1718
1.16906
1.16614
1.16311
1.16008
1.15712
1.15447
1.15214
1.15022
1.14846
1.14688
1.14536
1.14395
1.14247
1.14086
1.13896
1.13665
1.13385
1.13066
1.12708
1.18363
1.18165
1.17967
1.17757
1.1753
1.17287
1.17021
1.16735
1.16436
1.16139
1.1586
1.15605
1.15389
1.15195
1.15029
1.14871
1.14732
1.14599
1.14474
1.14335
1.14179
1.13988
1.13747
1.13448
1.13102
1.12713
1.18255
1.1806
1.17854
1.17631
1.17389
1.17129
1.16852
1.16562
1.16268
1.1599
1.15746
1.15537
1.15364
1.15201
1.15055
1.14918
1.14796
1.14675
1.14557
1.14419
1.14262
1.14064
1.13813
1.13503
1.13133
1.12711
1.18139
1.17942
1.17727
1.17492
1.17235
1.16961
1.16677
1.16393
1.1612
1.15876
1.15673
1.15507
1.15365
1.15226
1.15103
1.14986
1.14876
1.14762
1.14641
1.14495
1.14326
1.14112
1.1385
1.13533
1.13151
1.12703
1.18014
1.17808
1.17583
1.17337
1.17068
1.16787
1.16506
1.1624
1.16002
1.15802
1.1564
1.15504
1.15384
1.15271
1.15172
1.15071
1.14967
1.14853
1.14722
1.14558
1.14367
1.14131
1.13858
1.13535
1.13149
1.12693
1.17876
1.17658
1.17422
1.17167
1.16896
1.16618
1.16352
1.16117
1.15921
1.15766
1.15635
1.15521
1.15426
1.15337
1.15256
1.15168
1.15066
1.14945
1.14795
1.14606
1.14386
1.1413
1.13842
1.13508
1.13117
1.12664
1.17727
1.17495
1.17247
1.16989
1.16725
1.16466
1.1623
1.16035
1.15881
1.15758
1.1565
1.15561
1.1549
1.1542
1.15352
1.15269
1.15164
1.1503
1.14859
1.14643
1.14396
1.14115
1.13805
1.13452
1.13052
1.12607
1.17564
1.1732
1.17065
1.1681
1.16565
1.1634
1.16149
1.15998
1.15875
1.15773
1.15688
1.15623
1.1557
1.15513
1.15451
1.15367
1.15251
1.15103
1.1491
1.1467
1.14398
1.14087
1.13747
1.13372
1.12967
1.12533
1.17388
1.1714
1.16886
1.16645
1.16431
1.16253
1.16111
1.15994
1.15893
1.15814
1.15752
1.15705
1.15662
1.1561
1.15544
1.1545
1.15318
1.15151
1.1494
1.14684
1.14391
1.14044
1.1367
1.13277
1.12873
1.12458
1.17206
1.16961
1.16722
1.16511
1.1634
1.1621
1.16104
1.16013
1.15938
1.15884
1.1584
1.15802
1.15761
1.15703
1.15625
1.15512
1.15355
1.15171
1.14946
1.1468
1.14368
1.13991
1.13585
1.13174
1.12769
1.12378
1.11994
1.17024
1.16796
1.1659
1.16421
1.16295
1.162
1.1612
1.16058
1.16011
1.15976
1.15943
1.15908
1.1586
1.15789
1.15689
1.15548
1.15368
1.15166
1.14924
1.1465
1.14324
1.13936
1.13515
1.13086
1.12676
1.12299
1.11946
1.16857
1.16662
1.16501
1.16379
1.16286
1.16215
1.16163
1.1613
1.16104
1.16082
1.16052
1.16013
1.15953
1.15861
1.15734
1.15566
1.15365
1.15142
1.14875
1.1459
1.14252
1.1387
1.13461
1.13044
1.12632
1.12257
1.11914
1.16723
1.16572
1.16459
1.16371
1.16302
1.16258
1.16235
1.16223
1.1621
1.16192
1.16159
1.16109
1.16029
1.15912
1.15762
1.15571
1.1535
1.15096
1.14802
1.14503
1.14158
1.13797
1.13413
1.13028
1.12639
1.12261
1.11912
1.16639
1.16533
1.16452
1.16389
1.16349
1.16333
1.1633
1.16328
1.1632
1.16298
1.16254
1.16183
1.16079
1.15941
1.15775
1.15566
1.1532
1.15028
1.1471
1.14397
1.1406
1.13731
1.1338
1.13026
1.12657
1.12291
1.11948
1.16606
1.1653
1.16473
1.16439
1.1643
1.16433
1.16438
1.16438
1.16425
1.16391
1.16326
1.16228
1.161
1.15945
1.15768
1.1554
1.15266
1.14943
1.14609
1.14283
1.13963
1.13667
1.13356
1.13038
1.1269
1.12339
1.1199
1.16609
1.16557
1.16528
1.16524
1.16532
1.16545
1.16551
1.16545
1.1652
1.16463
1.1637
1.16245
1.16096
1.15928
1.15733
1.15486
1.15194
1.14856
1.14513
1.14179
1.13875
1.13601
1.13329
1.13046
1.12728
1.12399
1.12025
1.1664
1.16618
1.16618
1.1663
1.16649
1.16661
1.1666
1.16642
1.16595
1.1651
1.16389
1.16243
1.16074
1.15883
1.1566
1.15401
1.15104
1.14772
1.14441
1.14116
1.13821
1.13555
1.13303
1.13041
1.12763
1.12447
1.12056
1.16704
1.16711
1.16729
1.16752
1.16768
1.16768
1.16756
1.16718
1.16644
1.16534
1.16392
1.16227
1.16029
1.15805
1.15559
1.15297
1.15007
1.14696
1.14391
1.14093
1.13814
1.13548
1.13292
1.13033
1.12778
1.12464
1.12082
1.16795
1.16824
1.16854
1.16874
1.16876
1.16864
1.16828
1.16763
1.16665
1.16539
1.16384
1.16191
1.15959
1.15706
1.15446
1.15186
1.14913
1.14634
1.14361
1.14087
1.13825
1.13566
1.13298
1.13031
1.12771
1.12454
1.12088
1.16912
1.1695
1.16976
1.16981
1.16969
1.16933
1.16868
1.16778
1.16666
1.16528
1.1635
1.16126
1.15869
1.156
1.15334
1.15078
1.14825
1.14578
1.14339
1.14095
1.13855
1.13594
1.13309
1.13031
1.12748
1.12422
1.12073
1.17043
1.17073
1.17081
1.17071
1.17035
1.16969
1.1688
1.16774
1.16647
1.16484
1.16278
1.16038
1.15776
1.15505
1.15237
1.14988
1.14754
1.14533
1.1432
1.14109
1.13889
1.13619
1.13323
1.13025
1.12704
1.12366
1.12034
1.17167
1.17179
1.17171
1.17136
1.1707
1.1698
1.16875
1.1675
1.16592
1.16399
1.16179
1.1594
1.15685
1.15425
1.15175
1.1494
1.14716
1.14506
1.14306
1.14113
1.139
1.13639
1.13338
1.13002
1.1264
1.12296
1.11964
1.17271
1.17264
1.17232
1.1717
1.17083
1.16978
1.16852
1.16694
1.16503
1.16291
1.16065
1.15829
1.15593
1.15365
1.15146
1.14936
1.14723
1.14507
1.14294
1.14096
1.13896
1.13654
1.1334
1.12962
1.12573
1.12219
1.11868
1.17351
1.1732
1.17263
1.17184
1.17083
1.16955
1.16791
1.166
1.16396
1.16177
1.15945
1.15719
1.15509
1.1532
1.1514
1.14951
1.14742
1.14515
1.14285
1.14077
1.13883
1.13644
1.13309
1.12908
1.12506
1.12137
1.11763
1.17399
1.17345
1.17274
1.17179
1.17053
1.16889
1.167
1.16501
1.16291
1.16062
1.15834
1.15626
1.15444
1.1529
1.15143
1.14976
1.14767
1.14525
1.14277
1.14055
1.13852
1.13596
1.13239
1.12837
1.12435
1.12054
1.11668
1.1742
1.17353
1.17264
1.17139
1.16975
1.16791
1.16604
1.16408
1.1619
1.15965
1.15752
1.15565
1.15406
1.15272
1.15143
1.14983
1.14771
1.14526
1.14271
1.14027
1.1379
1.13505
1.13148
1.12756
1.12362
1.1198
1.11599
1.17427
1.1734
1.17214
1.17052
1.16872
1.16688
1.16501
1.1631
1.16108
1.15906
1.15722
1.15555
1.15402
1.15262
1.15123
1.14965
1.14771
1.14528
1.14258
1.13979
1.13695
1.13388
1.13047
1.12671
1.12289
1.11919
1.11564
1.17408
1.17278
1.17119
1.16946
1.16762
1.16571
1.16388
1.16218
1.1605
1.15885
1.15726
1.15567
1.15408
1.15247
1.15089
1.14937
1.14755
1.14509
1.14218
1.13904
1.13589
1.13275
1.12942
1.12585
1.12228
1.11883
1.11556
1.17334
1.17181
1.17018
1.16839
1.16642
1.16452
1.16285
1.16146
1.16016
1.15884
1.15743
1.15587
1.15413
1.15229
1.15059
1.149
1.14708
1.14451
1.14145
1.13815
1.1349
1.13168
1.12841
1.12504
1.12186
1.11878
1.1157
1.17233
1.1709
1.16922
1.16721
1.16526
1.16351
1.16213
1.16102
1.15996
1.1588
1.1575
1.15591
1.15406
1.15219
1.1504
1.14846
1.1462
1.1435
1.14041
1.13718
1.13398
1.13072
1.1275
1.12442
1.12178
1.1189
1.11594
1.17147
1.16999
1.16808
1.16614
1.16439
1.16299
1.16191
1.16092
1.15983
1.15861
1.15723
1.15568
1.15404
1.15223
1.15009
1.14762
1.14497
1.14218
1.13933
1.13633
1.13315
1.12991
1.12681
1.12422
1.12193
1.11913
1.11622
1.17061
1.16885
1.16702
1.16536
1.16399
1.16297
1.1621
1.16107
1.15972
1.15817
1.15666
1.15545
1.15419
1.15214
1.1494
1.14641
1.14347
1.14091
1.13846
1.13558
1.13243
1.12926
1.1265
1.12435
1.12217
1.11936
1.1165
1.16948
1.16773
1.16617
1.16489
1.164
1.16335
1.16252
1.16119
1.1594
1.1575
1.15607
1.15535
1.15406
1.15145
1.14833
1.14505
1.14211
1.13993
1.13773
1.13488
1.1318
1.12891
1.12652
1.12468
1.12241
1.11959
1.11681
1.16836
1.16684
1.1656
1.16472
1.16426
1.16383
1.1628
1.16099
1.15881
1.1569
1.15572
1.15505
1.15316
1.15022
1.14704
1.14388
1.14118
1.13925
1.13703
1.13422
1.13139
1.12884
1.12685
1.12506
1.1226
1.11981
1.11719
1.16756
1.16633
1.16541
1.16486
1.16454
1.16385
1.16247
1.16047
1.15836
1.15664
1.15545
1.15405
1.15165
1.14867
1.14559
1.1428
1.14067
1.13875
1.13633
1.13369
1.13122
1.12908
1.1274
1.12537
1.12275
1.12007
1.11764
1.16719
1.16628
1.16564
1.16527
1.16458
1.16329
1.1616
1.15985
1.15815
1.15652
1.15475
1.15248
1.14977
1.147
1.14441
1.14227
1.14045
1.1383
1.1358
1.13342
1.1313
1.12966
1.12793
1.12557
1.1229
1.1204
1.11819
1.16733
1.16668
1.16623
1.16547
1.16406
1.16223
1.16061
1.15941
1.15804
1.156
1.15347
1.15062
1.14789
1.14561
1.1438
1.14216
1.14021
1.13784
1.13547
1.13337
1.13174
1.1303
1.12828
1.12571
1.1231
1.12077
1.11876
1.16776
1.16737
1.16673
1.16517
1.16304
1.16114
1.15985
1.15903
1.15744
1.1548
1.15181
1.1489
1.14647
1.14487
1.14364
1.142
1.13983
1.13749
1.13533
1.1336
1.13238
1.13078
1.12845
1.12581
1.12336
1.12123
1.11926
1.16818
1.16766
1.16637
1.16428
1.16213
1.16032
1.15909
1.15809
1.15599
1.15323
1.15033
1.14778
1.14582
1.14466
1.14349
1.14166
1.13947
1.1373
1.13541
1.13415
1.13294
1.13098
1.1285
1.12595
1.12364
1.12174
1.11961
1.16804
1.16712
1.16559
1.16351
1.16141
1.15955
1.15802
1.15643
1.15415
1.15155
1.14914
1.14714
1.14573
1.14464
1.14321
1.14126
1.13921
1.13732
1.13589
1.1348
1.13324
1.13102
1.1285
1.12613
1.12405
1.1222
1.11977
1.16736
1.16601
1.16458
1.16277
1.16065
1.15851
1.15647
1.15444
1.15233
1.15033
1.14855
1.14712
1.14588
1.14457
1.14281
1.14097
1.13921
1.13776
1.13662
1.13527
1.13329
1.13093
1.12856
1.1264
1.12457
1.12253
1.11978
1.16622
1.16471
1.16334
1.16174
1.1596
1.15718
1.1549
1.15278
1.15105
1.1497
1.14852
1.14732
1.14599
1.1443
1.14254
1.14093
1.1396
1.13847
1.1372
1.13542
1.1332
1.13084
1.12866
1.12683
1.12505
1.12263
1.1197
1.16492
1.16316
1.16184
1.16037
1.1582
1.15591
1.15377
1.15193
1.15053
1.14954
1.14863
1.14743
1.14584
1.14409
1.14249
1.14122
1.1402
1.13904
1.13745
1.13536
1.13302
1.13082
1.12895
1.12734
1.12531
1.12259
1.1196
1.16352
1.16163
1.16011
1.15869
1.15679
1.15482
1.15307
1.15161
1.15046
1.14957
1.14866
1.14732
1.14568
1.14409
1.14276
1.14173
1.14071
1.13933
1.13741
1.13515
1.13295
1.13099
1.12939
1.12767
1.12529
1.1224
1.11959
1.16215
1.16016
1.15848
1.15708
1.15569
1.15423
1.15287
1.15165
1.15058
1.14966
1.14861
1.14722
1.14576
1.14443
1.14327
1.14222
1.141
1.13926
1.13716
1.13502
1.13304
1.13138
1.12981
1.12775
1.12506
1.12222
1.11977
1.1608
1.15884
1.15722
1.15597
1.155
1.15402
1.15292
1.15181
1.15074
1.14969
1.14855
1.14733
1.14609
1.1449
1.14374
1.14256
1.14095
1.13899
1.13695
1.13503
1.13336
1.13184
1.13002
1.12757
1.12476
1.12222
1.12013
1.15969
1.15801
1.15665
1.15557
1.15471
1.15393
1.153
1.15196
1.15086
1.14974
1.14866
1.14758
1.14643
1.14524
1.14406
1.14256
1.14069
1.13874
1.13691
1.13527
1.13377
1.13208
1.1299
1.12722
1.12464
1.12246
1.12062
1.15895
1.15763
1.1565
1.15554
1.15476
1.15402
1.15315
1.15212
1.15102
1.14994
1.14891
1.14784
1.14667
1.14547
1.14409
1.14232
1.14045
1.13867
1.13709
1.13563
1.13403
1.13204
1.12951
1.12696
1.12478
1.12291
1.12098
1.15856
1.15755
1.15655
1.15567
1.15492
1.1542
1.15333
1.15232
1.15126
1.15021
1.14915
1.14801
1.14681
1.14549
1.14387
1.14209
1.14037
1.13879
1.13736
1.13588
1.13406
1.13166
1.12914
1.12698
1.12515
1.1234
1.12115
1.15837
1.15758
1.15671
1.15589
1.15515
1.15441
1.15353
1.15253
1.15149
1.15042
1.14929
1.14807
1.14678
1.14531
1.14368
1.14206
1.14047
1.13897
1.13755
1.13594
1.13372
1.13126
1.12909
1.12724
1.12563
1.12365
1.12106
1.15845
1.15772
1.15692
1.15614
1.15541
1.15462
1.1537
1.1527
1.15166
1.15055
1.14934
1.14803
1.14662
1.14514
1.14367
1.14216
1.14062
1.13911
1.13758
1.13561
1.13333
1.13122
1.12932
1.12768
1.12589
1.1236
1.12075
1.15865
1.15793
1.15715
1.15639
1.15566
1.1548
1.15382
1.15279
1.15174
1.15061
1.14934
1.14794
1.14648
1.14508
1.14371
1.14227
1.14073
1.13915
1.13729
1.13518
1.13323
1.13141
1.12973
1.128
1.12592
1.12327
1.12054
1.15889
1.15813
1.15734
1.15662
1.15586
1.15492
1.15386
1.15279
1.15173
1.15059
1.14928
1.14786
1.14644
1.14509
1.14374
1.14231
1.14074
1.13893
1.13694
1.1351
1.13336
1.13172
1.13004
1.12811
1.12563
1.12295
1.12068
1.1591
1.15829
1.1575
1.15679
1.15599
1.15497
1.15386
1.15275
1.15167
1.15052
1.14922
1.14783
1.14644
1.14509
1.14373
1.14225
1.14052
1.13866
1.13689
1.13522
1.1336
1.13195
1.13015
1.12788
1.12532
1.12305
1.12103
1.15928
1.15842
1.15761
1.15688
1.15602
1.15495
1.15381
1.15268
1.15158
1.15043
1.14916
1.1478
1.14642
1.14506
1.14364
1.14204
1.14032
1.13862
1.13699
1.13542
1.1338
1.13203
1.12992
1.12753
1.12536
1.12337
1.12153
1.15943
1.15852
1.15766
1.15688
1.15599
1.1549
1.15374
1.1526
1.1515
1.15036
1.1491
1.14774
1.14634
1.14494
1.14347
1.14191
1.1403
1.13868
1.13711
1.13556
1.13388
1.13185
1.12958
1.12751
1.12562
1.12382
1.12189
1.15952
1.15856
1.15766
1.15683
1.15592
1.15482
1.15365
1.1525
1.1514
1.15028
1.14903
1.14765
1.14621
1.14479
1.14339
1.14191
1.14034
1.13875
1.13719
1.13559
1.13373
1.13161
1.12959
1.12772
1.12598
1.12413
1.12205
1.15953
1.15855
1.15762
1.15678
1.15586
1.15475
1.15357
1.1524
1.1513
1.1502
1.14895
1.14755
1.14611
1.14472
1.14336
1.14194
1.14039
1.13879
1.13717
1.13543
1.13352
1.13162
1.12978
1.12803
1.12623
1.12426
1.12188
1.15948
1.15848
1.15755
1.15671
1.15579
1.15467
1.15348
1.1523
1.15119
1.15009
1.14885
1.14747
1.14606
1.14469
1.14335
1.14193
1.14038
1.13875
1.13705
1.1353
1.13353
1.13177
1.13003
1.12825
1.12634
1.1241
1.12158
1.15938
1.15838
1.15745
1.15663
1.1557
1.15457
1.15337
1.15219
1.15109
1.15
1.14876
1.1474
1.14601
1.14467
1.14333
1.14187
1.14028
1.13862
1.13697
1.13533
1.13365
1.13192
1.13018
1.12835
1.12621
1.12384
1.12163
1.15922
1.15823
1.15735
1.15657
1.1556
1.15444
1.15322
1.15206
1.15101
1.14993
1.14867
1.1473
1.14593
1.14462
1.14329
1.1418
1.14017
1.13855
1.137
1.13545
1.13377
1.13202
1.13022
1.12823
1.12604
1.12392
1.12192
1.15899
1.15802
1.15725
1.15654
1.1555
1.15428
1.15305
1.15193
1.15095
1.14988
1.14858
1.14718
1.14581
1.14457
1.14326
1.14174
1.14011
1.13855
1.13709
1.13554
1.13382
1.13201
1.13013
1.12813
1.12613
1.12417
1.12227
1.15874
1.1578
1.15718
1.15648
1.15537
1.15412
1.15288
1.15182
1.15091
1.1498
1.14845
1.14704
1.14573
1.14455
1.14323
1.14168
1.1401
1.13861
1.13717
1.13555
1.13377
1.13193
1.13011
1.12824
1.12633
1.12444
1.12255
1.15851
1.15766
1.15713
1.15634
1.15518
1.15395
1.15277
1.15181
1.15087
1.14965
1.14828
1.14693
1.14573
1.14457
1.14317
1.14161
1.14009
1.1387
1.13722
1.1355
1.13368
1.13194
1.13024
1.12843
1.12654
1.12466
1.12273
1.15835
1.15767
1.15708
1.15611
1.15494
1.15376
1.15274
1.15188
1.1508
1.14946
1.1481
1.14687
1.14582
1.14458
1.14307
1.14152
1.1401
1.13878
1.1372
1.13541
1.13368
1.13207
1.13039
1.12856
1.12669
1.1248
1.12271
1.1583
1.1578
1.15698
1.15585
1.15465
1.15359
1.1528
1.15193
1.15067
1.14927
1.14794
1.14689
1.14589
1.14452
1.14296
1.14147
1.14017
1.1388
1.13712
1.13539
1.13378
1.13222
1.13048
1.12862
1.12677
1.1248
1.12259
1.15839
1.1578
1.15678
1.15559
1.15444
1.15355
1.15286
1.15183
1.15049
1.1491
1.1479
1.14698
1.14584
1.14437
1.14285
1.14148
1.14025
1.13875
1.13705
1.13542
1.13394
1.13231
1.13049
1.12861
1.12677
1.12478
1.12269
1.15845
1.15757
1.15647
1.15536
1.15442
1.1537
1.15283
1.15158
1.15023
1.14899
1.14801
1.14703
1.14569
1.14418
1.14277
1.14158
1.14028
1.13865
1.13699
1.13552
1.13405
1.13232
1.13043
1.12864
1.12683
1.12485
1.12288
1.15831
1.15723
1.1562
1.15529
1.15462
1.15382
1.15261
1.1513
1.15008
1.14909
1.1482
1.14691
1.14541
1.14403
1.14286
1.14171
1.14018
1.13853
1.13704
1.13567
1.13407
1.13223
1.13047
1.12877
1.12693
1.12499
1.1231
1.21707
1.21873
1.21735
1.21604
1.22055
1.21923
1.21799
1.21682
1.22231
1.22102
1.21981
1.21869
1.21765
1.21668
1.22336
1.22207
1.22087
1.21976
1.21871
1.21773
1.2168
1.22567
1.22437
1.22316
1.22202
1.22096
1.21996
1.21903
1.21818
1.2174
1.15794
1.15688
1.15603
1.15551
1.15474
1.15359
1.15236
1.15116
1.15017
1.1493
1.14811
1.1467
1.14533
1.14412
1.14301
)
;

boundaryField
{
    inlet
    {
        type            fixedValue;
        value           nonuniform 0();
    }
    outlet
    {
        type            inletOutlet;
        inletValue      nonuniform 0();
        value           nonuniform 0();
    }
    triangle
    {
        type            zeroGradient;
    }
    top
    {
        type            symmetryPlane;
    }
    bottom
    {
        type            symmetryPlane;
    }
    defaultFaces
    {
        type            empty;
    }
    procBoundary20to11
    {
        type            processor;
        value           nonuniform List<scalar> 6(1.21857 1.22016 1.22194 1.22369 1.22474 1.22707);
    }
    procBoundary20to12
    {
        type            processor;
        value           nonuniform List<scalar> 
15
(
1.2158
1.21563
1.21563
1.21422
1.21479
1.21479
1.21574
1.21574
1.21472
1.21575
1.21575
1.21594
1.21594
1.21512
1.21667
)
;
    }
    procBoundary20to19
    {
        type            processor;
        value           nonuniform List<scalar> 
120
(
1.22567
1.22336
1.22231
1.22055
1.21873
1.21707
1.2158
1.21487
1.2142
1.21364
1.21311
1.21252
1.21187
1.21115
1.2104
1.20961
1.20881
1.20799
1.20716
1.20634
1.20552
1.20471
1.20391
1.20312
1.20234
1.20159
1.20085
1.20013
1.19941
1.1987
1.19801
1.19735
1.19672
1.19611
1.19551
1.19491
1.19434
1.19378
1.19324
1.1927
1.19215
1.19161
1.1911
1.19062
1.19018
1.18977
1.18935
1.1889
1.1884
1.18785
1.18722
1.18644
1.1855
1.18444
1.18328
1.18204
1.18076
1.17938
1.17787
1.17622
1.17444
1.1726
1.17078
1.16913
1.16786
1.16709
1.16678
1.1668
1.1671
1.16777
1.16875
1.17
1.17135
1.17259
1.1736
1.17434
1.17476
1.17495
1.17501
1.17471
1.17383
1.17275
1.17187
1.1711
1.17001
1.16905
1.16841
1.16823
1.1683
1.16849
1.16862
1.16852
1.16788
1.16682
1.16568
1.16443
1.163
1.16157
1.16041
1.15952
1.15898
1.15896
1.15911
1.15939
1.15973
1.16004
1.16028
1.16042
1.16047
1.16045
1.16037
1.16023
1.16001
1.15977
1.15954
1.15931
1.15904
1.15885
1.15892
1.15923
)
;
    }
    procBoundary20to21
    {
        type            processor;
        value           nonuniform List<scalar> 
96
(
1.17803
1.17447
1.17129
1.16776
1.16426
1.1607
1.15699
1.15317
1.14947
1.14605
1.14307
1.14052
1.13836
1.13652
1.13492
1.13347
1.1321
1.13076
1.1295
1.12836
1.12736
1.12644
1.12549
1.12446
1.12335
1.12221
1.1211
1.12004
1.11903
1.11809
1.11722
1.11639
1.11556
1.11478
1.11416
1.11386
1.11387
1.11411
1.11458
1.11513
1.11573
1.11636
1.11706
1.11789
1.11888
1.12
1.12112
1.12207
1.12277
1.12317
1.12329
1.12322
1.12304
1.12269
1.12224
1.12188
1.12163
1.12128
1.12082
1.12037
1.12037
1.11612
1.11615
1.1161
1.11608
1.11618
1.11627
1.1164
1.11668
1.11694
1.117
1.11672
1.11606
1.11513
1.11416
1.11331
1.11272
1.11242
1.11239
1.11252
1.11278
1.11307
1.11337
1.11373
1.11418
1.11474
1.11535
1.1159
1.11632
1.11659
1.11674
1.11677
1.11675
1.11677
1.11692
1.11726
)
;
    }
    procBoundary20to27
    {
        type            processor;
        value           uniform 1.15917;
    }
    procBoundary20to28
    {
        type            processor;
        value           nonuniform List<scalar> 
28
(
1.14162
1.14008
1.13859
1.1372
1.1357
1.13401
1.13232
1.13067
1.12892
1.12707
1.12524
1.12339
1.15761
1.15674
1.15632
1.15568
1.15455
1.15336
1.15221
1.15125
1.15042
1.14926
1.14793
1.14661
1.14541
1.14431
1.14162
1.14301
)
;
    }
    procBoundary20to29
    {
        type            processor;
        value           nonuniform List<scalar> 
25
(
1.11774
1.1182
1.11846
1.11849
1.11831
1.11804
1.118
1.11825
1.11869
1.11924
1.11957
1.1197
1.1195
1.11919
1.11927
1.11959
1.12
1.12034
1.12056
1.12054
1.12036
1.1204
1.12066
1.12097
1.1212
)
;
    }
}


// ************************************************************************* //
