/*--------------------------------*- C++ -*----------------------------------*\
  =========                 |
  \\      /  F ield         | OpenFOAM: The Open Source CFD Toolbox
   \\    /   O peration     | Website:  https://openfoam.org
    \\  /    A nd           | Version:  7
     \\/     M anipulation  |
\*---------------------------------------------------------------------------*/
FoamFile
{
    version     2.0;
    format      ascii;
    class       volScalarField;
    location    "0.2";
    object      p;
}
// * * * * * * * * * * * * * * * * * * * * * * * * * * * * * * * * * * * * * //

dimensions      [1 -1 -2 0 0 0 0];

internalField   nonuniform List<scalar> 
3225
(
0.195579
0.199009
0.198951
0.204469
0.216584
0.235095
0.276212
0.352831
0.386708
0.446266
0.720722
0.863653
0.880237
0.900447
0.930481
0.948555
0.961132
0.974379
0.989379
1.00905
1.04238
1.08432
0.192848
0.195728
0.195599
0.1999
0.21171
0.22887
0.269933
0.341006
0.376531
0.49609
0.7914
0.863305
0.876344
0.898601
0.930121
0.948995
0.960844
0.975957
0.990993
1.00915
1.03883
1.08141
0.190095
0.19281
0.192699
0.19485
0.205431
0.220559
0.262859
0.325962
0.3729
0.585632
0.831415
0.857124
0.875158
0.899162
0.93057
0.950131
0.960978
0.976489
0.99071
1.00816
1.03533
1.07928
0.185463
0.188088
0.188216
0.189224
0.197701
0.210956
0.257088
0.311906
0.379783
0.682472
0.841284
0.853058
0.876721
0.90105
0.930782
0.951011
0.961214
0.974997
0.987428
1.00467
1.032
1.0777
0.180614
0.184955
0.184543
0.185946
0.193399
0.206814
0.253436
0.305575
0.429752
0.759198
0.840753
0.854039
0.879638
0.902943
0.930151
0.950575
0.961309
0.972808
0.984157
1.00198
1.03019
1.0762
0.173747
0.180461
0.182383
0.186477
0.192706
0.206104
0.250695
0.302515
0.51377
0.79509
0.84094
0.859454
0.881441
0.904318
0.929588
0.949456
0.961398
0.972903
0.984864
1.00294
1.02997
1.07401
0.166438
0.179095
0.181011
0.184716
0.19013
0.206904
0.247227
0.30328
0.611322
0.807565
0.843626
0.865443
0.881887
0.905403
0.929836
0.948988
0.96325
0.976001
0.988589
1.00563
1.02983
1.07125
0.156907
0.175229
0.179754
0.184232
0.189753
0.207743
0.240379
0.323824
0.688004
0.81476
0.847832
0.868003
0.881597
0.90699
0.932262
0.950557
0.967193
0.980826
0.993514
1.00786
1.02815
1.06851
0.149386
0.170165
0.179173
0.183695
0.189003
0.206046
0.233313
0.392843
0.745078
0.822526
0.849721
0.867284
0.882272
0.910487
0.937357
0.954416
0.97116
0.984073
0.996185
1.00804
1.02529
1.06691
0.142645
0.16095
0.176825
0.182882
0.188992
0.204385
0.228404
0.477984
0.77521
0.829249
0.848974
0.865854
0.886437
0.915634
0.942909
0.958469
0.973701
0.98492
0.995406
1.00625
1.0238
1.06672
0.138692
0.151871
0.17
0.178255
0.188281
0.2006
0.22613
0.557896
0.801173
0.831943
0.845433
0.867885
0.893207
0.920772
0.946647
0.960937
0.974274
0.983124
0.99226
1.00499
1.02479
1.06708
0.135148
0.142431
0.15863
0.170324
0.184692
0.192302
0.252834
0.64524
0.810581
0.829727
0.844134
0.873159
0.89982
0.924573
0.947761
0.961143
0.973318
0.981115
0.991552
1.00696
1.02722
1.0668
0.130017
0.133862
0.147183
0.160232
0.178715
0.189163
0.30918
0.72142
0.806066
0.824447
0.847784
0.87879
0.904251
0.926311
0.946221
0.960648
0.974258
0.983254
0.994775
1.01057
1.02889
1.06503
0.123132
0.126057
0.137359
0.152043
0.171664
0.183392
0.363239
0.758505
0.801902
0.820996
0.854541
0.882427
0.905966
0.926096
0.944714
0.962956
0.978257
0.988611
1.00009
1.01312
1.02842
1.06248
0.116593
0.119995
0.128582
0.144495
0.162211
0.178294
0.424786
0.769765
0.793443
0.822085
0.860688
0.883481
0.905269
0.928043
0.948493
0.96763
0.982645
0.993685
1.0037
1.01357
1.02578
1.06109
0.109185
0.115491
0.123577
0.141228
0.152823
0.178553
0.484746
0.764978
0.787784
0.826681
0.863287
0.882607
0.906462
0.934898
0.955744
0.972725
0.986158
0.996844
1.0047
1.01184
1.02371
1.06146
0.103683
0.111405
0.119509
0.139531
0.149296
0.191908
0.555184
0.758786
0.787739
0.83071
0.863305
0.884589
0.91373
0.944249
0.964103
0.978081
0.989058
0.997819
1.00343
1.01029
1.02473
1.06296
0.101452
0.108198
0.116496
0.136798
0.146063
0.212169
0.604863
0.749733
0.790999
0.832768
0.863217
0.893636
0.925228
0.955447
0.972746
0.984223
0.992747
0.99877
1.00365
1.01293
1.02835
1.06421
0.102206
0.106476
0.113092
0.132714
0.140599
0.232799
0.63194
0.743094
0.79497
0.833947
0.869083
0.907074
0.939429
0.965373
0.980049
0.991982
0.998672
1.00215
1.00797
1.01852
1.03227
1.06445
0.104665
0.105646
0.110609
0.126972
0.132707
0.27097
0.655065
0.742685
0.795846
0.837698
0.881721
0.922087
0.951515
0.970404
0.986099
1.00062
1.00713
1.01086
1.0172
1.02558
1.03544
1.06363
0.106778
0.103935
0.109129
0.119661
0.127062
0.330586
0.673713
0.740988
0.796264
0.847974
0.896527
0.933416
0.956974
0.972342
0.992662
1.0086
1.01599
1.02062
1.0259
1.03138
1.03704
1.06305
0.105218
0.0997417
0.106114
0.110891
0.120634
0.398927
0.676944
0.737781
0.800222
0.861943
0.90821
0.937212
0.957059
0.977792
0.999397
1.01424
1.02332
1.02901
1.03223
1.03416
1.03818
1.06439
0.1005
0.0937481
0.102772
0.0980927
0.129278
0.482584
0.6726
0.735309
0.808059
0.874065
0.912847
0.934092
0.959247
0.985582
1.00402
1.01698
1.02815
1.03461
1.03521
1.03472
1.03943
1.06742
0.096812
0.0918892
0.101936
0.0965268
0.172017
0.547204
0.66588
0.735369
0.817208
0.880251
0.910269
0.932576
0.96504
0.991193
1.00562
1.01818
1.03091
1.03694
1.03579
1.03657
1.04368
1.0713
0.0955877
0.0961313
0.101403
0.0980311
0.21724
0.582412
0.662585
0.737484
0.824452
0.878513
0.906919
0.936528
0.969843
0.992063
1.00592
1.02029
1.03264
1.03741
1.03756
1.04191
1.0496
1.0749
0.0976738
0.103751
0.0988575
0.099362
0.280015
0.56924
0.648186
0.741697
0.825124
0.872535
0.908255
0.943091
0.971303
0.989327
1.00739
1.02395
1.03431
1.03864
1.0427
1.04897
1.05542
1.07752
0.101343
0.107854
0.0985567
0.141275
0.346876
0.546435
0.63661
0.744837
0.819675
0.869825
0.913079
0.94752
0.968604
0.98531
1.00867
1.0266
1.03579
1.04168
1.04881
1.05524
1.05997
1.07946
0.101845
0.108987
0.110403
0.17785
0.372338
0.521677
0.629749
0.74279
0.81468
0.871822
0.917262
0.947951
0.963264
0.983188
1.00825
1.02614
1.0365
1.04535
1.05381
1.05963
1.06287
1.08172
0.0997007
0.108193
0.124261
0.190532
0.367662
0.496077
0.6206
0.736353
0.81277
0.876263
0.918423
0.942966
0.959971
0.98335
1.00623
1.0238
1.03712
1.04803
1.05625
1.0615
1.06511
1.08525
0.102469
0.105974
0.131536
0.188708
0.346925
0.475398
0.615541
0.729431
0.814806
0.87963
0.914405
0.934986
0.959699
0.984643
1.00435
1.02169
1.03739
1.04899
1.05644
1.06233
1.06788
1.0897
0.10837
0.107556
0.134619
0.185319
0.327122
0.464229
0.608688
0.723476
0.818639
0.87872
0.905393
0.931191
0.961911
0.986298
1.00418
1.02118
1.03701
1.0482
1.05606
1.06399
1.07153
1.09391
0.113198
0.113134
0.135677
0.184838
0.31904
0.458009
0.599317
0.722296
0.820131
0.871067
0.898805
0.934066
0.964809
0.987353
1.00463
1.02109
1.0359
1.0469
1.05673
1.06678
1.07518
1.0971
0.116678
0.119521
0.137974
0.188483
0.316913
0.45587
0.594756
0.725811
0.81577
0.86116
0.900621
0.940335
0.966358
0.986135
1.00335
1.01929
1.03346
1.04597
1.05813
1.0694
1.07784
1.09917
0.121192
0.126347
0.143782
0.199161
0.322578
0.462648
0.600118
0.730092
0.807127
0.857788
0.908006
0.945587
0.965051
0.98228
1.00009
1.01632
1.03117
1.04524
1.05885
1.07069
1.07942
1.10099
0.127909
0.136599
0.155348
0.215965
0.335088
0.471534
0.61305
0.730985
0.80263
0.863341
0.916043
0.94748
0.961779
0.97927
0.998091
1.01457
1.02978
1.04409
1.05804
1.07061
1.0807
1.10375
0.138302
0.15252
0.170402
0.232046
0.34543
0.479977
0.627979
0.730748
0.807033
0.873366
0.922075
0.944527
0.960148
0.980062
0.998876
1.01451
1.02874
1.0421
1.05598
1.07004
1.08239
1.1074
0.15097
0.171353
0.193593
0.25098
0.35772
0.498632
0.641687
0.736828
0.818236
0.885034
0.923524
0.941194
0.962502
0.984018
1.00131
1.01506
1.02712
1.03936
1.05409
1.06998
1.08419
1.1107
0.166061
0.189674
0.226534
0.282751
0.385466
0.529459
0.657118
0.750696
0.835457
0.895905
0.92234
0.943112
0.968271
0.98862
1.00338
1.01443
1.02465
1.03724
1.05327
1.0703
1.08532
1.11272
0.183504
0.206446
0.258663
0.326676
0.428589
0.565124
0.676962
0.772691
0.856893
0.902774
0.925483
0.951422
0.975638
0.992178
1.00378
1.01273
1.02307
1.03661
1.05312
1.0701
1.08522
1.11343
0.202516
0.224088
0.280504
0.365468
0.468952
0.595371
0.69841
0.798596
0.873775
0.907342
0.935669
0.964093
0.983115
0.994794
1.00355
1.01218
1.02339
1.03684
1.05265
1.06885
1.08425
1.11398
0.221771
0.246623
0.297847
0.386812
0.493722
0.610606
0.717052
0.818826
0.877692
0.911383
0.95038
0.97689
0.989911
0.997682
1.00495
1.01368
1.02454
1.0367
1.05119
1.0671
1.08347
1.11547
0.239772
0.273457
0.319527
0.399855
0.503418
0.615468
0.733319
0.825738
0.873082
0.918734
0.963874
0.986257
0.99673
1.00391
1.01062
1.01727
1.02536
1.03547
1.04914
1.06576
1.08356
1.11766
0.255116
0.29946
0.349406
0.421286
0.518877
0.630331
0.746926
0.820957
0.870858
0.92997
0.97223
0.991452
1.00321
1.01203
1.01825
1.02161
1.02555
1.03379
1.04746
1.06497
1.08372
1.11924
0.26855
0.319124
0.381837
0.451028
0.544876
0.652853
0.754331
0.815673
0.877373
0.941231
0.975343
0.99367
1.00814
1.01883
1.02461
1.02606
1.0274
1.03373
1.04684
1.0641
1.0828
1.1194
0.282576
0.333879
0.403383
0.48162
0.570864
0.67296
0.754463
0.81649
0.891146
0.948157
0.97528
0.994998
1.01202
1.02307
1.02751
1.02825
1.03011
1.03597
1.04731
1.0627
1.08047
1.11844
0.298318
0.349
0.419873
0.504624
0.594853
0.685246
0.752693
0.825716
0.903325
0.948908
0.973408
0.995961
1.01497
1.0254
1.02923
1.03092
1.03416
1.03953
1.04834
1.06092
1.07758
1.11757
0.314713
0.366304
0.431112
0.521446
0.613241
0.687117
0.75718
0.840215
0.90837
0.9432
0.96933
0.996416
1.01755
1.02793
1.03221
1.03467
1.03779
1.04196
1.04901
1.05982
1.07613
1.11793
0.328358
0.38499
0.44369
0.526202
0.61907
0.689807
0.771869
0.853926
0.904291
0.932905
0.965351
0.996928
1.01929
1.03101
1.0368
1.03909
1.04044
1.04285
1.04911
1.06013
1.0764
1.11885
0.337462
0.400509
0.460684
0.5301
0.620471
0.702052
0.791046
0.859933
0.894785
0.926804
0.964925
0.997312
1.0196
1.03322
1.04085
1.04284
1.04207
1.04333
1.04973
1.06071
1.07661
1.11912
0.343854
0.409545
0.47955
0.546289
0.631407
0.720508
0.802891
0.853573
0.889621
0.931487
0.969729
0.997263
1.01762
1.03265
1.04195
1.04493
1.04449
1.04544
1.05123
1.06105
1.07571
1.11822
0.351561
0.415064
0.492598
0.564991
0.647642
0.734802
0.801436
0.845289
0.894758
0.944618
0.977545
0.997613
1.01457
1.02983
1.04052
1.0457
1.04778
1.04928
1.05313
1.06063
1.07348
1.11659
0.362772
0.42106
0.499979
0.580245
0.660931
0.739172
0.796867
0.850931
0.912574
0.957607
0.981066
0.995902
1.01199
1.0274
1.03919
1.04652
1.05091
1.05321
1.05542
1.06011
1.07152
1.11544
0.376058
0.429646
0.502195
0.5876
0.6651
0.736749
0.801635
0.874734
0.934393
0.964393
0.978953
0.993741
1.01132
1.02709
1.03916
1.04719
1.0523
1.05506
1.05736
1.06083
1.07129
1.11537
0.386173
0.442384
0.507928
0.585975
0.85151
0.852114
0.853225
0.855424
0.857841
0.860699
0.864033
0.866939
0.872088
0.888404
0.880246
0.873363
0.867062
0.86135
0.856579
0.853579
0.851302
0.848746
0.846556
0.845534
0.845083
0.846136
0.846976
0.847331
0.848947
0.851494
0.854082
0.857154
0.860613
0.86358
0.868837
0.881653
0.873554
0.866923
0.86068
0.855014
0.850807
0.84841
0.845722
0.842896
0.840912
0.839943
0.840542
0.842052
0.842073
0.842653
0.844741
0.847519
0.850368
0.853667
0.857112
0.860063
0.865538
0.874483
0.867008
0.86082
0.8544
0.848791
0.84527
0.842954
0.83971
0.837021
0.83507
0.834746
0.836455
0.837402
0.836954
0.838191
0.840669
0.843611
0.846717
0.850121
0.853418
0.856383
0.86223
0.867383
0.860977
0.85491
0.848076
0.842837
0.839814
0.836858
0.833308
0.830972
0.829431
0.830371
0.83223
0.831853
0.831988
0.834062
0.836836
0.839867
0.843038
0.846364
0.849521
0.852665
0.858985
0.860901
0.855352
0.848706
0.841769
0.83726
0.834065
0.830137
0.826637
0.824901
0.824567
0.826539
0.827024
0.825835
0.827387
0.830309
0.833267
0.836206
0.83914
0.842342
0.845602
0.849102
0.855847
0.855174
0.849435
0.841903
0.835624
0.83184
0.827773
0.823053
0.819946
0.819347
0.820587
0.822145
0.820589
0.820253
0.823256
0.826822
0.829701
0.832309
0.834944
0.838269
0.841978
0.845853
0.852788
0.849777
0.842434
0.834737
0.829743
0.826102
0.820961
0.815966
0.813832
0.814787
0.816628
0.81621
0.813916
0.815506
0.819653
0.823229
0.825647
0.827949
0.830673
0.834488
0.838839
0.842938
0.84968
0.843397
0.834534
0.827762
0.823904
0.81961
0.813815
0.809415
0.808941
0.810909
0.811332
0.808996
0.808181
0.811689
0.816231
0.818974
0.820863
0.823301
0.826704
0.831212
0.83613
0.840154
0.846308
0.835651
0.82654
0.821239
0.81758
0.812353
0.80675
0.803938
0.805289
0.806377
0.80434
0.80195
0.803595
0.808702
0.812208
0.813859
0.815653
0.81888
0.823306
0.82841
0.833426
0.836934
0.842579
0.827101
0.819273
0.815144
0.810479
0.804705
0.800304
0.799819
0.801685
0.800033
0.79658
0.796159
0.800152
0.805506
0.807116
0.808205
0.810743
0.815157
0.820484
0.825638
0.830031
0.832905
0.838793
0.819119
0.813201
0.808784
0.80264
0.79724
0.794881
0.796577
0.796219
0.792171
0.78961
0.79172
0.797623
0.800872
0.801063
0.802769
0.806708
0.81229
0.817843
0.822247
0.825594
0.828391
0.835358
0.812506
0.80768
0.801514
0.794612
0.790564
0.790762
0.792072
0.788655
0.784126
0.784162
0.788752
0.794132
0.794798
0.79481
0.798182
0.803665
0.809975
0.814702
0.817869
0.820515
0.824158
0.832482
0.806864
0.801443
0.79345
0.787063
0.785061
0.786792
0.785439
0.780072
0.77731
0.780036
0.786389
0.788748
0.787688
0.789356
0.794597
0.801477
0.807245
0.810503
0.812772
0.815874
0.820729
0.830153
0.801256
0.793776
0.785159
0.780416
0.780686
0.781292
0.777211
0.772011
0.772015
0.777381
0.78208
0.781746
0.781014
0.785035
0.792082
0.798995
0.803229
0.80528
0.80793
0.812421
0.818098
0.828178
0.794232
0.785161
0.77756
0.775044
0.775996
0.773868
0.768553
0.76551
0.76821
0.774457
0.775649
0.773839
0.775702
0.781833
0.789856
0.795089
0.797773
0.799846
0.804141
0.810115
0.816172
0.826133
0.785835
0.77662
0.771058
0.770335
0.769531
0.765112
0.760667
0.760672
0.766022
0.769243
0.767482
0.766905
0.771555
0.779726
0.786383
0.789686
0.791527
0.795276
0.801489
0.808605
0.81471
0.823264
0.776718
0.768767
0.765438
0.765053
0.761397
0.756018
0.754321
0.757674
0.762873
0.762048
0.758999
0.761465
0.76867
0.777084
0.781416
0.783232
0.785995
0.791973
0.799713
0.807239
0.812664
0.819256
0.767585
0.761886
0.760564
0.758341
0.752228
0.747965
0.74955
0.755636
0.756961
0.7533
0.752268
0.75744
0.766637
0.772623
0.775221
0.777042
0.782035
0.789728
0.798051
0.804976
0.80897
0.814715
0.759294
0.756268
0.755009
0.750246
0.743404
0.741653
0.746415
0.750752
0.74873
0.745071
0.747393
0.755251
0.763132
0.766687
0.768557
0.772339
0.779354
0.788148
0.795651
0.801108
0.803834
0.810776
0.75252
0.751019
0.747897
0.741519
0.736123
0.736988
0.742579
0.742946
0.73923
0.738918
0.744251
0.753381
0.757622
0.759675
0.762813
0.769067
0.777829
0.786024
0.79189
0.795633
0.798712
0.808049
0.746758
0.744927
0.739472
0.733131
0.730454
0.733792
0.736088
0.733133
0.73093
0.734414
0.743175
0.748851
0.750672
0.753024
0.758629
0.767118
0.776284
0.782631
0.786518
0.789828
0.794956
0.806429
0.741568
0.737119
0.730185
0.725833
0.726418
0.729852
0.727645
0.72321
0.72464
0.731777
0.739813
0.742185
0.743505
0.74801
0.755926
0.765811
0.773146
0.777767
0.780578
0.785554
0.792504
0.805425
0.734616
0.727852
0.721367
0.720002
0.723404
0.723625
0.718178
0.715252
0.719863
0.729334
0.733345
0.734411
0.737536
0.744513
0.754632
0.762945
0.768321
0.771817
0.776011
0.783127
0.79099
0.804423
0.726006
0.718777
0.713982
0.715377
0.718634
0.71567
0.709343
0.70932
0.716974
0.723853
0.725253
0.727086
0.732913
0.742687
0.752213
0.758042
0.762075
0.766537
0.773119
0.781798
0.790191
0.802515
0.717135
0.710495
0.707543
0.710797
0.71158
0.706763
0.70235
0.705271
0.713522
0.715932
0.717027
0.721594
0.730009
0.740511
0.747206
0.751606
0.756267
0.763242
0.771816
0.781373
0.789303
0.798887
0.708471
0.703024
0.70184
0.704708
0.702742
0.698084
0.697237
0.703332
0.706866
0.707168
0.710528
0.717905
0.728097
0.73593
0.740803
0.745249
0.752284
0.76156
0.771382
0.78058
0.786856
0.79398
0.70043
0.696447
0.696069
0.696689
0.692958
0.690943
0.694695
0.699048
0.698452
0.699627
0.705949
0.7157
0.724596
0.729908
0.734078
0.740434
0.749576
0.760539
0.770038
0.778024
0.782641
0.789433
0.693083
0.690032
0.689167
0.687618
0.68407
0.685806
0.691731
0.69182
0.690053
0.693718
0.702921
0.713374
0.719109
0.723113
0.728412
0.73689
0.747883
0.758465
0.766841
0.773569
0.777693
0.786326
0.685921
0.683201
0.681192
0.678555
0.67699
0.682143
0.685496
0.682913
0.683366
0.689689
0.700417
0.707916
0.712249
0.717218
0.724671
0.734799
0.745679
0.754738
0.762092
0.768402
0.77362
0.784742
0.678465
0.675513
0.672551
0.670387
0.67154
0.677274
0.676443
0.674461
0.678888
0.686835
0.695285
0.70103
0.706177
0.713179
0.722283
0.732819
0.742154
0.750131
0.757073
0.76425
0.770984
0.784226
0.670558
0.667012
0.663814
0.663758
0.66686
0.669125
0.666618
0.668367
0.675042
0.681879
0.689064
0.694873
0.701277
0.710074
0.720504
0.730035
0.738284
0.745656
0.752988
0.761216
0.769076
0.783252
0.662266
0.657776
0.655733
0.658372
0.660087
0.66
0.658693
0.663422
0.670308
0.67622
0.682782
0.689027
0.697065
0.708072
0.717952
0.726238
0.734054
0.741768
0.749838
0.758903
0.767362
0.780961
0.653494
0.648475
0.648661
0.652482
0.651889
0.651623
0.651788
0.658742
0.664736
0.66954
0.676233
0.684324
0.694599
0.704991
0.713542
0.721605
0.730116
0.738767
0.747646
0.757237
0.765498
0.777816
0.64481
0.63975
0.641801
0.645173
0.643399
0.643604
0.645983
0.653674
0.657568
0.662424
0.671384
0.680651
0.690825
0.700035
0.70865
0.71773
0.727325
0.736624
0.745761
0.75512
0.762932
0.774536
0.636153
0.631201
0.634762
0.637156
0.635041
0.637214
0.640281
0.64643
0.650386
0.657131
0.666737
0.676113
0.686239
0.695103
0.704336
0.714446
0.724674
0.734316
0.743552
0.752618
0.760126
0.771597
0.628051
0.623281
0.627592
0.628447
0.627352
0.630904
0.632765
0.639328
0.644506
0.651687
0.661804
0.672118
0.681569
0.690018
0.700188
0.711399
0.722039
0.73195
0.741144
0.749901
0.757287
0.769019
0.62013
0.615451
0.619766
0.619345
0.620334
0.623988
0.626228
0.633149
0.637926
0.646559
0.657783
0.667183
0.67593
0.685197
0.696681
0.708494
0.719192
0.729144
0.73822
0.746874
0.754427
0.766672
0.612581
0.608207
0.612007
0.610211
0.612794
0.61673
0.619263
0.625871
0.632236
0.642308
0.652336
0.661485
0.671057
0.681288
0.693585
0.705483
0.716137
0.726135
0.73526
0.744009
0.751834
0.764587
0.604702
0.601516
0.60384
0.600478
0.604749
0.609152
0.611659
0.620136
0.627113
0.636756
0.646773
0.656784
0.666718
0.677478
0.690259
0.70221
0.712954
0.723099
0.732427
0.741444
0.74948
0.762444
0.596617
0.59526
0.595215
0.590928
0.596616
0.600636
0.604642
0.613818
0.620677
0.631444
0.642212
0.651949
0.662168
0.673536
0.686738
0.698934
0.710034
0.720527
0.730059
0.739014
0.746999
0.760097
0.588606
0.58822
0.587118
0.582311
0.588299
0.591067
0.596062
0.605979
0.615312
0.626832
0.636787
0.646909
0.657751
0.669923
0.68384
0.696123
0.707399
0.718033
0.727524
0.736506
0.744703
0.757982
0.580857
0.581094
0.580281
0.575578
0.58058
0.580948
0.586562
0.598888
0.60925
0.620756
0.631354
0.642542
0.653873
0.666746
0.680692
0.692948
0.704432
0.715388
0.725218
0.734359
0.742475
0.755721
0.574408
0.574825
0.574503
0.570883
0.57461
0.572283
0.577024
0.590067
0.601652
0.615086
0.626774
0.638089
0.649865
0.663163
0.677138
0.690034
0.70198
0.71312
0.722975
0.731938
0.740096
0.753629
0.569866
0.570278
0.570567
0.56804
0.570413
0.566992
0.569318
0.58064
0.594535
0.609125
0.620999
0.633049
0.645814
0.659977
0.674623
0.687226
0.699068
0.710352
0.720466
0.729741
0.738097
0.751739
0.566659
0.567204
0.567984
0.566213
0.567377
0.564201
0.56536
0.573482
0.586074
0.601348
0.615043
0.629345
0.643064
0.657354
0.671299
0.683807
0.696035
0.707923
0.718408
0.727703
0.735961
0.749699
0.565689
0.566361
0.567207
0.565532
0.56587
0.561877
0.563439
0.57055
0.577899
0.593573
0.609776
0.625202
0.639442
0.654072
0.668238
0.681503
0.693678
0.705417
0.716104
0.725514
0.733966
0.747879
0.566664
0.567961
0.568795
0.567009
0.566443
0.56155
0.563151
0.569173
0.573471
0.585209
0.602688
0.619887
0.636021
0.651871
0.666148
0.678971
0.690915
0.702826
0.714094
0.723807
0.732096
0.745894
0.572023
0.574612
0.575537
0.574069
0.574253
0.567486
0.56544
0.569347
0.572458
0.578495
0.594872
0.614336
0.632295
0.648881
0.663447
0.676633
0.68907
0.700931
0.712157
0.721762
0.72994
0.743879
0.579284
0.583506
0.584276
0.585805
0.589815
0.58401
0.578315
0.574978
0.573554
0.576974
0.588159
0.607062
0.626535
0.645107
0.661438
0.675124
0.687146
0.698585
0.709905
0.719776
0.728055
0.742036
0.582377
0.589287
0.591593
0.595143
0.599991
0.600433
0.60134
0.597008
0.585188
0.578519
0.585693
0.601372
0.621009
0.640625
0.658251
0.672973
0.685441
0.696944
0.708128
0.717906
0.72604
0.740052
0.584735
0.593361
0.594269
0.598133
0.606612
0.607628
0.617342
0.624123
0.615865
0.595483
0.588004
0.598954
0.616839
0.635432
0.654044
0.670724
0.683681
0.695019
0.705901
0.715553
0.723823
0.738085
0.585383
0.593213
0.595047
0.601936
0.608651
0.610405
0.622878
0.633018
0.641597
0.632203
0.606366
0.601125
0.61543
0.632623
0.649685
0.666579
0.680926
0.693053
0.70411
0.713732
0.721939
0.736226
0.583924
0.591923
0.595189
0.602506
0.606903
0.612968
0.62705
0.641051
0.652386
0.658053
0.646235
0.618954
0.618061
0.631499
0.646291
0.662032
0.677535
0.690858
0.702229
0.711624
0.719693
0.734089
0.581603
0.59017
0.592899
0.599846
0.606366
0.613241
0.627001
0.64323
0.659327
0.67662
0.68243
0.663825
0.634333
0.633542
0.645342
0.658903
0.67318
0.687293
0.699809
0.709516
0.717725
0.732232
0.578726
0.587236
0.58944
0.598087
0.605391
0.61084
0.624923
0.640355
0.6592
0.68147
0.702611
0.710537
0.683806
0.648671
0.647246
0.657383
0.669802
0.683578
0.697195
0.707638
0.715876
0.730323
0.574398
0.582437
0.583974
0.59273
0.600331
0.606853
0.619438
0.635442
0.654922
0.679745
0.707063
0.726952
0.732104
0.697646
0.658834
0.658071
0.667799
0.679734
0.693291
0.704905
0.713683
0.728358
0.567969
0.574861
0.576753
0.58545
0.592072
0.598255
0.611902
0.624849
0.645796
0.677026
0.711203
0.740172
0.755266
0.746359
0.700038
0.665342
0.667842
0.678018
0.690215
0.702425
0.711914
0.726759
0.561394
0.566736
0.568274
0.575776
0.581286
0.589125
0.605094
0.619438
0.638429
0.670292
0.714319
0.749241
0.76662
0.77359
0.748957
0.694107
0.671293
0.677282
0.687659
0.699405
0.709508
0.724771
0.556373
0.560012
0.559328
0.565342
0.571256
0.579619
0.597516
0.613233
0.634064
0.667158
0.710079
0.747624
0.767587
0.775486
0.770715
0.734252
0.686257
0.678093
0.686636
0.697306
0.707376
0.723012
0.551141
0.553025
0.550099
0.55622
0.563101
0.570281
0.587874
0.604278
0.627824
0.663455
0.703476
0.738081
0.7596
0.77008
0.772855
0.759509
0.714989
0.684033
0.686568
0.695921
0.70524
0.721013
0.543128
0.545144
0.542158
0.549121
0.554958
0.56042
0.577151
0.594547
0.621449
0.660762
0.699318
0.728436
0.74786
0.763107
0.77407
0.77146
0.743935
0.699337
0.687905
0.695045
0.703506
0.719096
0.532669
0.536444
0.534245
0.54065
0.545337
0.550644
0.567358
0.586586
0.617091
0.660403
0.69874
0.723639
0.738222
0.751621
0.764989
0.772698
0.760791
0.721782
0.693107
0.694879
0.702231
0.717266
0.521311
0.525967
0.524228
0.530231
0.535894
0.542338
0.559577
0.580702
0.615035
0.660728
0.696166
0.716941
0.730011
0.741404
0.753605
0.763681
0.764348
0.741514
0.704631
0.695478
0.70123
0.715605
0.510235
0.514664
0.513099
0.519931
0.527457
0.534557
0.551093
0.573701
0.611539
0.657957
0.689329
0.706649
0.718294
0.729165
0.741938
0.754602
0.762164
0.753211
0.720078
0.698416
0.700414
0.714116
0.499977
0.503609
0.501979
0.509834
0.518027
0.524948
0.540234
0.564366
0.60584
0.651669
0.680618
0.695548
0.706811
0.719423
0.733999
0.748677
0.759614
0.758298
0.734313
0.70471
0.69999
0.713054
0.490395
0.493696
0.491552
0.499136
0.506878
0.513551
0.528531
0.555228
0.600645
0.644827
0.671789
0.686037
0.699294
0.714046
0.729994
0.744878
0.755792
0.759381
0.74454
0.713984
0.700883
0.712377
0.480804
0.483858
0.481024
0.48716
0.494996
0.502486
0.518574
0.548546
0.59706
0.639412
0.665524
0.680163
0.693352
0.708243
0.72418
0.738601
0.750072
0.756062
0.750284
0.72434
0.702978
0.711749
0.469784
0.472872
0.47015
0.475235
0.484307
0.493072
0.510588
0.543574
0.593581
0.63553
0.659082
0.671842
0.684201
0.699185
0.715588
0.731037
0.743833
0.753217
0.753303
0.733581
0.707128
0.711825
0.457363
0.461805
0.460545
0.465448
0.474765
0.48388
0.502143
0.537044
0.588104
0.629377
0.648917
0.660151
0.673344
0.689252
0.707077
0.724769
0.739282
0.75047
0.753833
0.740614
0.713092
0.712224
0.444481
0.450656
0.450806
0.455579
0.464305
0.473377
0.492041
0.528342
0.579882
0.619444
0.637534
0.64986
0.664889
0.682226
0.701233
0.720464
0.735934
0.747199
0.752435
0.745352
0.720214
0.713089
0.432041
0.439061
0.439896
0.444131
0.452627
0.462086
0.481599
0.519702
0.570577
0.608962
0.629409
0.643655
0.660499
0.678423
0.69694
0.715525
0.73121
0.742781
0.750108
0.748205
0.727145
0.714631
0.4193
0.426181
0.427714
0.432015
0.44154
0.451984
0.472753
0.512562
0.562629
0.601709
0.623731
0.639114
0.655469
0.672773
0.690471
0.708417
0.72524
0.738313
0.747722
0.749645
0.733111
0.716483
0.40684
0.413265
0.415867
0.420282
0.430703
0.442194
0.464322
0.506055
0.557252
0.596799
0.616502
0.631165
0.64663
0.664015
0.681905
0.700457
0.719426
0.734352
0.745056
0.749017
0.737053
0.71878
0.394825
0.400615
0.404153
0.408307
0.419043
0.431639
0.455486
0.499529
0.552594
0.589034
0.605779
0.620004
0.636721
0.655758
0.674601
0.694358
0.715299
0.730881
0.741279
0.746415
0.738746
0.721796
0.383933
0.38883
0.392639
0.395815
0.406334
0.42041
0.446542
0.492887
0.544963
0.577372
0.594079
0.610424
0.629961
0.650536
0.670766
0.690708
0.71018
0.72545
0.736808
0.744368
0.740124
0.728626
0.373187
0.376909
0.380778
0.383426
0.393991
0.409794
0.438332
0.485763
0.534213
0.565535
0.585736
0.605179
0.627286
0.648136
0.667019
0.684564
0.702324
0.719818
0.735927
0.747615
0.750918
0.772995
0.361692
0.364364
0.369329
0.3723
0.382712
0.399614
0.429824
0.476965
0.523282
0.557625
0.581282
0.60255
0.62345
0.642489
0.660198
0.676809
0.694771
0.717583
0.742801
0.795688
0.84847
0.897161
0.349801
0.35222
0.359042
0.362375
0.37179
0.388813
0.420027
0.467376
0.515466
0.553315
0.576104
0.59586
0.614863
0.63396
0.652217
0.668842
0.690871
0.726335
0.8197
0.939796
1.00588
1.01566
0.33832
0.341388
0.349092
0.352178
0.35987
0.376338
0.408853
0.459269
0.511939
0.546857
0.566275
0.584901
0.605164
0.626953
0.644926
0.664067
0.697732
0.807184
0.963406
1.05078
1.06174
1.0497
0.327043
0.330096
0.337669
0.340305
0.346743
0.363269
0.398677
0.45413
0.50744
0.535247
0.55394
0.574658
0.599199
0.622386
0.642417
0.668599
0.758746
0.930789
1.03475
1.08592
1.09257
1.07236
0.315545
0.31715
0.324851
0.328658
0.335378
0.352464
0.390626
0.449427
0.497086
0.521959
0.543591
0.568911
0.597666
0.62028
0.642312
0.698783
0.867268
0.999778
1.05784
1.09856
1.10525
1.09086
0.303539
0.303971
0.312545
0.318876
0.326533
0.343859
0.38305
0.441042
0.483547
0.511746
0.538078
0.568167
0.594655
0.614182
0.646233
0.783622
0.948134
1.02259
1.06328
1.09256
1.10054
1.09547
0.292975
0.293403
0.302451
0.310173
0.317637
0.334222
0.372683
0.428433
0.47287
0.506395
0.536105
0.56388
0.585029
0.610541
0.692346
0.879715
0.981929
1.01603
1.05087
1.08116
1.09101
1.09139
0.283567
0.283437
0.292248
0.299785
0.306517
0.322186
0.35928
0.416363
0.466806
0.504283
0.52994
0.552713
0.57324
0.616092
0.781259
0.937266
0.989641
0.995853
1.03187
1.07158
1.087
1.09023
0.273087
0.272649
0.28032
0.287635
0.294229
0.309632
0.347228
0.408791
0.465817
0.497476
0.519142
0.539477
0.569679
0.666825
0.87118
0.962873
0.978312
0.981383
1.01946
1.06512
1.0892
1.09346
0.261524
0.260894
0.26719
0.275813
0.28391
0.300384
0.339603
0.405741
0.460832
0.486373
0.50781
0.531337
0.577828
0.756562
0.921868
0.961881
0.970719
0.980709
1.01326
1.05694
1.08941
1.09611
0.250852
0.250663
0.256217
0.26652
0.276196
0.293296
0.334012
0.401082
0.449033
0.475443
0.499681
0.530976
0.624085
0.841023
0.942208
0.955385
0.964315
0.980572
1.00593
1.04428
1.0834
1.09519
0.241919
0.242238
0.247437
0.258331
0.268588
0.285706
0.326917
0.390022
0.434465
0.468149
0.498035
0.537269
0.70513
0.888226
0.942532
0.953916
0.959612
0.978249
1.0007
1.03452
1.07628
1.09319
0.233322
0.23431
0.238655
0.249372
0.259475
0.27563
0.31568
0.373329
0.424776
0.465334
0.494868
0.563446
0.788343
0.908892
0.937473
0.953519
0.959213
0.978729
1.00167
1.03196
1.07261
1.09232
0.224366
0.225558
0.228188
0.23771
0.247574
0.263179
0.302166
0.361525
0.421028
0.461985
0.490817
0.628874
0.841079
0.910826
0.935083
0.953914
0.961843
0.979514
1.00245
1.03006
1.06897
1.09298
0.21419
0.21596
0.217399
0.225671
0.236378
0.253459
0.293291
0.357141
0.422517
0.452217
0.494778
0.715716
0.872382
0.911226
0.934066
0.953376
0.964144
0.977567
0.998201
1.02336
1.06292
1.09336
0.204982
0.208164
0.209518
0.217108
0.22863
0.247476
0.287785
0.358699
0.417579
0.439699
0.537527
0.792147
0.881995
0.910356
0.933119
0.951443
0.963755
0.974726
0.991567
1.01501
1.05482
1.09177
0.198767
0.20232
0.203144
0.210171
0.222363
0.241395
0.28217
0.358552
0.402752
0.435377
0.627282
0.845302
0.88272
0.905136
0.931522
0.949238
0.9622
0.973749
0.988656
1.01027
1.04748
1.08827
)
;

boundaryField
{
    inlet
    {
        type            fixedValue;
        value           nonuniform 0();
    }
    outlet
    {
        type            zeroGradient;
    }
    triangle
    {
        type            zeroGradient;
    }
    top
    {
        type            symmetryPlane;
    }
    bottom
    {
        type            symmetryPlane;
    }
    defaultFaces
    {
        type            empty;
    }
    procBoundary15to6
    {
        type            processor;
        value           nonuniform List<scalar> 6(0.897578 0.891177 0.884034 0.876152 0.868199 0.860808);
    }
    procBoundary15to7
    {
        type            processor;
        value           nonuniform List<scalar> 
23
(
0.85576
0.856797
0.857596
0.85934
0.861599
0.864305
0.867437
0.870211
0.875313
0.894623
0.886746
0.879929
0.873549
0.867685
0.862511
0.858882
0.856556
0.854553
0.852155
0.850907
0.850127
0.850198
0.850198
)
;
    }
    procBoundary15to14
    {
        type            processor;
        value           nonuniform List<scalar> 
141
(
0.190067
0.186485
0.18283