/*--------------------------------*- C++ -*----------------------------------*\
  =========                 |
  \\      /  F ield         | OpenFOAM: The Open Source CFD Toolbox
   \\    /   O peration     | Website:  https://openfoam.org
    \\  /    A nd           | Version:  7
     \\/     M anipulation  |
\*---------------------------------------------------------------------------*/
FoamFile
{
    version     2.0;
    format      ascii;
    class       volScalarField;
    location    "0.2";
    object      rho;
}
// * * * * * * * * * * * * * * * * * * * * * * * * * * * * * * * * * * * * * //

dimensions      [1 -3 0 0 0 0 0];

internalField   nonuniform List<scalar> 
3225
(
0.43286
0.438424
0.437611
0.445334
0.463473
0.49137
0.551299
0.656025
0.700414
0.776433
1.08784
1.23549
1.25446
1.2772
1.30939
1.32722
1.33919
1.35288
1.36953
1.39128
1.42655
1.47276
0.427738
0.433012
0.432333
0.438406
0.456103
0.482038
0.542256
0.640106
0.687213
0.837634
1.1625
1.23501
1.25018
1.27513
1.30869
1.3272
1.33867
1.35431
1.37106
1.39131
1.423
1.46988
0.421927
0.427912
0.427734
0.430745
0.446595
0.46952
0.531955
0.619675
0.682629
0.940496
1.2029
1.22865
1.24872
1.27553
1.3087
1.3279
1.3386
1.35478
1.37076
1.39031
1.4195
1.46777
0.412532
0.419936
0.420607
0.421963
0.434705
0.454913
0.523571
0.600335
0.691869
1.04385
1.21049
1.22421
1.2502
1.2772
1.30844
1.32844
1.33865
1.35331
1.36754
1.3869
1.4162
1.46624
0.401605
0.413472
0.414417
0.416691
0.428184
0.448789
0.518338
0.591746
0.756613
1.12549
1.20909
1.22493
1.25301
1.27892
1.30737
1.32771
1.33861
1.35118
1.36437
1.38431
1.41446
1.46483
0.386882
0.40423
0.410079
0.417506
0.427373
0.447948
0.51436
0.587597
0.857655
1.16273
1.2091
1.23004
1.2546
1.28016
1.30651
1.32634
1.33863
1.35133
1.36516
1.38531
1.41435
1.46279
0.37062
0.399738
0.406844
0.414488
0.423567
0.449391
0.50926
0.589591
0.962871
1.17235
1.21147
1.2358
1.25489
1.28115
1.30659
1.32574
1.34039
1.35448
1.36898
1.38807
1.41437
1.46022
0.350566
0.390569
0.403394
0.413044
0.422674
0.450862
0.499202
0.618835
1.04415
1.17817
1.21517
1.23806
1.25448
1.2826
1.3087
1.32711
1.34424
1.35934
1.37397
1.39034
1.41285
1.45767
0.334218
0.378614
0.400309
0.411003
0.420934
0.448362
0.489019
0.711849
1.10765
1.18626
1.21658
1.23699
1.25501
1.2859
1.31351
1.33074
1.34811
1.36261
1.37668
1.39058
1.41009
1.45621
0.319978
0.359807
0.393883
0.40814
0.419988
0.445634
0.482438
0.810811
1.13551
1.19291
1.21532
1.23511
1.25902
1.29084
1.31878
1.33455
1.35056
1.3635
1.37596
1.38889
1.40867
1.4561
0.309993
0.341046
0.379987
0.398855
0.418049
0.439386
0.479512
0.890655
1.15697
1.19494
1.21121
1.23686
1.2657
1.29575
1.32221
1.33674
1.35106
1.36176
1.3729
1.38768
1.40969
1.45652
0.299875
0.32185
0.357704
0.38367
0.411691
0.425832
0.520153
0.985871
1.16711
1.19197
1.20952
1.24193
1.27223
1.29922
1.323
1.33673
1.35005
1.35979
1.37223
1.38964
1.41217
1.45634
0.287319
0.303782
0.335145
0.364735
0.401415
0.420376
0.601445
1.07359
1.16344
1.1858
1.21265
1.2474
1.2765
1.30059
1.32112
1.336
1.35093
1.36193
1.37544
1.39319
1.41388
1.45475
0.272218
0.286528
0.315645
0.348973
0.388907
0.410632
0.665801
1.10596
1.15825
1.1819
1.2192
1.25095
1.27803
1.30004
1.31923
1.33804
1.35486
1.36724
1.38069
1.3957
1.41349
1.4524
0.258164
0.272292
0.298364
0.334707
0.372091
0.40178
0.727109
1.10879
1.14702
1.18281
1.22526
1.25192
1.27717
1.30164
1.3226
1.3425
1.35919
1.37226
1.38425
1.39617
1.411
1.45116
0.243784
0.261492
0.286715
0.326784
0.354257
0.401866
0.789237
1.10237
1.14016
1.18703
1.22755
1.25089
1.27814
1.30815
1.32947
1.3474
1.36265
1.37539
1.38525
1.39452
1.40906
1.45164
0.233204
0.252254
0.276967
0.321436
0.345497
0.422299
0.870374
1.09798
1.14026
1.19036
1.22727
1.2527
1.28514
1.31715
1.33748
1.35253
1.36551
1.37637
1.38402
1.39305
1.41019
1.45329
0.228116
0.244912
0.269071
0.31428
0.33782
0.451819
0.926567
1.09095
1.14349
1.19186
1.22698
1.26165
1.29639
1.32791
1.34573
1.35843
1.36918
1.37733
1.38426
1.39573
1.41392
1.45469
0.227956
0.240272
0.261042
0.304981
0.326262
0.478148
0.949815
1.08271
1.14689
1.1929
1.23281
1.27504
1.31025
1.33727
1.3526
1.36594
1.37508
1.38069
1.38856
1.4013
1.41792
1.45514
0.229739
0.237198
0.254399
0.292298
0.311086
0.520013
0.960889
1.07925
1.14725
1.19684
1.2456
1.2899
1.32185
1.34169
1.35822
1.37437
1.38339
1.38931
1.39768
1.40829
1.42116
1.45464
0.231367
0.23337
0.249202
0.277273
0.298271
0.57673
0.96993
1.0738
1.14719
1.20743
1.26041
1.30093
1.32676
1.34308
1.36434
1.38219
1.39209
1.39896
1.40625
1.41408
1.42288
1.45426
0.227987
0.226113
0.242568
0.260511
0.283614
0.638675
0.972539
1.06896
1.15092
1.2214
1.27203
1.3044
1.32628
1.3479
1.37064
1.38775
1.39931
1.40725
1.41244
1.41691
1.42415
1.4558
0.219094
0.215624
0.235836
0.236026
0.296624
0.720582
0.970481
1.06595
1.15904
1.23355
1.27681
1.30109
1.32781
1.35492
1.37488
1.39046
1.40411
1.41275
1.41536
1.41758
1.42556
1.45911
0.212482
0.211498
0.23336
0.231856
0.358418
0.784381
0.961199
1.06436
1.16804
1.24011
1.27444
1.29932
1.33284
1.3599
1.37625
1.39168
1.40687
1.41496
1.416
1.4195
1.42996
1.46321
0.210809
0.217019
0.230393
0.232795
0.404449
0.811017
0.949868
1.06258
1.17424
1.23853
1.27135
1.30293
1.33708
1.36051
1.37646
1.39379
1.40859
1.41536
1.41782
1.4249
1.43613
1.46695
0.214865
0.228193
0.22458
0.232777
0.460486
0.792116
0.927943
1.06301
1.17388
1.23282
1.27289
1.30919
1.33825
1.35761
1.37795
1.39739
1.41024
1.41656
1.42289
1.43204
1.44224
1.46975
0.221043
0.233194
0.223481
0.294244
0.529793
0.765506
0.912135
1.06539
1.16781
1.23037
1.27784
1.31347
1.33539
1.35362
1.37936
1.40001
1.41166
1.41956
1.42896
1.43841
1.44711
1.47196
0.22143
0.233441
0.240682
0.343635
0.558354
0.742238
0.90416
1.06327
1.16258
1.2326
1.28216
1.31397
1.33017
1.3517
1.37912
1.39962
1.4123
1.42314
1.43397
1.443
1.45036
1.47453
0.217025
0.231665
0.260059
0.356875
0.552899
0.718278
0.894284
1.05586
1.16042
1.23735
1.28369
1.30943
1.32724
1.35212
1.37741
1.39741
1.41283
1.4258
1.43652
1.44517
1.45297
1.47836
0.21952
0.228118
0.269913
0.35008
0.528795
0.695776
0.887241
1.0472
1.16231
1.24121
1.2806
1.30234
1.32742
1.35381
1.37579
1.39538
1.41303
1.42681
1.43692
1.44636
1.45613
1.48309
0.226133
0.229324
0.271919
0.340821
0.504346
0.680998
0.877791
1.03953
1.16618
1.24116
1.27305
1.29954
1.33032
1.3559
1.37581
1.39492
1.41267
1.42611
1.43687
1.44845
1.4602
1.4876
0.231578
0.233663
0.268715
0.335724
0.493055
0.671875
0.866668
1.03818
1.16818
1.2351
1.26807
1.30343
1.33407
1.35743
1.37646
1.39487
1.41164
1.42502
1.43796
1.45179
1.4643
1.49111
0.237067
0.238649
0.26645
0.336233
0.490049
0.66966
0.862954
1.04256
1.16519
1.22697
1.2714
1.31115
1.33647
1.35676
1.37542
1.39317
1.40933
1.42434
1.43983
1.45503
1.46747
1.49356
0.246169
0.246797
0.270537
0.346258
0.497128
0.678241
0.869943
1.0491
1.15854
1.2255
1.2808
1.31766
1.33599
1.35335
1.37238
1.39034
1.40723
1.42394
1.44101
1.45697
1.4696
1.49581
0.25986
0.262865
0.284762
0.365528
0.513665
0.69144
0.88676
1.05303
1.15603
1.23313
1.29056
1.32049
1.3333
1.35059
1.37054
1.38874
1.4061
1.42329
1.44088
1.45768
1.47151
1.49899
0.279605
0.288747
0.306268
0.385794
0.529122
0.705786
0.907307
1.05589
1.16274
1.24551
1.29782
1.31838
1.33196
1.35157
1.37146
1.38883
1.40539
1.42193
1.43974
1.45799
1.47397
1.50293
0.303439
0.320058
0.340787
0.412077
0.548042
0.73229
0.927071
1.06534
1.17735
1.25904
1.3
1.31535
1.33444
1.35572
1.37406
1.38962
1.40423
1.41993
1.43876
1.45877
1.47652
1.50652
0.331215
0.352206
0.390065
0.45652
0.586682
0.772965
0.949211
1.08404
1.1978
1.27124
1.29918
1.3172
1.34022
1.3604
1.37628
1.38937
1.40242
1.41867
1.4389
1.45993
1.47833
1.50886
0.36215
0.383328
0.440137
0.518091
0.644307
0.819818
0.976584
1.11164
1.22224
1.27886
1.30215
1.32508
1.34745
1.36403
1.37689
1.38812
1.40157
1.41901
1.43981
1.46067
1.47903
1.50989
0.394573
0.415888
0.478749
0.576013
0.701592
0.86308
1.00704
1.14373
1.24164
1.28368
1.31158
1.33703
1.35479
1.36674
1.37689
1.38802
1.40267
1.42032
1.44051
1.4605
1.47891
1.51071
0.426565
0.45409
0.512184
0.614687
0.742816
0.891619
1.03613
1.17035
1.24735
1.28724
1.32485
1.34911
1.36147
1.36974
1.37866
1.39021
1.40486
1.42138
1.4403
1.45983
1.47886
1.51236
0.456106
0.49654
0.550566
0.645114
0.769888
0.911702
1.06284
1.18173
1.2434
1.29315
1.3368
1.35793
1.36817
1.37607
1.38486
1.3947
1.40687
1.42148
1.43951
1.45952
1.47958
1.51461
0.481425
0.536651
0.597267
0.683402
0.802016
0.940669
1.08534
1.17994
1.24069
1.30232
1.34398
1.36276
1.37454
1.38439
1.39301
1.39992
1.4084
1.42121
1.43912
1.45971
1.48031
1.51622
0.503743
0.567509
0.644555
0.72911
0.842765
0.974869
1.09889
1.17578
1.24576
1.31192
1.34648
1.36479
1.37949
1.39171
1.40009
1.40542
1.41165
1.42258
1.43976
1.45983
1.47997
1.51644
0.526595
0.591355
0.676927
0.772252
0.88051
1.00329
1.10216
1.17655
1.2582
1.31811
1.34621
1.36606
1.38362
1.39681
1.40413
1.40911
1.416
1.42639
1.44147
1.45938
1.47817
1.51554
0.551556
0.615218
0.702129
0.804293
0.912364
1.02003
1.10174
1.18566
1.26983
1.31859
1.3442
1.36719
1.38726
1.40029
1.40734
1.41366
1.42186
1.43155
1.44361
1.45841
1.47567
1.51468
0.577273
0.641539
0.720758
0.828136
0.936196
1.0243
1.10734
1.20049
1.2748
1.31268
1.34021
1.36817
1.39101
1.40433
1.41215
1.41945
1.42738
1.43547
1.44524
1.45783
1.47442
1.51498
0.599456
0.669513
0.740671
0.837994
0.946136
1.02957
1.12398
1.21508
1.27091
1.30258
1.33658
1.36944
1.39419
1.40921
1.41881
1.42603
1.43201
1.43774
1.44621
1.45844
1.47475
1.51583
0.615641
0.693648
0.765654
0.847423
0.95187
1.04588
1.14587
1.22225
1.26199
1.29689
1.33668
1.37079
1.39609
1.41356
1.4253
1.43212
1.43549
1.43931
1.44754
1.45928
1.47498
1.51608
0.628085
0.709515
0.793129
0.871061
0.968465
1.06909
1.16042
1.21739
1.25765
1.30225
1.34261
1.37254
1.39648
1.41575
1.42929
1.43653
1.43941
1.44227
1.44946
1.45969
1.47409
1.51523
0.64219
0.720823
0.813449
0.897447
0.991118
1.08789
1.16152
1.21081
1.26429
1.31714
1.35246
1.37576
1.39672
1.41622
1.43093
1.43942
1.44392
1.44686
1.45155
1.45927
1.47187
1.51372
0.660535
0.73266
0.826861
0.919566
1.01022
1.09633
1.16007
1.21897
1.2847
1.33262
1.35882
1.37751
1.39771
1.41709
1.43223
1.44204
1.44805
1.45124
1.45393
1.45872
1.46995
1.51271
0.68117
0.747568
0.834231
0.932641
1.01956
1.09827
1.16867
1.24695
1.31002
1.34257
1.3607
1.37926
1.40064
1.41971
1.43426
1.44391
1.45005
1.45333
1.45587
1.45936
1.46973
1.51274
0.697381
0.767287
0.845473
0.935642
1.24505
1.24604
1.24751
1.25017
1.25302
1.2563
1.26005
1.26327
1.26904
1.27593
1.26779
1.26104
1.25502
1.24974
1.24552
1.24314
1.24142
1.23935
1.23758
1.23709
1.23721
1.23885
1.24025
1.24091
1.24296
1.246
1.24904
1.25257
1.25646
1.25976
1.26565
1.26878
1.26068
1.25417
1.24816
1.2429
1.23925
1.23749
1.23537
1.23305
1.23158
1.23119
1.23232
1.23454
1.23499
1.23587
1.23848
1.24177
1.24511
1.24889
1.25279
1.25607
1.26221
1.26117
1.2537
1.24763
1.24141
1.23617
1.23321
1.23152
1.22884
1.22673
1.2254
1.22561
1.22798
1.22953
1.22946
1.23109
1.23414
1.23761
1.24123
1.24515
1.2489
1.25221
1.25875
1.25361
1.24724
1.24128
1.2346
1.22972
1.22723
1.22485
1.22189
1.22024
1.21939
1.22087
1.22347
1.22356
1.22405
1.22669
1.23003
1.23361
1.23733
1.24118
1.2448
1.24831
1.25535
1.24667
1.24117
1.2346
1.22781
1.22366
1.22093
1.21752
1.21468
1.21372
1.21407
1.21679
1.21782
1.21707
1.21907
1.22266
1.22618
1.22969
1.23319
1.23693
1.24068
1.24456
1.25206
1.24049
1.23478
1.22729
1.22118
1.21774
1.21405
1.20983
1.20748
1.20766
1.20968
1.21202
1.21092
1.21096
1.21465
1.21889
1.22232
1.22552
1.22874
1.23262
1.23685
1.24114
1.24884
1.23464
1.22724
1.21957
1.2148
1.21146
1.20664
1.20219
1.20086
1.20257
1.20535
1.20556
1.20369
1.20577
1.21077
1.21498
1.21795
1.22087
1.2242
1.2286
1.23352
1.23806
1.24557
1.22777
1.21875
1.21204
1.20843
1.20439
1.19889
1.19515
1.1954
1.19829
1.19951
1.19777
1.19735
1.20165
1.20704
1.21035
1.21281
1.21591
1.21996
1.22511
1.23064
1.23511
1.24202
1.21949
1.21016
1.20495
1.20153
1.19649
1.19125
1.18917
1.19126
1.19323
1.19193
1.19004
1.19227
1.1984
1.20265
1.20481
1.20723
1.21119
1.21631
1.2221
1.22775
1.2317
1.23811
1.21039
1.20233
1.19829
1.19378
1.18817
1.18429
1.18448
1.18723
1.1863
1.18348
1.18356
1.18853
1.1949
1.19709
1.19869
1.20198
1.20717
1.21325
1.21912
1.22414
1.22744
1.23414
1.2019
1.19576
1.19134
1.18523
1.18006
1.17836
1.1808
1.18116
1.17777
1.17574
1.1786
1.18573
1.18982
1.19048
1.19284
1.19764
1.20404
1.21038
1.21549
1.21943
1.22267
1.23052
1.19485
1.18976
1.18343
1.17646
1.17283
1.17366
1.17577
1.17298
1.16894
1.16955
1.17534
1.18187
1.18312
1.18367
1.18792
1.19431
1.20147
1.20699
1.21082
1.21404
1.21819
1.22748
1.18884
1.18303
1.17468
1.16824
1.16677
1.16919
1.16849
1.16362
1.16132
1.16491
1.17266
1.17588
1.17537
1.17773
1.18404
1.19186
1.19848
1.20248
1.20538
1.20912
1.21456
1.22501
1.18287
1.17481
1.16571
1.16103
1.1618
1.16307
1.15956
1.15476
1.15528
1.16194
1.16786
1.16813
1.16803
1.17306
1.18123
1.18908
1.19414
1.19688
1.20022
1.20544
1.21175
1.22289
1.17543
1.16562
1.1575
1.15511
1.15654
1.15494
1.15006
1.14747
1.15097
1.15864
1.16064
1.15951
1.16215
1.16956
1.17869
1.1848
1.18827
1.19105
1.19616
1.20297
1.20969
1.22069
1.16653
1.15652
1.15048
1.14988
1.14942
1.14538
1.14135
1.14189
1.14848
1.15278
1.15168
1.15177
1.15762
1.16714
1.1748
1.17894
1.18154
1.18615
1.1933
1.20133
1.20811
1.21764
1.15687
1.14813
1.14441
1.14407
1.14053
1.13541
1.13419
1.13845
1.1449
1.14473
1.14236
1.14571
1.15439
1.16408
1.16933
1.17194
1.17558
1.18258
1.19136
1.19985
1.20591
1.21339
1.14716
1.14077
1.13915
1.13675
1.13055
1.12652
1.1287
1.1361
1.13818
1.13516
1.13478
1.14125
1.15199
1.15908
1.16257
1.16523
1.17129
1.18012
1.18955
1.1974
1.20195
1.20859
1.13832
1.13474
1.13315
1.12799
1.12093
1.11941
1.12512
1.13057
1.12908
1.12603
1.12925
1.13872
1.14794
1.1525
1.15528
1.16014
1.16834
1.17837
1.18694
1.19323
1.19646
1.20441
1.13106
1.12912
1.12548
1.11855
1.11295
1.11413
1.12082
1.12181
1.11867
1.119
1.12573
1.13644
1.14173
1.14474
1.14901
1.15653
1.16663
1.17604
1.18287
1.18735
1.19097
1.2015
1.12488
1.12259
1.11641
1.10947
1.10668
1.11052
1.11354
1.11103
1.10938
1.1139
1.12437
1.13125
1.13394
1.13739
1.14438
1.15432
1.1649
1.17235
1.17706
1.1811
1.18692
1.19973
1.11932
1.1142
1.10639
1.10155
1.10219
1.10613
1.10417
1.1001
1.1022
1.11092
1.12045
1.12372
1.12593
1.13184
1.14132
1.1528
1.16145
1.16706
1.17063
1.17648
1.18426
1.19861
1.11184
1.10421
1.09683
1.09521
1.09886
1.09923
1.09377
1.09115
1.09682
1.10804
1.11311
1.11495
1.11929
1.12791
1.13977
1.1496
1.15617
1.16058
1.16567
1.17382
1.18259
1.19748
1.10254
1.09437
1.08881
1.09019
1.09364
1.09049
1.08403
1.08439
1.09353
1.10181
1.10393
1.10671
1.11412
1.12574
1.13699
1.14419
1.14933
1.15482
1.16248
1.17233
1.18169
1.19541
1.09293
1.08534
1.08183
1.08521
1.08594
1.08072
1.07624
1.07982
1.08957
1.09282
1.09461
1.10054
1.11075
1.12316
1.13141
1.13709
1.14296
1.15118
1.161
1.17181
1.18069
1.19153
1.0835
1.0772
1.07565
1.07856
1.07627
1.0712
1.07049
1.07759
1.08206
1.08287
1.08728
1.09632
1.10843
1.11797
1.12427
1.13006
1.13854
1.14926
1.16045
1.1709
1.17803
1.18632
1.07472
1.07005
1.06935
1.06978
1.06551
1.06334
1.06762
1.0728
1.07256
1.0743
1.08209
1.09368
1.10437
1.1112
1.11676
1.12468
1.13548
1.14806
1.15893
1.1681
1.17347
1.18148
1.06669
1.06303
1.06176
1.05981
1.05577
1.05767
1.06434
1.06468
1.0631
1.06763
1.07855
1.09088
1.09815
1.10354
1.11039
1.12067
1.1335
1.14572
1.15542
1.16326
1.16812
1.17814
1.05884
1.05549
1.05295
1.04983
1.048
1.05362
1.05743
1.05477
1.05552
1.06304
1.07556
1.08467
1.09037
1.09685
1.1061
1.1182
1.13097
1.14159
1.15022
1.15764
1.16371
1.17639
1.05063
1.04697
1.04337
1.04082
1.04199
1.04825
1.04738
1.04534
1.05045
1.05971
1.06969
1.07685
1.08344
1.09218
1.10326
1.11586
1.12699
1.13649
1.14472
1.15311
1.16083
1.17577
1.0419
1.03752
1.03366
1.0335
1.03679
1.03924
1.03649
1.03849
1.0461
1.05408
1.06262
1.06983
1.07781
1.08853
1.10109
1.11262
1.12263
1.13153
1.14022
1.14978
1.15872
1.17466
1.03269
1.0272
1.02469
1.02751
1.02927
1.02912
1.02766
1.03295
1.04077
1.04767
1.05548
1.06315
1.07293
1.08608
1.09806
1.10828
1.11787
1.12719
1.13673
1.14721
1.15682
1.17217
1.0229
1.01676
1.01683
1.02091
1.02015
1.01978
1.01994
1.02769
1.0345
1.04013
1.04806
1.05775
1.06997
1.08243
1.09298
1.10299
1.11341
1.1238
1.13426
1.14535
1.15476
1.16878
1.01316
1.00698
1.00915
1.01275
1.01065
1.01082
1.01344
1.02201
1.02646
1.03211
1.04253
1.05349
1.06557
1.07672
1.08735
1.09853
1.11018
1.12134
1.13212
1.14298
1.15194
1.16524
1.00342
0.99738
1.00124
1.00376
1.00126
1.00364
1.00703
1.01389
1.01839
1.02613
1.03725
1.04828
1.06026
1.07102
1.08234
1.0947
1.1071
1.11869
1.12962
1.1402
1.14886
1.16206
0.994271
0.98847
0.993163
0.993951
0.992607
0.996531
0.998564
1.00591
1.01178
1.02
1.03165
1.04367
1.05486
1.06513
1.07751
1.09112
1.10403
1.11595
1.12689
1.13719
1.14574
1.15926
0.98531
0.979619
0.984304
0.983661
0.984692
0.988712
0.991179
0.998945
1.00438
1.01422
1.02707
1.03801
1.04838
1.05954
1.07338
1.08769
1.1007
1.11273
1.12359
1.13383
1.14259
1.1567
0.976741
0.971387
0.975504
0.973295
0.976137
0.980482
0.983287
0.990731
0.997962
1.00941
1.0209
1.03151
1.04276
1.05497
1.06971
1.08413
1.09714
1.10927
1.12025
1.13063
1.13973
1.15442
0.96777
0.963749
0.966209
0.962207
0.966967
0.971851
0.974647
0.984242
0.992171
1.00314
1.0146
1.02613
1.03775
1.05053
1.06578
1.08028
1.09342
1.10577
1.11703
1.12776
1.13712
1.15207
0.958549
0.956619
0.956345
0.951237
0.957642
0.962115
0.966642
0.977071
0.984879
0.997128
1.00941
1.02062
1.03252
1.04595
1.06165
1.07641
1.08997
1.10276
1.11431
1.12503
1.13437
1.1495
0.94939
0.948561
0.947015
0.941302
0.948079
0.95114
0.956819
0.968139
0.97878
0.991892
1.00326
1.01488
1.02746
1.04174
1.0582
1.07305
1.08683
1.09983
1.1114
1.12221
1.13182
1.14718
0.940511
0.940369
0.939134
0.933498
0.939194
0.939495
0.94589
0.960017
0.971866
0.984994
0.997097
1.00991
1.023
1.03802
1.05447
1.06928
1.08332
1.09673
1.10873
1.11977
1.12933
1.1447
0.93306
0.933127
0.932478
0.928054
0.932291
0.929483
0.934897
0.949881
0.963181
0.978545
0.991896
1.00484
1.01841
1.03386
1.05031
1.06581
1.08037
1.09403
1.10612
1.11702
1.12667
1.1424
0.927767
0.927881
0.927918
0.924792
0.927442
0.923346
0.925967
0.939007
0.955018
0.971751
0.985337
0.999119
1.01377
1.03015
1.0473
1.06245
1.07691
1.09077
1.10321
1.11451
1.12442
1.14032
0.924037
0.924326
0.924931
0.922695
0.923922
0.920084
0.92136
0.930719
0.945279
0.962866
0.978565
0.9949
1.0106
1.02707
1.0434
1.05842
1.07332
1.08788
1.10078
1.11216
1.12202
1.13807
0.922916
0.923361
0.924048
0.921926
0.922171
0.917347
0.919113
0.927322
0.935837
0.953953
0.972563
0.990184
1.00645
1.02326
1.0398
1.05563
1.07046
1.0849
1.09807
1.10964
1.11976
1.13606
0.924061
0.925239
0.925921
0.923659
0.922837
0.916939
0.918773
0.925727
0.930704
0.944321
0.964465
0.984141
1.00254
1.02068
1.03729
1.05259
1.06716
1.08181
1.09568
1.10764
1.11763
1.13386
0.930336
0.932998
0.933781
0.931867
0.931899
0.923846
0.921428
0.925932
0.929525
0.936557
0.955504
0.977817
0.998285
1.01723
1.03412
1.04977
1.06486
1.07948
1.09335
1.10526
1.11519
1.13164
0.93881
0.943324
0.943911
0.945445
0.949836
0.943005
0.936341
0.932451
0.930793
0.934782
0.947772
0.969516
0.991737
1.01291
1.03172
1.04788
1.06248
1.07665
1.09068
1.10294
1.11303
1.12959
0.942456
0.949946
0.952328
0.956205
0.96151
0.961892
0.962827
0.957809
0.944198
0.936557
0.944911
0.963002
0.985453
1.0078
1.02802
1.04528
1.06035
1.07459
1.08851
1.10073
1.11072
1.12739
0.945228
0.954667
0.955435
0.959635
0.969058
0.970099
0.981042
0.98867
0.979277
0.956015
0.947555
0.960212
0.9807
1.0019
1.0232
1.04259
1.05817
1.07222
1.08585
1.09799
1.10819
1.1252
0.946037
0.954585
0.956384
0.963953
0.971388
0.973247
0.987297
0.998722
1.00833
0.997734
0.968495
0.962667
0.979077
0.998688
1.01821
1.03778
1.05488
1.06982
1.08366
1.09582
1.10601
1.12313
0.944373
0.95317
0.956585
0.964591
0.96938
0.97614
0.992005
1.0077
1.02039
1.02672
1.0135
0.982877
0.982028
0.997376
1.0143
1.03255
1.0509
1.06715
1.08137
1.09333
1.10343
1.12075
0.941732
0.951195
0.953978
0.961538
0.968743
0.976441
0.991941
1.01014
1.0281
1.04725
1.05369
1.03313
1.00033
0.999627
1.01314
1.0289
1.04585
1.06297
1.07848
1.09084
1.10114
1.11867
0.938451
0.947853
0.950034
0.959526
0.967624
0.9737
0.989568
1.0069
1.02795
1.05262
1.07583
1.08451
1.05527
1.01651
1.01519
1.02705
1.0419
1.05863
1.07537
1.08859
1.09897
1.11652
0.933483
0.942354
0.943758
0.953385
0.961843
0.969141
0.983337
1.00135
1.02315
1.05069
1.08069
1.10237
1.10797
1.07053
1.02804
1.02766
1.03945
1.05415
1.07083
1.08539
1.09643
1.11431
0.92616
0.93366
0.935433
0.94502
0.952368
0.959299
0.974767
0.98939
1.01293
1.04765
1.08517
1.11656
1.13283
1.12334
1.07327
1.0357
1.03924
1.05198
1.06722
1.08247
1.09434
1.11249
0.918578
0.92431
0.925638
0.933852
0.939938
0.948803
0.966998
0.983248
1.00465
1.0402
1.08852
1.1263
1.14492
1.15237
1.12617
1.06716
1.04308
1.05086
1.06415
1.07894
1.09154
1.11024
0.912736
0.916567
0.915276
0.921758
0.928313
0.937831
0.958314
0.976178
0.99972
1.03671
1.08389
1.12453
1.14592
1.15439
1.14942
1.1107
1.05937
1.05169
1.06267
1.07642
1.08905
1.10824
0.906651
0.908405
0.904516
0.911197
0.918841
0.927001
0.947218
0.965952
0.992664
1.03257
1.07664
1.11421
1.13737
1.1486
1.15166
1.13774
1.09055
1.05813
1.06229
1.07464
1.08654
1.10598
0.897229
0.89914
0.895219
0.90297
0.909369
0.915512
0.934815
0.954798
0.985439
1.02954
1.07205
1.10376
1.12475
1.14111
1.1529
1.15038
1.12169
1.07467
1.06375
1.0733
1.08444
1.10381
0.884825
0.888831
0.88589
0.893105
0.898151
0.90408
0.923433
0.945628
0.98048
1.02912
1.07139
1.09854
1.11436
1.12881
1.1432
1.15167
1.13959
1.09888
1.06937
1.07281
1.08281
1.10173
0.871273
0.876357
0.874005
0.880855
0.887088
0.894341
0.914347
0.938808
0.978119
1.02944
1.06853
1.09123
1.10546
1.11781
1.13099
1.14204
1.14322
1.11998
1.0817
1.07346
1.08137
1.09981
0.857966
0.862839
0.860715
0.868636
0.877141
0.885184
0.904401
0.930668
0.974111
1.02631
1.06097
1.07998
1.09273
1.10458
1.11842
1.13223
1.1409
1.13227
1.09826
1.07662
1.08018
1.09804
0.845532
0.849538
0.847342
0.856568
0.865953
0.873822
0.891621
0.919786
0.967575
1.01924
1.05134
1.0678
1.0802
1.094
1.10983
1.12582
1.13812
1.13749
1.11343
1.0833
1.07966
1.09662
0.833856
0.837506
0.834703
0.843708
0.852648
0.86027
0.877787
0.909095
0.961583
1.01154
1.04154
1.05731
1.07194
1.08812
1.10548
1.12168
1.13394
1.13857
1.12417
1.09318
1.08063
1.09562
0.822104
0.825491
0.821851
0.829194
0.838363
0.847032
0.865961
0.901242
0.957413
1.00542
1.03455
1.05079
1.06539
1.08177
1.09916
1.11488
1.12769
1.13501
1.13005
1.10419
1.08287
1.09471
0.808534
0.811997
0.80849
0.81462
0.825412
0.835698
0.856427
0.895371
0.95336
1.00099
1.02733
1.04154
1.05528
1.07185
1.08981
1.10668
1.1209
1.13191
1.13302
1.11395
1.08735
1.09462
0.793152
0.798315
0.796597
0.802556
0.813759
0.824558
0.8463
0.88765
0.947008
0.993994
1.01594
1.02851
1.04325
1.06092
1.08053
1.09987
1.11591
1.12884
1.1335
1.12122
1.09371
1.09495
0.777088
0.78443
0.784454
0.790295
0.800889
0.811744
0.834126
0.877339
0.937478
0.982698
1.00312
1.01699
1.03384
1.05316
1.07412
1.09517
1.11223
1.12518
1.13199
1.126
1.10119
1.09587
0.761453
0.769914
0.770771
0.77597
0.786409
0.79787
0.821472
0.867062
0.926662
0.970733
0.99392
1.00999
1.02891
1.04893
1.06941
1.08978
1.10707
1.12029
1.12945
1.12876
1.10846
1.09748
0.745275
0.753708
0.755407
0.760696
0.772541
0.785361
0.810685
0.858532
0.917385
0.962401
0.987448
1.00484
1.02326
1.04264
1.06229
1.08202
1.10055
1.11536
1.12678
1.13013
1.11465
1.09938
0.729338
0.737329
0.740368
0.745807
0.758869
0.773135
0.800334
0.850729
0.911071
0.956727
0.979203
0.995839
1.01333
1.03289
1.05283
1.07331
1.09419
1.11097
1.12376
1.12939
1.11859
1.10173
0.713839
0.721126
0.725381
0.730503
0.744051
0.759854
0.789415
0.842875
0.905587
0.947767
0.966949
0.98317
1.00216
1.02366
1.04474
1.06661
1.08967
1.10712
1.11955
1.12656
1.12014
1.10484
0.699677
0.705896
0.710532
0.714416
0.727781
0.745624
0.778292
0.834845
0.896607
0.934275
0.953515
0.972237
0.994494
1.01778
1.04047
1.06259
1.08406
1.10116
1.11456
1.1243
1.12138
1.11204
0.685577
0.690325
0.695103
0.698329
0.711856
0.732069
0.768013
0.826189
0.883913
0.920507
0.94387
0.966196
0.991411
1.01505
1.03628
1.05582
1.07546
1.09498
1.11347
1.1277
1.13277
1.15896
0.670462
0.673818
0.680094
0.683755
0.69717
0.718956
0.757289
0.815444
0.870928
0.91124
0.938675
0.96313
0.987014
1.00867
1.02868
1.04725
1.06717
1.09249
1.12075
1.17808
1.23465
1.28734
0.654734
0.657723
0.66649
0.670641
0.682825
0.704928
0.744859
0.803668
0.861576
0.906149
0.932637
0.955413
0.977218
0.999037
1.01975
1.03842
1.06288
1.10186
1.20142
1.32472
1.394
1.40573
0.639371
0.643235
0.653232
0.657058
0.667033
0.688597
0.730584
0.793645
0.857304
0.898538
0.921181
0.942756
0.966114
0.991082
1.01157
1.03311
1.07037
1.18726
1.3472
1.43293
1.44949
1.43924
0.624079
0.627958
0.637869
0.641116
0.649501
0.671352
0.717489
0.787223
0.851872
0.884822
0.906736
0.930865
0.959229
0.985862
1.00871
1.03812
1.13589
1.31351
1.41632
1.46738
1.47859
1.4613
0.608334
0.610268
0.620465
0.625333
0.634188
0.656971
0.707035
0.78131
0.839373
0.869021
0.894544
0.92413
0.957393
0.983423
1.00855
1.0712
1.24858
1.38177
1.43722
1.48047
1.49067
1.47916
0.591681
0.592025
0.603564
0.611958
0.622163
0.645412
0.697124
0.770786
0.822916
0.856787
0.887989
0.923189
0.953872
0.976439
1.0129
1.1618
1.32998
1.40364
1.44195
1.47511
1.48585
1.48364
0.576877
0.577218
0.589553
0.599956
0.609966
0.632367
0.683502
0.754888
0.809828
0.850308
0.885599
0.918135
0.942748
0.972232
1.06377
1.2606
1.36356
1.39658
1.42992
1.46411
1.47628
1.47972
0.563536
0.563096
0.575242
0.585506
0.594599
0.615957
0.66578
0.739554
0.802302
0.847712
0.878253
0.905033
0.929062
0.978498
1.15863
1.31825
1.37118
1.3761
1.41156
1.45436
1.47229
1.47862
0.548562
0.547672
0.558342
0.568413
0.577442
0.598693
0.649715
0.729819
0.80099
0.839471
0.865356
0.889418
0.924897
1.03517
1.25089
1.34377
1.35972
1.36157
1.39964
1.44766
1.47432
1.48178
0.531868
0.53066
0.539481
0.551581
0.562884
0.585856
0.639439
0.725787
0.794784
0.82598
0.851751
0.879735
0.934306
1.13162
1.30133
1.34309
1.3517
1.36057
1.39369
1.4394
1.4742
1.48443
0.516379
0.515726
0.52349
0.538185
0.551882
0.575916
0.631822
0.719714
0.780111
0.812587
0.841915
0.879281
0.986983
1.21879
1.32141
1.33674
1.34498
1.36011
1.38646
1.42685
1.46798
1.48365
0.50332
0.503324
0.510549
0.526251
0.540929
0.565189
0.622137
0.705405
0.761826
0.803552
0.839827
0.886673
1.07565
1.26573
1.32225
1.33499
1.33993
1.35759
1.38125
1.41709
1.46086
1.48176
0.490684
0.491612
0.497539
0.513059
0.527675
0.550824
0.606748
0.683641
0.749516
0.799982
0.835933
0.917269
1.16305
1.28574
1.31748
1.3343
1.33923
1.358
1.38218
1.41437
1.45707
1.48093
0.4774
0.478565
0.481903
0.495712
0.510173
0.532887
0.588094
0.668066
0.74465
0.795779
0.831022
0.991321
1.21668
1.2879
1.3149
1.3344
1.34134
1.35863
1.38288
1.41238
1.45326
1.48155
0.462151
0.464159
0.46568
0.477638
0.493517
0.518719
0.5757
0.662125
0.746433
0.783658
0.835837
1.08499
1.24722
1.28845
1.3137
1.33344
1.34317
1.35656
1.37856
1.40571
1.44708
1.48183
0.448099
0.452412
0.453758
0.46468
0.481851
0.509874
0.567882
0.664055
0.740106
0.768014
0.886672
1.16526
1.25641
1.28762
1.31259
1.33099
1.3425
1.35357
1.37187
1.39738
1.43897
1.4802
0.438411
0.44361
0.444078
0.454077
0.472307
0.500809
0.559844
0.663741
0.721106
0.762673
0.987946
1.21878
1.25716
1.28216
1.31074
1.32831
1.34058
1.35242
1.36888
1.39257
1.43165
1.47668
)
;

boundaryField
{
    inlet
    {
        type            calculated;
        value           nonuniform 0();
    }
    outlet
    {
        type            calculated;
        value           nonuniform List<scalar> 
147
(
1.47243
1.46946
1.46729
1.46574
1.46437
1.46242
1.45989
1.45731
1.45577
1.45562
1.45607
1.456
1.45453
1.45217
1.45082
1.45121
1.45286
1.45434
1.45494
1.45456
1.45417
1.45565
1.45889
1.46301
1.46686
1.46979
1.47206
1.4746
1.47833
1.48303
1.48757
1.49116
1.49365
1.49585
1.49891
1.5028
1.50641
1.50878
1.50982
1.51056
1.51209
1.5143
1.51593
1.51619
1.51526
1.5143
1.51452
1.51536
1.51566
1.51486
1.51331
1.51223
1.51225
1.26892
1.26553
1.26209
1.25862
1.2552
1.2519
1.24869
1.24544
1.24193
1.23803
1.23404
1.23039
1.22731
1.2248
1.22268
1.22053
1.21757
1.2134
1.20858
1.20432
1.20132
1.19949
1.19834
1.19724
1.19528
1.19154
1.18638
1.18146
1.17801
1.17616
1.17551
1.17448
1.17208
1.16872
1.16517
1.16196
1.15913
1.15656
1.15427
1.15194
1.14938
1.14706
1.14459
1.14228
1.1402
1.13795
1.13594
1.13375
1.13152
1.12948
1.12728
1.12509
1.12301
1.12063
1.11855
1.11641
1.1142
1.11238
1.11014
1.10813
1.10586
1.10369
1.10163
1.09973
1.09798
1.0966
1.09562
1.09473
1.09465
1.095
1.09602
1.09773
1.09973
1.10216
1.10534
1.11286
1.162
1.29206
1.40885
1.44078
1.46179
1.47961
1.48417
1.48028
1.47887
1.48161
1.48441
1.48376
1.48186
1.48091
1.48142
1.48164
1.47997
1.47641
)
;
    }
    triangle
    {
        type            calculated;
        value           nonuniform 0();
    }
    top
    {
        type            symmetryPlane;
    }
    bottom
    {
        type            symmetryPlane;
    }
    defaultFaces
    {
        type            empty;
    }
    procBoundary15to6
    {
        type            processor;
        value           nonuniform List<scalar> 6(1.28516 1.27837 1.27081 1.26246 1.25403 1.24617);
    }
    procBoundary15to7
    {
        type            processor;
        value           nonuniform List<scalar> 
23
(
1.2495
1.25103
1.25216
1.25432
1.257
1.2601
1.26362
1.26669
1.2724
1.28252
1.27469
1.26805
1.26199
1.25658
1.25194
1.24889
1.2471
1.24558
1.24356
1.24279
1.24257
1.24316
1.24316
)
;
    }
    procBoundary15to14
    {
        type            processor;
        value           nonuniform List<scalar> 
141
(
0.423056
0.415214
0.406479
0.393428
0.375986
0.356504
0.338672
0.32338
0.311764
0.302683
0.293281
0.28358
0.274814
0.265027
0.25432
0.242696
0.232592
0.227063
0.225323
0.224894
0.22434
0.220434
0.21629
0.215081
0.214752
0.215496
0.217371
0.218322
0.219298
0.221518
0.225354
0.231531
0.239498
0.249552
0.26377
0.28302
0.305305
0.328653
0.351354
0.374003
0.395876
0.416393
0.435845
0.455404
0.47592
0.496828
0.517328
0.5363
0.552916
0.567803
0.582965
0.597883
0.611745
0.624126
1.23956
1.23419
1.22874
1.22142
1.2124
1.20322
1.1949
1.18771
1.18137
1.17472
1.16698
1.15802
1.1479