/*--------------------------------*- C++ -*----------------------------------*\
  =========                 |
  \\      /  F ield         | OpenFOAM: The Open Source CFD Toolbox
   \\    /   O peration     | Website:  https://openfoam.org
    \\  /    A nd           | Version:  7
     \\/     M anipulation  |
\*---------------------------------------------------------------------------*/
FoamFile
{
    version     2.0;
    format      ascii;
    class       volVectorField;
    location    "0.2";
    object      U;
}
// * * * * * * * * * * * * * * * * * * * * * * * * * * * * * * * * * * * * * //

dimensions      [0 1 -1 0 0 0 0];

internalField   nonuniform List<vector> 
3225
(
(1.82955 0.68535 0)
(1.79183 0.706384 0)
(1.76048 0.741315 0)
(1.74542 0.763362 0)
(1.70524 0.784193 0)
(1.65464 0.792227 0)
(1.55615 0.793658 0)
(1.4235 0.786387 0)
(1.32496 0.780571 0)
(1.2627 0.728542 0)
(1.07724 0.466624 0)
(0.973566 0.386443 0)
(0.969107 0.350547 0)
(0.96799 0.321163 0)
(0.971894 0.296414 0)
(0.972059 0.266383 0)
(0.968485 0.241543 0)
(0.967582 0.221511 0)
(0.970562 0.202278 0)
(0.977918 0.182082 0)
(0.990853 0.158735 0)
(1.00364 0.125099 0)
(1.83684 0.697917 0)
(1.79994 0.719154 0)
(1.76559 0.754021 0)
(1.751 0.777301 0)
(1.71002 0.798771 0)
(1.6582 0.807923 0)
(1.55597 0.803385 0)
(1.41881 0.788763 0)
(1.322 0.796657 0)
(1.23586 0.672378 0)
(1.01462 0.432837 0)
(0.965758 0.383367 0)
(0.961375 0.349642 0)
(0.961121 0.323116 0)
(0.965206 0.298467 0)
(0.966073 0.268331 0)
(0.963081 0.242992 0)
(0.96222 0.224328 0)
(0.965092 0.205162 0)
(0.972195 0.184771 0)
(0.984658 0.1615 0)
(0.99912 0.12648 0)
(1.84737 0.700867 0)
(1.81044 0.722927 0)
(1.77283 0.755644 0)
(1.7517 0.788483 0)
(1.71451 0.808957 0)
(1.66003 0.818278 0)
(1.55038 0.803576 0)
(1.41166 0.792584 0)
(1.31671 0.820342 0)
(1.19 0.59228 0)
(0.977383 0.419733 0)
(0.958456 0.379529 0)
(0.954655 0.352009 0)
(0.9545 0.325759 0)
(0.958591 0.300528 0)
(0.959872 0.270602 0)
(0.957561 0.244237 0)
(0.956888 0.225364 0)
(0.959715 0.205777 0)
(0.96649 0.185648 0)
(0.978728 0.16287 0)
(0.994366 0.128086 0)
(1.85858 0.716271 0)
(1.81773 0.729319 0)
(1.77806 0.755963 0)
(1.75231 0.78591 0)
(1.71757 0.806851 0)
(1.65766 0.821561 0)
(1.55581 0.80239 0)
(1.40218 0.813953 0)
(1.31296 0.822887 0)
(1.09576 0.513561 0)
(0.958665 0.410346 0)
(0.951906 0.37785 0)
(0.947953 0.355171 0)
(0.947738 0.328772 0)
(0.951914 0.302024 0)
(0.953286 0.272059 0)
(0.951747 0.244666 0)
(0.951709 0.224028 0)
(0.954817 0.203092 0)
(0.961375 0.183089 0)
(0.973265 0.16343 0)
(0.989723 0.130047 0)
(1.87607 0.722342 0)
(1.82296 0.732239 0)
(1.78629 0.754374 0)
(1.76489 0.786704 0)
(1.72684 0.812746 0)
(1.6643 0.832715 0)
(1.56693 0.811459 0)
(1.39596 0.847781 0)
(1.30031 0.772499 0)
(1.01682 0.465697 0)
(0.949586 0.405336 0)
(0.945837 0.379657 0)
(0.940504 0.357711 0)
(0.940246 0.330514 0)
(0.945022 0.301842 0)
(0.946444 0.271801 0)
(0.94561 0.244244 0)
(0.946313 0.221821 0)
(0.949908 0.200574 0)
(0.956566 0.181933 0)
(0.968159 0.164376 0)
(0.985234 0.131662 0)
(1.89011 0.745059 0)
(1.83119 0.747292 0)
(1.79232 0.762758 0)
(1.77001 0.786006 0)
(1.72907 0.816287 0)
(1.66451 0.84294 0)
(1.57302 0.825391 0)
(1.40265 0.886514 0)
(1.24569 0.66734 0)
(0.968832 0.437876 0)
(0.944644 0.406534 0)
(0.939277 0.383371 0)
(0.933032 0.35734 0)
(0.932343 0.330492 0)
(0.937573 0.300652 0)
(0.939298 0.270009 0)
(0.939568 0.24301 0)
(0.94117 0.220488 0)
(0.945442 0.200068 0)
(0.952381 0.182196 0)
(0.963345 0.165818 0)
(0.980707 0.132381 0)
(1.89398 0.752792 0)
(1.84595 0.760958 0)
(1.79993 0.770022 0)
(1.77346 0.793899 0)
(1.72604 0.828603 0)
(1.66749 0.847948 0)
(1.57155 0.847789 0)
(1.41004 0.918846 0)
(1.1134 0.573656 0)
(0.944622 0.428088 0)
(0.93926 0.410133 0)
(0.931247 0.387016 0)
(0.925137 0.355 0)
(0.924251 0.329043 0)
(0.930122 0.298683 0)
(0.932236 0.26791 0)
(0.933736 0.242194 0)
(0.936207 0.22095 0)
(0.941012 0.201554 0)
(0.947909 0.183634 0)
(0.958263 0.166633 0)
(0.975955 0.13222 0)
(1.88228 0.780815 0)
(1.86194 0.776118 0)
(1.80672 0.781037 0)
(1.78124 0.799193 0)
(1.73059 0.836881 0)
(1.68078 0.849333 0)
(1.56256 0.878346 0)
(1.41688 0.901823 0)
(1.02165 0.499274 0)
(0.936331 0.429114 0)
(0.932784 0.41525 0)
(0.923565 0.386978 0)
(0.917061 0.351328 0)
(0.916363 0.32651 0)
(0.92289 0.296682 0)
(0.925654 0.265887 0)
(0.927897 0.242597 0)
(0.9308 0.222392 0)
(0.935795 0.203761 0)
(0.942757 0.184175 0)
(0.95303 0.165668 0)
(0.971042 0.131741 0)
(1.86234 0.786673 0)
(1.86975 0.791027 0)
(1.81496 0.790093 0)
(1.78839 0.805731 0)
(1.73639 0.844243 0)
(1.69267 0.853426 0)
(1.56043 0.898168 0)
(1.40773 0.788685 0)
(0.976262 0.459674 0)
(0.931622 0.435341 0)
(0.924674 0.418925 0)
(0.914613 0.384183 0)
(0.908607 0.348277 0)
(0.908448 0.324675 0)
(0.915171 0.29622 0)
(0.918863 0.265359 0)
(0.922229 0.242733 0)
(0.925625 0.222453 0)
(0.930669 0.2034 0)
(0.937347 0.182707 0)
(0.947576 0.16341 0)
(0.966295 0.13176 0)
(1.83271 0.801283 0)
(1.86886 0.817044 0)
(1.82683 0.799796 0)
(1.79584 0.811173 0)
(1.74381 0.844735 0)
(1.70731 0.851288 0)
(1.57866 0.910372 0)
(1.26419 0.635597 0)
(0.94158 0.453253 0)
(0.924319 0.44249 0)
(0.915742 0.418035 0)
(0.905245 0.380365 0)
(0.899742 0.347921 0)
(0.9006 0.323773 0)
(0.907527 0.295878 0)
(0.912282 0.264906 0)
(0.916884 0.241735 0)
(0.920281 0.220311 0)
(0.925086 0.200895 0)
(0.931779 0.179737 0)
(0.942339 0.16226 0)
(0.962038 0.132513 0)
(1.802 0.793748 0)
(1.85323 0.85054 0)
(1.83897 0.82213 0)
(1.79905 0.822623 0)
(1.74941 0.83461 0)
(1.71352 0.845398 0)
(1.5863 0.919581 0)
(1.1176 0.536104 0)
(0.925037 0.461281 0)
(0.916379 0.445068 0)
(0.906403 0.412134 0)
(0.896194 0.378586 0)
(0.890686 0.349333 0)
(0.893014 0.323081 0)
(0.900628 0.294402 0)
(0.906115 0.263162 0)
(0.911094 0.239184 0)
(0.914337 0.216602 0)
(0.919646 0.196537 0)
(0.926951 0.177448 0)
(0.937871 0.162231 0)
(0.958013 0.133131 0)
(1.76659 0.788485 0)
(1.8322 0.857967 0)
(1.84398 0.84944 0)
(1.79812 0.841937 0)
(1.75451 0.834346 0)
(1.7 0.853246 0)
(1.58437 0.864605 0)
(1.04656 0.484179 0)
(0.922663 0.464528 0)
(0.908969 0.443862 0)
(0.89716 0.4076 0)
(0.887131 0.379021 0)
(0.881733 0.350464 0)
(0.885738 0.321608 0)
(0.893608 0.29098 0)
(0.89951 0.260037 0)
(0.904838 0.23623 0)
(0.908886 0.213306 0)
(0.91495 0.194202 0)
(0.922825 0.177003 0)
(0.933608 0.16325 0)
(0.953775 0.133166 0)
(1.72742 0.776166 0)
(1.7958 0.873986 0)
(1.83435 0.880736 0)
(1.7966 0.870851 0)
(1.76116 0.846461 0)
(1.70191 0.878997 0)
(1.60063 0.713082 0)
(0.997597 0.496744 0)
(0.920481 0.472301 0)
(0.901373 0.441822 0)
(0.889015 0.408019 0)
(0.878162 0.380064 0)
(0.873211 0.349959 0)
(0.878173 0.318266 0)
(0.88597 0.285925 0)
(0.892897 0.256843 0)
(0.898848 0.234279 0)
(0.903833 0.212303 0)
(0.910821 0.194425 0)
(0.918703 0.177847 0)
(0.929284 0.163133 0)
(0.949371 0.132017 0)
(1.67597 0.772703 0)
(1.76682 0.862825 0)
(1.82173 0.895204 0)
(1.79072 0.908605 0)
(1.76952 0.869768 0)
(1.70413 0.901015 0)
(1.4501 0.62109 0)
(0.955183 0.508204 0)
(0.912154 0.478037 0)
(0.892079 0.441844 0)
(0.879708 0.412343 0)
(0.869065 0.380002 0)
(0.86445 0.346853 0)
(0.870049 0.31392 0)
(0.879034 0.281189 0)
(0.886821 0.25525 0)
(0.89301 0.234601 0)
(0.898757 0.213622 0)
(0.906259 0.195868 0)
(0.914629 0.177535 0)
(0.924834 0.161486 0)
(0.944756 0.130094 0)
(1.62546 0.747331 0)
(1.72669 0.862542 0)
(1.80011 0.914409 0)
(1.78612 0.924791 0)
(1.77736 0.892141 0)
(1.7058 0.935305 0)
(1.30598 0.577079 0)
(0.9264 0.510019 0)
(0.899959 0.476777 0)
(0.882984 0.445113 0)
(0.869752 0.416254 0)
(0.858999 0.377534 0)
(0.855025 0.34252 0)
(0.862371 0.310009 0)
(0.872682 0.278851 0)
(0.880612 0.254738 0)
(0.887103 0.234313 0)
(0.893415 0.214283 0)
(0.901842 0.195662 0)
(0.910213 0.17523 0)
(0.92017 0.158072 0)
(0.940328 0.129037 0)
(1.57144 0.719749 0)
(1.69341 0.833634 0)
(1.77275 0.913862 0)
(1.77469 0.942889 0)
(1.77146 0.918994 0)
(1.70201 0.940462 0)
(1.20119 0.556717 0)
(0.910935 0.508432 0)
(0.889642 0.47622 0)
(0.873547 0.450083 0)
(0.859147 0.416989 0)
(0.847937 0.373475 0)
(0.846498 0.338182 0)
(0.854871 0.30814 0)
(0.865478 0.277581 0)
(0.874148 0.252653 0)
(0.881347 0.231996 0)
(0.888427 0.212279 0)
(0.896986 0.192698 0)
(0.90533 0.171164 0)
(0.915672 0.155386 0)
(0.936441 0.128645 0)
(1.51691 0.691992 0)
(1.65189 0.816187 0)
(1.73839 0.91948 0)
(1.77233 0.939391 0)
(1.75803 0.951716 0)
(1.69784 0.909638 0)
(1.12621 0.551326 0)
(0.906399 0.512872 0)
(0.882478 0.480402 0)
(0.863691 0.453507 0)
(0.846954 0.414606 0)
(0.837534 0.369392 0)
(0.838252 0.335489 0)
(0.847126 0.304833 0)
(0.857922 0.273784 0)
(0.867213 0.247992 0)
(0.875333 0.227404 0)
(0.88287 0.207457 0)
(0.891705 0.187695 0)
(0.900929 0.167544 0)
(0.911715 0.154047 0)
(0.932736 0.128929 0)
(1.46566 0.668439 0)
(1.61334 0.793235 0)
(1.7019 0.925526 0)
(1.76769 0.941328 0)
(1.75037 0.980471 0)
(1.7164 0.841606 0)
(1.04648 0.543312 0)
(0.894593 0.514972 0)
(0.873117 0.486472 0)
(0.852458 0.454475 0)
(0.834944 0.410037 0)
(0.826917 0.367429 0)
(0.829103 0.331098 0)
(0.838934 0.298394 0)
(0.849825 0.266502 0)
(0.859707 0.240983 0)
(0.869315 0.220379 0)
(0.877834 0.200476 0)
(0.887497 0.182185 0)
(0.89709 0.165076 0)
(0.907888 0.154114 0)
(0.928934 0.128795 0)
(1.41014 0.652175 0)
(1.56615 0.787332 0)
(1.6648 0.929241 0)
(1.75702 0.945634 0)
(1.74873 1.00375 0)
(1.69715 0.745969 0)
(0.950124 0.522085 0)
(0.873995 0.520813 0)
(0.86064 0.49281 0)
(0.839569 0.452227 0)
(0.82328 0.405296 0)
(0.814669 0.363697 0)
(0.819681 0.324088 0)
(0.830592 0.288101 0)
(0.841817 0.256504 0)
(0.85288 0.233195 0)
(0.863156 0.213059 0)
(0.872595 0.193511 0)
(0.88305 0.177862 0)
(0.892832 0.163877 0)
(0.904023 0.153418 0)
(0.924962 0.127599 0)
(1.36091 0.627326 0)
(1.52109 0.765876 0)
(1.62149 0.92776 0)
(1.74026 0.945911 0)
(1.74005 1.03087 0)
(1.56567 0.65322 0)
(0.877805 0.518137 0)
(0.856955 0.528865 0)
(0.846138 0.495229 0)
(0.825455 0.447977 0)
(0.809275 0.401542 0)
(0.803249 0.357062 0)
(0.809704 0.31537 0)
(0.821421 0.275875 0)
(0.834141 0.247251 0)
(0.845895 0.227114 0)
(0.85707 0.207758 0)
(0.867801 0.188898 0)
(0.878889 0.175248 0)
(0.889305 0.161916 0)
(0.900442 0.1509 0)
(0.920774 0.124987 0)
(1.30572 0.587946 0)
(1.45888 0.753299 0)
(1.57632 0.916197 0)
(1.71371 0.943257 0)
(1.71752 1.05591 0)
(1.38289 0.578289 0)
(0.854235 0.53202 0)
(0.848594 0.533834 0)
(0.830903 0.494963 0)
(0.809515 0.444478 0)
(0.794987 0.396182 0)
(0.791567 0.350445 0)
(0.799043 0.305624 0)
(0.812385 0.265536 0)
(0.82668 0.240929 0)
(0.839118 0.222325 0)
(0.851215 0.203816 0)
(0.862911 0.186156 0)
(0.874989 0.172545 0)
(0.885488 0.158286 0)
(0.89637 0.146681 0)
(0.916744 0.122339 0)
(1.23643 0.537929 0)
(1.39441 0.724365 0)
(1.53334 0.891418 0)
(1.67593 0.944108 0)
(1.68697 1.05215 0)
(1.22417 0.513674 0)
(0.854798 0.540265 0)
(0.841866 0.538162 0)
(0.814478 0.492986 0)
(0.792265 0.441017 0)
(0.781344 0.391488 0)
(0.779425 0.341738 0)
(0.787669 0.296796 0)
(0.802997 0.260915 0)
(0.819226 0.237339 0)
(0.832548 0.217548 0)
(0.84555 0.199746 0)
(0.858324 0.182732 0)
(0.871377 0.168336 0)
(0.882212 0.152435 0)
(0.893192 0.140947 0)
(0.913423 0.119372 0)
(1.16552 0.467744 0)
(1.32458 0.685017 0)
(1.50164 0.844045 0)
(1.62085 0.94144 0)
(1.68888 1.01006 0)
(1.12104 0.486039 0)
(0.856043 0.554478 0)
(0.827611 0.542743 0)
(0.793781 0.490898 0)
(0.775482 0.438804 0)
(0.766751 0.38585 0)
(0.765539 0.333243 0)
(0.776993 0.29296 0)
(0.794774 0.26121 0)
(0.811944 0.234019 0)
(0.826187 0.211779 0)
(0.840358 0.194597 0)
(0.854067 0.177607 0)
(0.867311 0.161824 0)
(0.878212 0.145971 0)
(0.889615 0.136152 0)
(0.910191 0.117151 0)
(1.08223 0.381918 0)
(1.2207 0.626329 0)
(1.46398 0.766223 0)
(1.55738 0.954458 0)
(1.73541 0.742113 0)
(1.01227 0.504102 0)
(0.841655 0.575918 0)
(0.803735 0.545483 0)
(0.771691 0.488447 0)
(0.75849 0.435754 0)
(0.749767 0.379623 0)
(0.752972 0.329133 0)
(0.76829 0.293355 0)
(0.787215 0.260112 0)
(0.804001 0.229783 0)
(0.819466 0.206437 0)
(0.835142 0.188923 0)
(0.84945 0.170676 0)
(0.863295 0.154057 0)
(0.875338 0.139429 0)
(0.88716 0.132322 0)
(0.907326 0.115295 0)
(0.953974 0.321769 0)
(1.17801 0.544516 0)
(1.43735 0.681713 0)
(1.52656 0.935284 0)
(1.53482 0.542073 0)
(0.877741 0.513996 0)
(0.803838 0.591452 0)
(0.77518 0.54476 0)
(0.751479 0.488236 0)
(0.739082 0.431854 0)
(0.733505 0.375981 0)
(0.742707 0.330546 0)
(0.760038 0.293474 0)
(0.778066 0.25672 0)
(0.795161 0.226556 0)
(0.81268 0.20284 0)
(0.830003 0.18342 0)
(0.84511 0.163216 0)
(0.859846 0.147202 0)
(0.872499 0.135176 0)
(0.884527 0.129683 0)
(0.904588 0.112949 0)
(0.797301 0.25413 0)
(1.08435 0.479196 0)
(1.37408 0.666608 0)
(1.49795 0.925428 0)
(1.31422 0.466028 0)
(0.794304 0.511124 0)
(0.763997 0.584844 0)
(0.747532 0.546066 0)
(0.730829 0.486012 0)
(0.718945 0.427429 0)
(0.719777 0.377495 0)
(0.732261 0.334066 0)
(0.750148 0.291379 0)
(0.767805 0.251877 0)
(0.786736 0.224705 0)
(0.805994 0.201636 0)
(0.824259 0.179043 0)
(0.840434 0.157279 0)
(0.856258 0.143234 0)
(0.869677 0.132557 0)
(0.881971 0.126754 0)
(0.901759 0.109618 0)
(0.617278 0.183292 0)
(1.02847 0.407552 0)
(1.24143 0.626251 0)
(1.45771 0.746575 0)
(1.16192 0.443436 0)
(0.792505 0.532774 0)
(0.738142 0.587242 0)
(0.720449 0.551842 0)
(0.70632 0.485829 0)
(0.701241 0.428968 0)
(0.706571 0.381947 0)
(0.720687 0.335423 0)
(0.738991 0.286718 0)
(0.758687 0.246475 0)
(0.779199 0.222821 0)
(0.799496 0.199877 0)
(0.818402 0.175471 0)
(0.835937 0.153444 0)
(0.852935 0.140767 0)
(0.867023 0.129571 0)
(0.879253 0.122856 0)
(0.898675 0.105622 0)
(0.484342 0.0388195 0)
(0.914493 0.341055 0)
(1.17471 0.535902 0)
(1.36227 0.52313 0)
(1.04657 0.457691 0)
(0.782996 0.564399 0)
(0.712621 0.597837 0)
(0.69086 0.556451 0)
(0.682383 0.488651 0)
(0.684777 0.434128 0)
(0.692572 0.385634 0)
(0.707751 0.333664 0)
(0.728379 0.280231 0)
(0.75034 0.243479 0)
(0.771997 0.220536 0)
(0.79242 0.196989 0)
(0.812473 0.172401 0)
(0.831365 0.151122 0)
(0.849434 0.138168 0)
(0.863848 0.125674 0)
(0.876202 0.118017 0)
(0.89597 0.101408 0)
(0.313969 -0.0825621 0)
(0.740409 0.235535 0)
(1.03291 0.425432 0)
(1.27438 0.410602 0)
(0.903115 0.482447 0)
(0.73668 0.589726 0)
(0.674816 0.613987 0)
(0.658085 0.567078 0)
(0.65922 0.496166 0)
(0.667114 0.440726 0)
(0.677536 0.385944 0)
(0.695121 0.327388 0)
(0.718673 0.275471 0)
(0.742696 0.242209 0)
(0.764669 0.21764 0)
(0.785228 0.193383 0)
(0.806712 0.169902 0)
(0.827032 0.148846 0)
(0.845974 0.134456 0)
(0.860841 0.120601 0)
(0.873595 0.11292 0)
(0.893494 0.0978301 0)
(0.129078 -0.200659 0)
(0.533603 0.113815 0)
(0.841228 0.3399 0)
(1.13483 0.369527 0)
(0.756284 0.505195 0)
(0.662583 0.610985 0)
(0.624228 0.633185 0)
(0.623313 0.573997 0)
(0.635718 0.504184 0)
(0.647865 0.44455 0)
(0.661767 0.381015 0)
(0.683824 0.317459 0)
(0.710307 0.27278 0)
(0.734994 0.241581 0)
(0.75707 0.21523 0)
(0.778553 0.190304 0)
(0.801491 0.167135 0)
(0.822597 0.145353 0)
(0.841833 0.129904 0)
(0.857324 0.115754 0)
(0.870757 0.10861 0)
(0.891188 0.0949558 0)
(-0.057899 -0.282906 0)
(0.327735 -0.00542835 0)
(0.66801 0.220598 0)
(0.946057 0.326162 0)
(0.653327 0.543624 0)
(0.591638 0.640071 0)
(0.571869 0.644684 0)
(0.588021 0.576835 0)
(0.611047 0.510853 0)
(0.626844 0.442962 0)
(0.646486 0.36951 0)
(0.674226 0.310817 0)
(0.702798 0.271107 0)
(0.726949 0.24104 0)
(0.749249 0.214309 0)
(0.771849 0.189064 0)
(0.795597 0.165115 0)
(0.817359 0.141818 0)
(0.837487 0.125606 0)
(0.85417 0.111668 0)
(0.868415 0.105078 0)
(0.889109 0.0920081 0)
(-0.219726 -0.371063 0)
(0.134885 -0.10883 0)
(0.503906 0.128236 0)
(0.723038 0.324509 0)
(0.561971 0.582631 0)
(0.529039 0.657656 0)
(0.524621 0.643943 0)
(0.553524 0.580154 0)
(0.585274 0.510704 0)
(0.605378 0.432716 0)
(0.632997 0.3591 0)
(0.666698 0.307076 0)
(0.695396 0.269365 0)
(0.718628 0.239314 0)
(0.741336 0.212743 0)
(0.765155 0.186852 0)
(0.7897 0.161805 0)
(0.812144 0.138049 0)
(0.833109 0.122309 0)
(0.850798 0.108681 0)
(0.865758 0.101734 0)
(0.886845 0.0884233 0)
(-0.359075 -0.442139 0)
(-0.047012 -0.208358 0)
(0.316372 0.0466882 0)
(0.468812 0.334336 0)
(0.453954 0.598144 0)
(0.460834 0.67232 0)
(0.478285 0.64286 0)
(0.521326 0.579544 0)
(0.55752 0.50216 0)
(0.585488 0.417974 0)
(0.622935 0.352908 0)
(0.659218 0.30537 0)
(0.68732 0.266092 0)
(0.709994 0.235664 0)
(0.73346 0.209556 0)
(0.758377 0.183397 0)
(0.783691 0.157976 0)
(0.806896 0.135126 0)
(0.828776 0.119983 0)
(0.847476 0.105905 0)
(0.863164 0.0980132 0)
(0.884749 0.0841883 0)
(-0.453397 -0.500005 0)
(-0.215895 -0.290159 0)
(0.0892087 0.0121465 0)
(0.218917 0.337947 0)
(0.323734 0.593855 0)
(0.380938 0.66959 0)
(0.431235 0.637632 0)
(0.487435 0.574185 0)
(0.529701 0.486092 0)
(0.569968 0.407161 0)
(0.614442 0.350008 0)
(0.651164 0.302788 0)
(0.677726 0.260916 0)
(0.700972 0.229767 0)
(0.725687 0.204531 0)
(0.751636 0.179004 0)
(0.777673 0.154595 0)
(0.801743 0.13259 0)
(0.824519 0.11775 0)
(0.843995 0.102703 0)
(0.860391 0.09394 0)
(0.882593 0.0800111 0)
(-0.523019 -0.517746 0)
(-0.352774 -0.334972 0)
(-0.117651 -0.0494065 0)
(0.0201253 0.322041 0)
(0.185859 0.572902 0)
(0.290103 0.653108 0)
(0.378514 0.633008 0)
(0.452173 0.559848 0)
(0.505965 0.471378 0)
(0.558384 0.40091 0)
(0.606315 0.347226 0)
(0.640811 0.297349 0)
(0.666938 0.254085 0)
(0.69183 0.22487 0)
(0.71817 0.200781 0)
(0.745117 0.175769 0)
(0.771807 0.152206 0)
(0.796396 0.130633 0)
(0.82002 0.114886 0)
(0.840393 0.099058 0)
(0.857579 0.0900868 0)
(0.880552 0.0765215 0)
(-0.571311 -0.509362 0)
(-0.447551 -0.336675 0)
(-0.274879 -0.0905464 0)
(-0.108412 0.270335 0)
(0.067039 0.530105 0)
(0.2015 0.625379 0)
(0.326539 0.622294 0)
(0.418491 0.540529 0)
(0.48718 0.460608 0)
(0.547968 0.395963 0)
(0.596532 0.341442 0)
(0.6283 0.28784 0)
(0.656041 0.24879 0)
(0.683388 0.221853 0)
(0.711195 0.198394 0)
(0.738767 0.173971 0)
(0.765896 0.150463 0)
(0.791048 0.128161 0)
(0.815272 0.111686 0)
(0.83678 0.0956092 0)
(0.85481 0.0868365 0)
(0.878614 0.0738269 0)
(-0.606638 -0.482353 0)
(-0.508568 -0.317592 0)
(-0.380126 -0.102288 0)
(-0.19161 0.206658 0)
(-0.0194283 0.473034 0)
(0.133247 0.599586 0)
(0.283737 0.600022 0)
(0.389003 0.521472 0)
(0.470889 0.449957 0)
(0.537215 0.388532 0)
(0.582824 0.329729 0)
(0.615292 0.277393 0)
(0.646056 0.244118 0)
(0.675245 0.219521 0)
(0.704121 0.196107 0)
(0.732417 0.171378 0)
(0.76003 0.147485 0)
(0.785639 0.125016 0)
(0.810593 0.108853 0)
(0.833186 0.0929725 0)
(0.851959 0.0840639 0)
(0.876613 0.0711964 0)
(-0.631876 -0.443943 0)
(-0.547295 -0.292688 0)
(-0.442934 -0.0725093 0)
(-0.25533 0.176327 0)
(-0.0771455 0.423513 0)
(0.0880724 0.568379 0)
(0.24814 0.564927 0)
(0.364431 0.49775 0)
(0.456837 0.435265 0)
(0.523046 0.374854 0)
(0.566951 0.313672 0)
(0.603885 0.266817 0)
(0.636966 0.238722 0)
(0.667719 0.214955 0)
(0.697548 0.191029 0)
(0.726278 0.166074 0)
(0.753979 0.142635 0)
(0.780095 0.122103 0)
(0.806058 0.10675 0)
(0.829653 0.0909341 0)
(0.849029 0.0813871 0)
(0.874562 0.0680586 0)
(-0.647906 -0.40088 0)
(-0.569829 -0.274842 0)
(-0.478057 -0.0492928 0)
(-0.30504 0.185739 0)
(-0.119053 0.395673 0)
(0.0564399 0.525077 0)
(0.219137 0.518333 0)
(0.34518 0.467602 0)
(0.441179 0.415462 0)
(0.504322 0.353075 0)
(0.552875 0.294576 0)
(0.593234 0.256659 0)
(0.628042 0.231808 0)
(0.659521 0.208304 0)
(0.690007 0.184032 0)
(0.719403 0.15951 0)
(0.747842 0.138242 0)
(0.774947 0.119314 0)
(0.801654 0.104724 0)
(0.826063 0.0884207 0)
(0.846019 0.0781589 0)
(0.872575 0.0643685 0)
(-0.655318 -0.3557 0)
(-0.582263 -0.249897 0)
(-0.493552 -0.0456876 0)
(-0.341364 0.185415 0)
(-0.156294 0.367229 0)
(0.0293886 0.473493 0)
(0.195125 0.47018 0)
(0.326992 0.437842 0)
(0.42294 0.388818 0)
(0.488003 0.323735 0)
(0.540836 0.27643 0)
(0.584147 0.246002 0)
(0.620301 0.221768 0)
(0.652946 0.198158 0)
(0.684279 0.174956 0)
(0.714274 0.152426 0)
(0.742953 0.13354 0)
(0.770168 0.11638 0)
(0.797244 0.101971 0)
(0.822112 0.0853699 0)
(0.842698 0.0746488 0)
(0.870454 0.0608838 0)
(-0.655225 -0.315179 0)
(-0.586977 -0.214793 0)
(-0.496256 -0.0502692 0)
(-0.357519 0.162893 0)
(-0.184431 0.332502 0)
(0.00504369 0.420947 0)
(0.173983 0.430134 0)
(0.309402 0.409327 0)
(0.403542 0.354974 0)
(0.472181 0.297829 0)
(0.529734 0.262394 0)
(0.575071 0.234435 0)
(0.611815 0.210009 0)
(0.645216 0.187905 0)
(0.677603 0.16731 0)
(0.70839 0.14772 0)
(0.737551 0.130384 0)
(0.765392 0.113221 0)
(0.792847 0.0983657 0)
(0.818254 0.0817858 0)
(0.839575 0.0713185 0)
(0.868575 0.0579038 0)
(-0.648808 -0.280339 0)
(-0.583942 -0.172256 0)
(-0.492508 -0.0382668 0)
(-0.360923 0.13473 0)
(-0.199121 0.289991 0)
(-0.0136989 0.372362 0)
(0.156118 0.400108 0)
(0.290242 0.378374 0)
(0.383598 0.323141 0)
(0.459009 0.279955 0)
(0.520598 0.250434 0)
(0.566303 0.221287 0)
(0.604232 0.196795 0)
(0.639607 0.176508 0)
(0.672955 0.159098 0)
(0.70385 0.142423 0)
(0.732949 0.126195 0)
(0.760845 0.109183 0)
(0.788581 0.0944688 0)
(0.814545 0.0786774 0)
(0.836533 0.0686913 0)
(0.866552 0.0555767 0)
(-0.638293 -0.254905 0)
(-0.573921 -0.136537 0)
(-0.483756 -0.011933 0)
(-0.357379 0.128941 0)
(-0.204134 0.261807 0)
(-0.0242179 0.341736 0)
(0.142273 0.374194 0)
(0.269884 0.344415 0)
(0.366724 0.299797 0)
(0.447937 0.26918 0)
(0.510009 0.23945 0)
(0.555659 0.208987 0)
(0.595486 0.185228 0)
(0.632724 0.166461 0)
(0.667107 0.150753 0)
(0.698597 0.135663 0)
(0.727778 0.121049 0)
(0.756179 0.105149 0)
(0.784521 0.0912467 0)
(0.811118 0.0763616 0)
(0.833708 0.0662981 0)
(0.864696 0.0532572 0)
(-0.624968 -0.234928 0)
(-0.558907 -0.117688 0)
(-0.470575 0.0140904 0)
(-0.349483 0.137048 0)
(-0.198542 0.252356 0)
(-0.0273588 0.324394 0)
(0.129836 0.346095 0)
(0.252631 0.314491 0)
(0.354423 0.284734 0)
(0.437743 0.260898 0)
(0.49822 0.227533 0)
(0.545796 0.196725 0)
(0.58912 0.174222 0)
(0.628542 0.156646 0)
(0.663857 0.141071 0)
(0.695249 0.126025 0)
(0.723979 0.113177 0)
(0.752258 0.100297 0)
(0.780789 0.0884084 0)
(0.807672 0.0742918 0)
(0.83068 0.0638296 0)
(0.862752 0.0500566 0)
(-0.611558 -0.216676 0)
(-0.541662 -0.111116 0)
(-0.454225 0.021344 0)
(-0.33834 0.143621 0)
(-0.191385 0.245013 0)
(-0.0271001 0.308184 0)
(0.119077 0.314072 0)
(0.239902 0.291682 0)
(0.343542 0.276673 0)
(0.425701 0.250676 0)
(0.485143 0.214385 0)
(0.535243 0.185419 0)
(0.581206 0.164299 0)
(0.621873 0.146982 0)
(0.658072 0.130913 0)
(0.690203 0.116428 0)
(0.719921 0.105155 0)
(0.748834 0.0948422 0)
(0.777389 0.0849545 0)
(0.804285 0.071833 0)
(0.827807 0.0607656 0)
(0.860708 0.0467941 0)
(-0.598377 -0.1979 0)
(-0.525572 -0.108309 0)
(-0.436301 0.0144644 0)
(-0.325226 0.137637 0)
(-0.183804 0.233216 0)
(-0.0278944 0.28347 0)
(0.108352 0.28508 0)
(0.228528 0.277907 0)
(0.332987 0.269213 0)
(0.410562 0.237134 0)
(0.471239 0.201834 0)
(0.525502 0.17404 0)
(0.574866 0.153326 0)
(0.617342 0.135925 0)
(0.654593 0.120485 0)
(0.687309 0.107695 0)
(0.717254 0.0982461 0)
(0.745894 0.0890645 0)
(0.774424 0.0800273 0)
(0.801236 0.0676788 0)
(0.824947 0.0569998 0)
(0.858703 0.043837 0)
(-0.585145 -0.178844 0)
(-0.511419 -0.100331 0)
(-0.417834 -0.000427807 0)
(-0.309416 0.11731 0)
(-0.176827 0.209756 0)
(-0.0318113 0.247299 0)
(0.0986863 0.260092 0)
(0.218969 0.268401 0)
(0.319575 0.25655 0)
(0.395223 0.221979 0)
(0.459523 0.188439 0)
(0.517017 0.163237 0)
(0.56797 0.143061 0)
(0.611458 0.12577 0)
(0.649548 0.111698 0)
(0.683105 0.100823 0)
(0.714111 0.0922942 0)
(0.743685 0.0830002 0)
(0.771882 0.0740871 0)
(0.798114 0.0630711 0)
(0.821845 0.0536865 0)
(0.85648 0.0415304 0)
(-0.573094 -0.162739 0)
(-0.499351 -0.0870121 0)
(-0.403533 -0.011129 0)
(-0.293119 0.0857175 0)
(-0.170895 0.172989 0)
(-0.0354884 0.210573 0)
(0.0925609 0.239431 0)
(0.210709 0.254293 0)
(0.305249 0.23628 0)
(0.381497 0.202615 0)
(0.448411 0.17707 0)
(0.508756 0.154986 0)
(0.561478 0.134356 0)
(0.606658 0.116628 0)
(0.646006 0.103627 0)
(0.680266 0.0939876 0)
(0.711354 0.0858514 0)
(0.740932 0.0767145 0)
(0.769386 0.068367 0)
(0.796008 0.05858 0)
(0.819583 0.0505501 0)
(0.854511 0.0394412 0)
(-0.56089 -0.147816 0)
(-0.488084 -0.0728722 0)
(-0.392989 -0.00736664 0)
(-0.282516 0.0629166 0)
(-0.164815 0.139036 0)
(-0.0368158 0.185092 0)
(0.0889067 0.222632 0)
(0.200363 0.228222 0)
(0.2905 0.2068 0)
(0.368829 0.185887 0)
(0.439723 0.167683 0)
(0.501524 0.14781 0)
(0.554693 0.127469 0)
(0.600877 0.109125 0)
(0.641377 0.0957502 0)
(0.676615 0.0857769 0)
(0.708506 0.0780014 0)
(0.738826 0.0701624 0)
(0.767256 0.0634495 0)
(0.793767 0.0551226 0)
(0.817128 0.0475579 0)
(0.85228 0.036883 0)
(-0.547514 -0.132712 0)
(-0.475923 -0.0632627 0)
(-0.384831 0.00413947 0)
(-0.274643 0.0581272 0)
(-0.158447 0.120013 0)
(-0.0359397 0.171322 0)
(0.0843653 0.200666 0)
(0.187997 0.195474 0)
(0.278317 0.180786 0)
(0.360286 0.169973 0)
(0.431595 0.158594 0)
(0.493292 0.140471 0)
(0.547982 0.119452 0)
(0.595866 0.101133 0)
(0.637881 0.0870684 0)
(0.674332 0.0762344 0)
(0.706912 0.0692587 0)
(0.737236 0.0638886 0)
(0.765116 0.0592432 0)
(0.791201 0.0518907 0)
(0.814355 0.0447319 0)
(0.849947 0.0340233 0)
(-0.536758 -0.115364 0)
(-0.462209 -0.0587831 0)
(-0.375648 0.00991131 0)
(-0.268242 0.060869 0)
(-0.152799 0.110764 0)
(-0.0349575 0.154727 0)
(0.0780062 0.16972 0)
(0.17885 0.164463 0)
(0.272653 0.160914 0)
(0.356078 0.158086 0)
(0.425857 0.146853 0)
(0.48612 0.128563 0)
(0.540602 0.109632 0)
(0.589946 0.0924846 0)
(0.633218 0.0784814 0)
(0.671088 0.0675339 0)
(0.704803 0.0611144 0)
(0.735638 0.0572678 0)
(0.763555 0.0542412 0)
(0.789176 0.0479429 0)
(0.812055 0.0409577 0)
(0.848034 0.0307962 0)
(-0.529844 -0.0965182 0)
(-0.450209 -0.0554309 0)
(-0.365091 0.00669932 0)
(-0.262383 0.0587847 0)
(-0.148589 0.0975306 0)
(-0.0356784 0.128064 0)
(0.0718747 0.136771 0)
(0.173963 0.141402 0)
(0.269201 0.150877 0)
(0.350241 0.148507 0)
(0.417958 0.133355 0)
(0.478776 0.114384 0)
(0.535032 0.0976609 0)
(0.585457 0.0831076 0)
(0.629832 0.0706119 0)
(0.66887 0.0605539 0)
(0.703498 0.0544298 0)
(0.734279 0.050473 0)
(0.761645 0.0480074 0)
(0.786673 0.0427416 0)
(0.809232 0.0367959 0)
(0.846125 0.0279161 0)
(-0.522716 -0.0766832 0)
(-0.442139 -0.0485818 0)
(-0.354356 -0.00109337 0)
(-0.255684 0.0481139 0)
(-0.146315 0.0781207 0)
(-0.0375285 0.0982584 0)
(0.0690042 0.111021 0)
(0.172926 0.12908 0)
(0.266247 0.141189 0)
(0.344067 0.133066 0)
(0.411873 0.115151 0)
(0.474093 0.0988272 0)
(0.530848 0.085999 0)
(0.581577 0.0744881 0)
(0.626569 0.0637318 0)
(0.666505 0.0544395 0)
(0.702034 0.0480851 0)
(0.733213 0.0438068 0)
(0.760274 0.0411789 0)
(0.784359 0.0371906 0)
(0.806691 0.0330928 0)
(0.844249 0.0254224 0)
(-0.515172 -0.0598286 0)
(-0.435585 -0.0319425 0)
(-0.345405 -0.00261416 0)
(-0.249091 0.036829 0)
(1.23323 0.103087 0)
(1.22698 0.107544 0)
(1.22059 0.111252 0)
(1.21425 0.11503 0)
(1.20738 0.117444 0)
(1.20079 0.120027 0)
(1.19374 0.120721 0)
(1.18779 0.121979 0)
(1.17709 0.121391 0)
(1.26325 -0.0106061 0)
(1.26526 0.000387618 0)
(1.26703 0.0116311 0)
(1.26759 0.0227251 0)
(1.26733 0.0334668 0)
(1.26621 0.0436523 0)
(1.26501 0.0542262 0)
(1.26259 0.0641719 0)
(1.25931 0.0725021 0)
(1.25549 0.0800593 0)
(1.2509 0.0876245 0)
(1.24582 0.0944525 0)
(1.24065 0.10165 0)
(1.2344 0.107445 0)
(1.22805 0.111575 0)
(1.22148 0.11538 0)
(1.2149 0.119116 0)
(1.20791 0.121437 0)
(1.20117 0.124039 0)
(1.19398 0.124644 0)
(1.18781 0.125675 0)
(1.1769 0.124813 0)
(1.26676 -0.00716354 0)
(1.26865 0.00372429 0)
(1.2703 0.0153646 0)
(1.27067 0.026811 0)
(1.27028 0.0376731 0)
(1.26924 0.0482152 0)
(1.26786 0.0591545 0)
(1.26503 0.0686258 0)
(1.26158 0.0767549 0)
(1.25731 0.0844784 0)
(1.25259 0.0918826 0)
(1.24787 0.099243 0)
(1.24203 0.106553 0)
(1.23552 0.111466 0)
(1.22915 0.115679 0)
(1.22236 0.119646 0)
(1.21557 0.123266 0)
(1.20842 0.125497 0)
(1.2015 0.128066 0)
(1.19416 0.128527 0)
(1.18778 0.129357 0)
(1.17669 0.128277 0)
(1.27029 -0.00406384 0)
(1.27222 0.00731181 0)
(1.2737 0.0195178 0)
(1.27375 0.0309463 0)
(1.2733 0.0419361 0)
(1.27232 0.0530939 0)
(1.27052 0.0640021 0)
(1.26746 0.0727982 0)
(1.26374 0.0809681 0)
(1.25903 0.0887685 0)
(1.25467 0.0965798 0)
(1.2497 0.10463 0)
(1.24335 0.111056 0)
(1.23666 0.115311 0)
(1.23026 0.119898 0)
(1.22325 0.124044 0)
(1.21625 0.127552 0)
(1.20889 0.129677 0)
(1.20176 0.132054 0)
(1.19424 0.13228 0)
(1.18771 0.13302 0)
(1.17651 0.131858 0)
(1.27424 -0.000563214 0)
(1.27609 0.0116017 0)
(1.27707 0.0239154 0)
(1.27686 0.0350094 0)
(1.27648 0.0463996 0)
(1.27535 0.0581885 0)
(1.27307 0.0684898 0)
(1.26982 0.0768019 0)
(1.26576 0.085054 0)
(1.26101 0.0931542 0)
(1.25691 0.102016 0)
(1.25121 0.110075 0)
(1.24454 0.1149 0)
(1.23798 0.119288 0)
(1.23136 0.124306 0)
(1.22415 0.128583 0)
(1.21691 0.131999 0)
(1.20929 0.133917 0)
(1.20192 0.135909 0)
(1.19424 0.135898 0)
(1.18761 0.136728 0)
(1.17634 0.135603 0)
(1.27834 0.00355795 0)
(1.28 0.016499 0)
(1.28042 0.0282332 0)
(1.28015 0.039088 0)
(1.27979 0.0511528 0)
(1.27822 0.0630545 0)
(1.27556 0.0725785 0)
(1.27207 0.0807763 0)
(1.26783 0.0891728 0)
(1.26351 0.0981165 0)
(1.25883 0.107976 0)
(1.25255 0.114626 0)
(1.24568 0.11853 0)
(1.23936 0.123556 0)
(1.23249 0.128995 0)
(1.22509 0.133265 0)
(1.21749 0.136475 0)
(1.20957 0.138006 0)
(1.20201 0.13959 0)
(1.19421 0.139544 0)
(1.18755 0.140597 0)
(1.17616 0.139523 0)
(1.28288 0.00879011 0)
(1.2838 0.0214838 0)
(1.2838 0.0321912 0)
(1.28363 0.0433411 0)
(1.2831 0.0560983 0)
(1.28104 0.0674359 0)
(1.27797 0.0764502 0)
(1.27424 0.0848219 0)
(1.27038 0.0938861 0)
(1.2662 0.103914 0)
(1.26048 0.113369 0)
(1.25369 0.118089 0)
(1.24714 0.122522 0)
(1.24072 0.128321 0)
(1.23368 0.133989 0)
(1.22595 0.137886 0)
(1.21794 0.140677 0)
(1.20976 0.141848 0)
(1.20212 0.143294 0)
(1.19429 0.143482 0)
(1.18757 0.144725 0)
(1.17598 0.14355 0)
(1.28708 0.0145449 0)
(1.28744 0.0257938 0)
(1.28744 0.0361054 0)
(1.28733 0.0480641 0)
(1.28629 0.0608707 0)
(1.28376 0.0712988 0)
(1.2803 0.0802708 0)
(1.27672 0.0894133 0)
(1.27333 0.0996205 0)
(1.26834 0.109921 0)
(1.26198 0.11717 0)
(1.25491 0.121404 0)
(1.24884 0.12712 0)
(1.2421 0.133732 0)
(1.23476 0.138957 0)
(1.22661 0.14214 0)
(1.21825 0.144458 0)
(1.20996 0.145606 0)
(1.20229 0.147264 0)
(1.19446 0.147815 0)
(1.18762 0.14908 0)
(1.17574 0.147515 0)
(1.29087 0.0196522 0)
(1.29116 0.0295654 0)
(1.29126 0.0403788 0)
(1.29093 0.0531267 0)
(1.28931 0.0650979 0)
(1.28637 0.0748575 0)
(1.2827 0.0843632 0)
(1.27971 0.0949726 0)
(1.27582 0.106139 0)