/*--------------------------------*- C++ -*----------------------------------*\
  =========                 |
  \\      /  F ield         | OpenFOAM: The Open Source CFD Toolbox
   \\    /   O peration     | Website:  https://openfoam.org
    \\  /    A nd           | Version:  7
     \\/     M anipulation  |
\*---------------------------------------------------------------------------*/
FoamFile
{
    version     2.0;
    format      ascii;
    class       volVectorField;
    location    "0.8";
    object      U;
}
// * * * * * * * * * * * * * * * * * * * * * * * * * * * * * * * * * * * * * //

dimensions      [0 1 -1 0 0 0 0];

internalField   nonuniform List<vector> 
325
(
(3 7.03624e-13 0)
(3 -2.19936e-10 0)
(3 -1.15665e-08 0)
(3 -6.83244e-16 0)
(3 -3.17383e-16 0)
(3 5.46072e-17 0)
(3 -1.52917e-15 0)
(3 -6.55908e-14 0)
(3 3.83612e-12 0)
(3 -5.7041e-10 0)
(3 -2.02684e-08 0)
(3 -5.44429e-16 0)
(3 -2.4921e-16 0)
(3 9.11056e-16 0)
(3 1.86271e-15 0)
(3 -1.08356e-13 0)
(3 6.85116e-12 0)
(3 -8.02908e-10 0)
(3 -2.03885e-08 0)
(3 4.04058e-16 0)
(3 -1.56479e-16 0)
(3 4.12504e-15 0)
(3 7.73955e-16 0)
(3 -1.52001e-13 0)
(3 6.9202e-12 0)
(3 -8.95035e-10 0)
(3 -1.4286e-08 0)
(3 6.59344e-16 0)
(3 -5.78097e-16 0)
(3 1.99268e-15 0)
(3 5.33088e-16 0)
(3 -1.44294e-13 0)
(3 6.49622e-12 0)
(3 -9.43432e-10 0)
(3 -4.88072e-09 0)
(3 1.60795e-16 0)
(3 -8.24146e-16 0)
(3 -2.3918e-15 0)
(3 1.20777e-15 0)
(3 -1.11416e-13 0)
(3 6.63621e-12 0)
(3 -7.16094e-10 0)
(3 1.92306e-08 0)
(3 1.07275e-15 0)
(3 4.91429e-16 0)
(3 -2.5942e-15 0)
(3 1.31598e-16 0)
(3 -8.64468e-14 0)
(3 6.55278e-12 0)
(3 -4.90759e-10 0)
(3 4.20029e-08 0)
(3 2.8287e-15 0)
(3 2.34813e-15 0)
(3 -4.93672e-17 0)
(3 3.48204e-16 0)
(3 -3.40221e-14 0)
(3 4.8903e-12 0)
(3 -6.76476e-10 0)
(3 6.12606e-08 0)
(3 -1.14437e-15 0)
(3 1.90568e-15 0)
(3 -2.98246e-16 0)
(3 1.75354e-15 0)
(3 3.76578e-14 0)
(3 1.65104e-12 0)
(3 -8.66048e-10 0)
(3 7.9024e-08 0)
(3 -1.8946e-15 0)
(3 -1.38832e-15 0)
(3 -4.72962e-16 0)
(3 9.65494e-16 0)
(3 7.61516e-14 0)
(3 -4.99544e-12 0)
(3 -9.94791e-10 0)
(3 1.04225e-07 0)
(3 -1.32547e-15 0)
(3 -1.61967e-15 0)
(3 1.98919e-16 0)
(3 9.38333e-16 0)
(3 8.79918e-14 0)
(3 -9.8553e-12 0)
(3 -1.05729e-09 0)
(3 1.3869e-07 0)
(3 -8.08969e-16 0)
(3 7.54277e-16 0)
(3 4.35825e-17 0)
(3 5.07887e-16 0)
(3 9.84136e-14 0)
(3 -1.15768e-11 0)
(3 -1.2264e-09 0)
(3 1.70428e-07 0)
(3 1.61175e-15 0)
(3 7.75796e-16 0)
(3 2.9062e-16 0)
(3 7.03366e-16 0)
(3 6.87873e-14 0)
(3 -1.21519e-11 0)
(3 -1.36053e-09 0)
(3 2.04627e-07 0)
(3 -1.12546e-15 0)
(3 -3.44145e-16 0)
(3 2.6021e-15 0)
(3 1.30188e-15 0)
(3 2.6262e-14 0)
(3 -9.51146e-12 0)
(3 -1.39573e-09 0)
(3 2.34586e-07 0)
(3 -1.44481e-16 0)
(3 3.95392e-16 0)
(3 4.42182e-15 0)
(3 1.4499e-15 0)
(3 -1.35077e-14 0)
(3 -7.21542e-12 0)
(3 -1.36354e-09 0)
(3 2.47589e-07 0)
(3 1.21999e-15 0)
(3 -4.90492e-16 0)
(3 7.87242e-16 0)
(3 3.01106e-15 0)
(3 -5.77271e-14 0)
(3 -4.3798e-12 0)
(3 -1.38004e-09 0)
(3 2.51232e-07 0)
(3 -4.23718e-16 0)
(3 -1.11642e-15 0)
(3 -6.08036e-17 0)
(3 6.79738e-15 0)
(3 -8.47781e-14 0)
(3 1.57563e-12 0)
(3 -1.21222e-09 0)
(3 2.45158e-07 0)
(3 3.16464e-16 0)
(3 -6.31656e-16 0)
(3 1.05685e-15 0)
(3 6.09551e-15 0)
(3 -9.62002e-14 0)
(3 4.31917e-12 0)
(3 -9.98851e-10 0)
(3 2.3205e-07 0)
(3 -4.64561e-16 0)
(3 2.54669e-16 0)
(3 3.65363e-16 0)
(3 3.93955e-15 0)
(3 -9.40632e-14 0)
(3 -5.85663e-15 0)
(3 -8.3753e-10 0)
(3 2.12831e-07 0)
(3 -7.19419e-16 0)
(3 8.99239e-16 0)
(3 -9.74411e-16 0)
(3 2.52962e-15 0)
(3 -8.22993e-14 0)
(3 -4.61805e-12 0)
(3 -6.43256e-10 0)
(3 1.98306e-07 0)
(3 -2.35508e-16 0)
(3 -2.06374e-15 0)
(3 -4.28092e-15 0)
(3 1.79305e-15 0)
(3 -7.23935e-14 0)
(3 -9.26963e-12 0)
(3 -1.13914e-10 0)
(3 1.70702e-07 0)
(3 -1.1154e-16 0)
(3 -1.07215e-15 0)
(3 -1.46118e-15 0)
(3 1.39847e-15 0)
(3 -7.83256e-14 0)
(3 -1.40557e-11 0)
(3 8.74934e-10 0)
(3 1.52514e-07 0)
(3 -1.55298e-15 0)
(3 -1.12233e-15 0)
(3 -1.82389e-15 0)
(3 3.45572e-16 0)
(3 -1.02372e-13 0)
(3 -9.43746e-12 0)
(3 1.77174e-09 0)
(3 1.36157e-07 0)
(3 -9.88001e-16 0)
(3 -7.14678e-16 0)
(3 -2.6144e-15 0)
(3 -5.27622e-16 0)
(3 -1.29247e-13 0)
(3 1.93743e-12 0)
(3 2.39325e-09 0)
(3 1.17416e-07 0)
(3 1.14048e-15 0)
(3 2.62173e-15 0)
(3 6.90492e-16 0)
(3 2.83196e-15 0)
(3 -1.7341e-13 0)
(3 1.41211e-11 0)
(3 2.68265e-09 0)
(3 1.01451e-07 0)
(3 -6.10306e-16 0)
(3 -4.94071e-16 0)
(3 7.20805e-16 0)
(3 1.99776e-15 0)
(3 -2.09203e-13 0)
(3 2.89549e-11 0)
(3 2.32858e-09 0)
(3 6.30166e-08 0)
(3 -2.09553e-15 0)
(3 -4.82981e-15 0)
(3 -1.82721e-15 0)
(3 2.82364e-16 0)
(3 -2.21767e-13 0)
(3 4.56562e-11 0)
(3 1.53228e-09 0)
(3 2.36165e-08 0)
(3 -1.30007e-15 0)
(3 -3.18691e-15 0)
(3 -3.00049e-15 0)
(3 1.18988e-15 0)
(3 -2.25687e-13 0)
(3 6.2241e-11 0)
(3 1.06975e-09 0)
(3 -6.44967e-09 0)
(3 2.76208e-15 0)
(3 1.15003e-15 0)
(3 -9.463e-16 0)
(3 -1.47971e-15 0)
(3 -2.18431e-13 0)
(3 6.95488e-11 0)
(3 2.8888e-10 0)
(3 -1.76095e-08 0)
(3 3.08764e-15 0)
(3 4.53753e-15 0)
(3 1.72722e-15 0)
(3 7.87348e-16 0)
(3 -1.91811e-13 0)
(3 6.87477e-11 0)
(3 -1.04633e-09 0)
(3 -2.01337e-08 0)
(3 1.90144e-15 0)
(3 3.41763e-15 0)
(3 2.72779e-15 0)
(3 3.19268e-15 0)
(3 -1.64752e-13 0)
(3 6.40134e-11 0)
(3 -1.97455e-09 0)
(3 -2.2203e-08 0)
(3 -4.65673e-07 0)
(3 1.37881e-15 0)
(3 -3.19427e-17 0)
(3 1.72959e-15 0)
(3 4.92112e-15 0)
(3 -1.34729e-13 0)
(3 5.87766e-11 0)
(3 -6.68822e-10 0)
(3 -2.95259e-08 0)
(3 7.1628e-08 0)
(3 -1.1724e-15 0)
(3 -2.6485e-15 0)
(3 -8.18589e-16 0)
(3 9.4833e-16 0)
(3 -1.02215e-13 0)
(3 4.81019e-11 0)
(3 -8.97665e-10 0)
(3 -3.24665e-08 0)
(3 2.4272e-07 0)
(3 -3.03011e-15 0)
(3 -1.75966e-15 0)
(3 5.01552e-16 0)
(3 -2.55363e-15 0)
(3 -6.07071e-14 0)
(3 4.06012e-11 0)
(3 3.54881e-10 0)
(3 -3.15304e-08 0)
(3 2.57413e-07 0)
(3 -1.64707e-15 0)
(3 -1.59282e-16 0)
(3 2.28578e-15 0)
(3 -1.54176e-16 0)
(3 -2.60201e-14 0)
(3 3.27199e-11 0)
(3 7.14545e-10 0)
(3 -2.93575e-08 0)
(3 2.99228e-07 0)
(3 1.05502e-15 0)
(3 -8.61874e-16 0)
(3 -1.14025e-15 0)
(3 -6.34447e-16 0)
(3 1.20735e-14 0)
(3 3.07945e-11 0)
(3 8.22928e-10 0)
(3 -2.53777e-08 0)
(3 2.61628e-07 0)
(3 2.62459e-15 0)
(3 1.91901e-15 0)
(3 -7.34004e-17 0)
(3 -1.48632e-15 0)
(3 4.8546e-14 0)
(3 3.16185e-11 0)
(3 8.38789e-10 0)
(3 -2.02916e-08 0)
(3 1.98203e-07 0)
(3 -2.89366e-16 0)
(3 1.8931e-15 0)
(3 3.0594e-15 0)
(3 9.65332e-17 0)
(3 4.96381e-14 0)
(3 2.67128e-11 0)
(3 6.98722e-10 0)
(3 -1.45145e-08 0)
(3 1.5451e-07 0)
(3 -1.57178e-15 0)
(3 8.92471e-16 0)
(3 9.12994e-16 0)
(3 8.00547e-16 0)
(3 4.20019e-14 0)
(3 1.15968e-11 0)
(3 4.56237e-10 0)
(3 -8.56156e-09 0)
(3 8.55413e-08 0)
(3 -8.88013e-17 0)
(3 9.17287e-16 0)
(3 1.26314e-15 0)
(3 1.17441e-15 0)
(3 3.95073e-14 0)
(3 -4.25812e-12 0)
(3 2.343e-10 0)
(3 -2.79666e-09 0)
(3 7.63549e-08 0)
)
;

boundaryField
{
    inlet
    {
        type            fixedValue;
        value           uniform (3 0 0);
    }
    outlet
    {
        type            inletOutlet;
        inletValue      nonuniform 0();
        value           nonuniform 0();
    }
    triangle
    {
        type            slip;
    }
    top
    {
        type            symmetryPlane;
    }
    bottom
    {
        type            symmetryPlane;
    }
    defaultFaces
    {
        type            empty;
    }
    procBoundary4to0
    {
        type            processor;
        value           nonuniform List<vector> 9((3 -6.10391e-16 0) (3 -5.29852e-16 0) (3 -6.66003e-16 0) (3 -3.02638e-15 0) (3 -2.35546e-14 0) (3 -2.35546e-14 0) (3 -1.09692e-12 0) (3 1.81792e-10 0) (3 5.23941e-09 0));
    }
    procBoundary4to1
    {
        type            processor;
        value           nonuniform List<vector> 2((3.00009 -4.54417e-06 0) (3.00008 -9.94062e-06 0));
    }
    procBoundary4to5
    {
        type            processor;
        value           nonuniform List<vector> 
39
(
(3.00007 -9.21608e-06 0)
(3.00006 -1.5079e-05 0)
(3.00005 -1.61897e-05 0)
(3.00004 -1.83913e-05 0)
(3.00004 -1.92624e-05 0)
(3.00004 -2.01442e-05 0)
(3.00003 -2.07792e-05 0)
(3.00003 -2.10501e-05 0)
(3.00003 -2.10725e-05 0)
(3.00002 -2.09083e-05 0)
(3.00002 -2.06954e-05 0)
(3.00002 -2.03229e-05 0)
(3.00002 -1.99189e-05 0)
(3.00002 -1.92753e-05 0)
(3.00002 -1.85647e-05 0)
(3.00001 -1.76896e-05 0)
(3.00001 -1.66222e-05 0)
(3.00001 -1.55289e-05 0)
(3.00001 -1.38308e-05 0)
(3.00001 -1.18032e-05 0)
(3 -9.64578e-06 0)
(3 -7.71621e-06 0)
(3 -5.97696e-06 0)
(3 -4.64465e-06 0)
(3 -3.557e-06 0)
(3 -2.66967e-06 0)
(3 -1.92377e-06 0)
(3 -1.14663e-06 0)
(3 -1.14663e-06 0)
(2.99989 -2.18292e-06 0)
(2.99989 -1.05771e-06 0)
(2.9999 4.4405e-06 0)
(2.99989 3.78288e-06 0)
(2.99989 -1.33393e-06 0)
(2.99988 -5.6083e-06 0)
(2.99986 6.78356e-06 0)
(2.99985 2.02664e-08 0)
(2.99985 -5.22142e-06 0)
(2.99986 -1.13674e-05 0)
)
;
    }
}


// ************************************************************************* //
