/*--------------------------------*- C++ -*----------------------------------*\
  =========                 |
  \\      /  F ield         | OpenFOAM: The Open Source CFD Toolbox
   \\    /   O peration     | Website:  https://openfoam.org
    \\  /    A nd           | Version:  8
     \\/     M anipulation  |
\*---------------------------------------------------------------------------*/
FoamFile
{
    version     2.0;
    format      ascii;
    class       volScalarField;
    location    "0.7";
    object      p;
}
// * * * * * * * * * * * * * * * * * * * * * * * * * * * * * * * * * * * * * //

dimensions      [1 -1 -2 0 0 0 0];

internalField   nonuniform List<scalar> 
325
(
2.01354
1.16561
1.12299
1.56994
1.96341
1.14134
1.11726
1.48723
1.93944
1.13003
1.12095
1.39165
1.86315
1.13728
1.11893
1.31438
1.75932
1.16924
1.16641
1.25259
1.64241
1.10192
1.1949
1.21065
1.51933
1.61538
1.19421
1.13769
1.36258
2.14408
1.24556
1.12112
1.17812
2.56688
1.39759
1.16013
1.0451
2.9013
1.60051
1.22991
1.06211
3.16881
1.82167
1.34967
1.11696
3.38469
2.03386
1.4787
1.20107
3.55962
2.2291
1.61847
1.29658
3.70819
2.3989
1.76105
1.41352
3.83053
2.55412
1.90274
1.53615
3.96172
2.69419
2.04338
1.673
4.11367
2.83782
2.18267
1.80234
4.27878
2.98927
2.31843
1.9381
4.48579
3.16192
2.46024
2.06269
4.68376
3.3518
2.60145
2.19034
4.84837
3.55421
2.75548
2.31042
5.04793
3.7365
2.91255
2.43062
5.36134
3.94028
3.08002
2.56051
5.48624
4.21022
3.29674
2.68895
5.58067
4.32891
3.42567
2.81689
5.6563
4.50536
3.59551
2.94789
6.66328
6.36834
5.96416
5.43967
6.50545
6.21449
5.78426
5.10784
6.47606
6.18629
5.75354
5.06573
6.42906
6.13169
5.69581
4.98187
6.40406
6.09226
5.64793
4.94284
6.38643
6.06776
5.62121
4.93852
6.38217
6.04984
5.60772
4.95638
6.35375
6.034
5.60473
4.99343
6.37473
6.08569
5.61517
5.05365
6.40151
6.15178
5.62368
5.15141
6.46011
6.2394
5.69192
5.31317
6.66197
6.43827
5.87051
5.48754
6.89582
6.69449
6.19084
5.72547
7.31682
7.03363
6.41815
5.86185
7.69197
7.28686
6.67041
6.01236
7.62826
7.31058
6.69543
6.2283
7.03113
7.51721
6.88525
6.37919
5.70214
7.68072
7.07698
6.57599
3.9242
7.41923
6.95996
6.54418
6.92317
7.05028
6.64145
5.7977
4.72378
3.81054
3.13139
5.97734
4.9425
4.05855
3.37609
6.17041
5.12747
4.28022
3.6122
6.34618
5.29652
4.49249
3.8335
6.44896
5.47119
4.72589
4.04908
6.06019
5.69965
4.97394
4.24705
5.3233
5.86012
5.16639
4.41349
4.41722
5.96371
5.31777
4.57564
3.83398
6.0171
5.47808
4.75277
3.03953
5.93155
5.65457
4.93546
2.39675
5.79641
5.83673
5.10925
1.65458
5.24257
6.06675
5.30702
1.20546
4.55059
6.17757
5.50922
1.05959
3.79452
6.07652
5.6652
1.0482
3.04097
5.87876
5.68165
1.04782
2.20745
5.40358
5.67826
1.04918
1.6319
4.71831
5.83088
1.05257
1.37654
4.09135
6.08826
1.05919
1.30359
3.57181
6.37186
1.07398
1.29347
3.21779
6.61161
1.17697
4.90066
7.29579
6.83512
1.98238
6.49185
6.90884
1.10215
4.31303
6.92419
1.02532
1.75895
5.969
1.02308
1.07053
3.97626
1.02377
1.02645
1.80203
1.02377
1.02709
1.09156
1.0232
1.02811
1.03216
1.02294
1.02841
1.0328
1.0231
1.02864
1.03353
1.02314
1.02901
1.03414
1.02278
1.0292
1.0341
1.02222
1.02912
1.03406
1.0221
1.02796
1.03417
1.02233
1.02741
1.0346
1.0226
1.02738
1.03463
1.02302
1.02736
1.03507
1.02322
1.0276
1.03467
1.02309
1.02797
1.03409
1.02294
1.02851
1.03372
)
;

boundaryField
{
    inlet
    {
        type            fixedValue;
        value           nonuniform List<scalar> 0();
    }
    outlet
    {
        type            zeroGradient;
    }
    triangle
    {
        type            zeroGradient;
    }
    top
    {
        type            symmetryPlane;
    }
    bottom
    {
        type            symmetryPlane;
    }
    defaultFaces
    {
        type            empty;
    }
    procBoundary6to2
    {
        type            processor;
        value           nonuniform List<scalar> 5(2.0211 1.17358 1.12582 1.60764 1.60764);
    }
    procBoundary6to5
    {
        type            processor;
        value           nonuniform List<scalar> 
43
(
6.9407
6.73719
6.69072
6.63429
6.61624
6.61069
6.66405
6.66052
6.69205
6.72504
6.75352
6.94493
7.017
6.97023
5.97519
4.33052
2.13843
1.25003
1.11511
2.0265
2.0265
2.0265
1.05719
1.04193
1.04193
1.02863
1.02236
1.02034
1.01978
1.01951
1.01922
1.01916
1.01919
1.0191
1.01892
1.01855
1.01829
1.01848
1.01876
1.01905
1.01922
1.01937
1.01961
)
;
    }
    procBoundary6to7
    {
        type            processor;
        value           nonuniform List<scalar> 
47
(
2.3155
2.29674
2.28857
2.2573
2.20954
2.14766
2.0712
1.95004
1.77243
1.51625
1.25313
1.08024
1.0763
1.10277
1.16149
1.22618
1.30693
1.41027
1.52645
1.63827
1.75709
1.86958
1.97655
2.08152
2.18477
2.28253
2.38195
2.54164
2.76561
2.97114
3.17443
3.36842
3.54524
3.70582
3.85539
3.99504
4.12705
4.24371
4.3657
4.55692
4.90389
5.49356
6.18434
6.79582
7.18422
7.35335
7.50851
)
;
    }
}


// ************************************************************************* //
