/*--------------------------------*- C++ -*----------------------------------*\
  =========                 |
  \\      /  F ield         | OpenFOAM: The Open Source CFD Toolbox
   \\    /   O peration     | Website:  https://openfoam.org
    \\  /    A nd           | Version:  7
     \\/     M anipulation  |
\*---------------------------------------------------------------------------*/
FoamFile
{
    version     2.0;
    format      ascii;
    class       volScalarField;
    location    "1.3";
    object      p;
}
// * * * * * * * * * * * * * * * * * * * * * * * * * * * * * * * * * * * * * //

dimensions      [1 -1 -2 0 0 0 0];

internalField   nonuniform List<scalar> 
2600
(
0.797728
0.878649
0.917068
0.896678
1.01953
1.20285
1.4261
1.56739
1.85998
3.18775
0.909784
0.889995
0.912351
0.925593
1.07324
1.25074
1.44573
1.59903
1.87335
3.15433
0.90997
0.852128
0.896095
0.947472
1.11861
1.27266
1.47691
1.63642
1.86685
3.13543
0.910602
0.851292
0.896376
0.970425
1.1543
1.29079
1.505
1.64727
1.88149
3.12058
0.922817
0.841728
0.88589
0.97649
1.17613
1.29445
1.53062
1.65736
1.89498
3.11968
0.939942
0.852445
0.890427
0.98671
1.18592
1.31373
1.5375
1.65616
1.90025
3.11
0.947504
0.857477
0.897402
0.983306
1.18293
1.31362
1.5464
1.65084
1.91265
3.09285
0.946281
0.859863
0.897489
0.97529
1.17773
1.31765
1.5516
1.64767
1.91887
3.04118
0.934933
0.857192
0.895846
0.979681
1.18185
1.31795
1.55362
1.6431
1.92653
2.93058
0.927612
0.853961
0.90318
0.982729
1.18177
1.32342
1.55544
1.64093
1.93316
2.89598
0.927489
0.854083
0.903268
0.982586
1.18233
1.31944
1.55509
1.64269
1.9337
2.8958
0.934694
0.857768
0.896078
0.978465
1.18014
1.31628
1.55426
1.64591
1.92712
2.93008
0.946018
0.860888
0.898298
0.975501
1.17627
1.31338
1.55335
1.65217
1.91901
3.04098
0.947383
0.858849
0.899052
0.983079
1.18003
1.30809
1.54862
1.6559
1.91233
3.09204
0.939943
0.853938
0.892274
0.986647
1.18368
1.30899
1.54182
1.66173
1.89959
3.10894
0.92286
0.842878
0.887275
0.977401
1.17267
1.28959
1.53288
1.66347
1.89336
3.11809
0.910889
0.852077
0.897327
0.970207
1.1528
1.28799
1.5088
1.6544
1.88036
3.11862
0.910309
0.852877
0.897163
0.946999
1.11595
1.27013
1.47894
1.64092
1.86594
3.13314
0.910238
0.890648
0.913386
0.92554
1.06853
1.2475
1.44818
1.60466
1.8716
3.15139
0.797834
0.879503
0.918178
0.896849
1.01504
1.20007
1.4285
1.57162
1.85799
3.18424
1.71736
0.891697
0.920036
0.877192
0.964947
1.1483
1.39808
1.51265
1.86251
3.23975
2.71406
0.970874
0.965656
0.874316
0.924396
1.0937
1.35085
1.46132
1.87039
3.29968
3.31095
1.18174
1.01109
0.872756
0.902511
1.04269
1.28923
1.40949
1.88491
3.34982
3.76066
1.50467
1.05757
0.855958
0.884331
0.992404
1.21276
1.36902
1.90298
3.39073
4.16535
1.81005
1.15218
0.857226
0.874619
0.94863
1.12909
1.32548
1.92724
3.42687
4.35796
2.11799
1.2893
0.865339
0.880453
0.91457
1.05211
1.27972
1.94306
3.45179
4.5432
2.37341
1.43917
0.902791
0.89343
0.89557
0.992363
1.23132
1.95126
3.46257
4.69703
2.61362
1.60385
0.973046
0.908995
0.888145
0.952705
1.18442
1.95448
3.47553
4.88027
2.83397
1.75598
1.04424
0.933879
0.883465
0.926853
1.1421
1.94837
3.48518
4.86909
3.06071
1.91419
1.13009
0.966544
0.887928
0.914869
1.10601
1.92743
3.4817
4.79976
3.30413
2.0567
1.22888
1.00399
0.891937
0.911456
1.0778
1.8931
3.46937
4.74904
3.50016
2.1962
1.33493
1.05739
0.899077
0.912034
1.05983
1.84388
3.44928
4.50278
3.61103
2.31742
1.43548
1.12072
0.907905
0.912478
1.04278
1.77418
3.41481
4.19455
3.69091
2.44889
1.54817
1.19494
0.918128
0.916907
1.02288
1.69023
3.36479
3.88598
3.65985
2.57973
1.67191
1.26598
0.927256
0.924162
1.00831
1.60003
3.29662
3.53588
3.61995
2.71217
1.80278
1.3557
0.958331
0.930385
0.997339
1.5212
3.21067
3.01819
3.60368
2.83171
1.9308
1.43772
1.00016
0.929845
1.00294
1.48356
3.12038
2.72195
3.58076
2.92737
2.06314
1.52958
1.04824
0.934841
1.00922
1.4673
3.02541
2.33425
3.54921
3.01597
2.18789
1.61654
1.10803
0.951357
1.02408
1.49816
2.94386
2.00998
3.48831
3.08821
2.30383
1.69895
1.16577
0.969754
1.043
1.52131
2.86663
1.75111
2.54282
3.91093
5.92677
9.90958
9.57836
7.77913
6.62508
6.43443
6.61037
0.999997
0.994257
1.13154
1.56203
4.66335
7.21057
6.85461
6.51404
6.50427
6.73269
1
1.00001
1
0.998315
1.36008
6.01075
7.44616
6.9045
6.68182
6.78416
1
1
1
1.00001
0.999997
2.17797
6.63505
6.94364
6.65352
6.77545
1
1
1
1
1
1.00006
4.06255
7.01108
6.72999
6.82799
1
1
1
1
1
1
1.34643
5.73436
6.72874
6.86729
1
1
1
1
1
1
0.999996
2.7462
6.41389
6.92443
1
1
1
1
1
1
1
1.10565
5.05202
6.8924
1
1
1
1
1
1
1
1.00006
2.52338
6.55515
1
1
1
1
1
1
1
1
1.12679
5.46547
1
1
1
1
1
1
1
1
1.00111
3.87158
1
1
1
1
1
1
1
1
1.00001
1.97011
1
1
1
1
1
1
1
1
1
0.999442
1
1
1
1
1
1
1
1
1
0.993434
1
1
1
1
1
1
1
1
1
0.99651
1
1
1
1
1
1
1
1
1
0.998821
1
1
1
1
1
1
1
1
1
0.999732
1
1
1
1
1
1
1
1
1
0.999967
1
1
1
1
1
1
1
1
1
0.999999
1
1
1
1
1
1
1
1
1
1
1
1
1
1
1
1
1
1
1
1
1
1
1
1
1
1
1
1
1
1
1
1
1
1
1
1
1
1
1
1
1
1
1
1
1
1
1
1
1
1
1
1
1
1
1
1
1
1
1
1
1
1
1
1
1
1
1
1
1
1
1
1
1
1
1
1
1
1
1
1
1
1
1
1
1
1
1
1
1
1
1
1
1
1
1
1
1
1
1
1
1
1
1
1
1
1
1
1
1
1
1
1
1
1
1
1
1
1
1
1
1
1
1
1
1
1
1
1
1
1
1
1
1
1
1
1
1
1
1
1
1
1
1
1
1
1
1
1
1
1
1
1
1
1
1
1
1
1
1
1
1
1
1
1
1
1
1
1
1
1
1
1
1
1
1
1
1
1
1
1
1
1
1
1
1
1
1
1
1
1
1
1
1
1
1
1
1
1
1
1
1
1
1
1
1
1
1
1
1
1
1
1
1
1
1
1
1
1
1
1
1
1
1
1
1
1
1
1
1
1
1
1
1
1
1
1
1
1
1
1
1
1
1
1
1
1
1
1
1
1
1
1
1
1
1
1
1
1
1
1
1
1
1
1
1
1
1
1
1
1
1
1
1
1
1
1
1
1
1
1
1
1
1
1
1
1
1
1
1
1
1
1
1
1
1
1
1
1
1
1
1
1
1
1
1
1
1
1
1
1
1
1
1
1
1
1
1
1
1
1
1
1
1
1
1
1
1
1
1
1
1
1
1
1
1
1
1
1
1
1
1
1
1
1
1
1
1
1
1
1
1
1
1
1
1
1
1
1
1
1
1
1
1
1
1
1
1
1
1
1
1
1
1
1
1
1
1
1
1
1
1
1
1
1
1
1
1
1
1
1
1
1
1
1
1
1
1
1
1
1
1
1
1
1
1
1
1
1
1
1
1
1
1
1
1
1
1
1
1
1
1
1
1
1
1
1
1
1
1
0.999999
1
1
1
1
1
1
1
1
1
0.999967
1
1
1
1
1
1
1
1
1
0.999732
1
1
1
1
1
1
1
1
1
0.99882
1
1
1
1
1
1
1
1
1
0.996507
1
1
1
1
1
1
1
1
1
0.993431
1
1
1
1
1
1
1
1
1
0.999483
1
1
1
1
1
1
1
1
1.00001
1.97026
1
1
1
1
1
1
1
1
1.00112
3.87172
1
1
1
1
1
1
1
1
1.12682
5.46562
1
1
1
1
1
1
1
1.00006
2.52354
6.55524
1
1
1
1
1
1
1
1.10567
5.05217
6.89244
1
1
1
1
1
1
0.999996
2.74636
6.41394
6.92445
1
1
1
1
1
1
1.34646
5.73449
6.72877
6.86729
1
1
1
1
1
1.00006
4.06263
7.01113
6.73002
6.828
1
1
1
1.00001
0.999997
2.17798
6.63509
6.94367
6.65355
6.77547
1
1.00001
1
0.998315
1.36008
6.01076
7.44618
6.90454
6.68185
6.78419
0.999997
0.994257
1.13154
1.56203
4.66335
7.21057
6.85462
6.51408
6.5043
6.73272
1.75111
2.54282
3.91093
5.92677
9.90958
9.57836
7.77914
6.62512
6.43446
6.6104
2.01001
3.48846
3.08815
2.3039
1.69893
1.16595
0.969081
1.04216
1.52105
2.86527
2.33428
3.5493
3.01582
2.1878
1.61636
1.10854
0.950957
1.02334
1.49823
2.94372
2.72204
3.58072
2.9271
2.06305
1.52945
1.04897
0.93443
1.00847
1.46791
3.02604
3.01832
3.60322
2.83143
1.93067
1.43751
1.00056
0.929389
1.0022
1.48298
3.12084
3.53604
3.61979
2.712
1.80247
1.35581
0.958982
0.930419
0.996815
1.51963
3.21122
3.88615
3.65994
2.57958
1.67175
1.2662
0.927784
0.924602
1.0077
1.59947
3.29761
4.1947
3.69148
2.44871
1.54797
1.19512
0.918396
0.917355
1.02201
1.68907
3.36557
4.50289
3.6108
2.31721
1.43517
1.1213
0.908586
0.91302
1.04172
1.77341
3.4159
4.7491
3.50001
2.19599
1.33476
1.05814
0.899962
0.912797
1.05853
1.8436
3.45074
4.79977
3.30412
2.05642
1.22884
1.00488
0.892826
0.912176
1.07627
1.89319
3.47081
4.8691
3.06062
1.91406
1.12961
0.967514
0.888887
0.915381
1.10447
1.92793
3.48303
4.8803
2.83388
1.75586
1.04376
0.934827
0.884648
0.92709
1.14084
1.94932
3.48637
4.69695
2.61359
1.60383
0.972302
0.910502
0.889495
0.952571
1.1836
1.95573
3.47651
4.5431
2.37347
1.43901
0.902881
0.894567
0.897037
0.991516
1.23072
1.9526
3.46361
4.358
2.11815
1.28872
0.866075
0.881128
0.916191
1.05043
1.2791
1.9441
3.45372
4.16563
1.81018
1.15112
0.857794
0.87552
0.950686
1.12648
1.32447
1.92793
3.42943
3.76077
1.50455
1.05647
0.856347
0.885503
0.99482
1.20971
1.36754
1.90366
3.39359
3.3112
1.18115
1.00998
0.873004
0.90398
1.04516
1.28541
1.40713
1.88587
3.35299
2.71434
0.970028
0.964278
0.874581
0.926631
1.0964
1.3472
1.45775
1.87153
3.30291
1.71742
0.890622
0.918772
0.877283
0.968563
1.15112
1.39467
1.5087
1.8644
3.24335
1
1
1
1
1.00245
1.43547
5.29149
5.97513
4.87065
3.13739
1
1
1
1
1.00421
1.45865
5.26299
5.92067
4.84617
3.11594
1
1
1
1.00002
1.00965
1.4964
5.19395
5.78728
4.77702
3.09895
1
1
1
1.00013
1.03235
1.55255
5.00959
5.56454
4.66462
3.06852
1
1
1.00001
1.0008
1.12092
1.6461
4.75087
5.35956
4.63656
3.07784
1
1
1.00003
1.00392
1.35063
1.8096
4.31891
4.9776
4.35117
3.00986
1
1
1.00012
1.01681
1.71782
2.05213
3.72372
4.69049
4.17429
3.00587
1
1
1.00055
1.06237
2.09682
2.28149
3.22624
4.40409
3.98131
2.884
1
1
1.00231
1.20455
2.34637
2.44004
2.81047
4.0505
3.76603
2.82062
1
1.00002
1.00905
1.52956
2.50081
2.4988
2.46406
3.62817
3.5253
2.75868
1
1.00011
1.03631
1.97192
2.6173
2.46429
2.17926
3.14834
3.26278
2.69262
1
1.00061
1.1372
2.36709
2.72201
2.42162
1.98087
2.66992
3.03236
2.61125
1
1.00317
1.4157
2.63508
2.75952
2.34872
1.83009
2.27446
2.813
2.53609
0.999993
1.01647
1.87542
2.83022
2.72026
2.20877
1.67597
1.96449
2.58312
2.48592
0.999973
1.08187
2.34552
2.93661
2.63468
2.03279
1.5178
1.721
2.33445
2.4618
0.999931
1.3271
2.69888
2.98558
2.53342
1.87253
1.3858
1.53054
2.10248
2.45669
0.999835
1.79974
2.97806
2.94808
2.38358
1.71292
1.27215
1.38254
1.91669
2.47902
1.00339
2.36301
3.12765
2.81499
2.18393
1.55071
1.17061
1.25729
1.76878
2.51921
1.12731
2.8482
3.22115
2.69514
2.01531
1.40727
1.09088
1.16623
1.65415
2.64062
1.53401
3.29527
3.19717
2.49199
1.84217
1.26821
1.01377
1.08575
1.57039
2.76473
1.53399
3.29514
3.19712
2.49203
1.84201
1.26802
1.01418
1.08635
1.57078
2.7685
1.12729
2.8481
3.2211
2.6951
2.0153
1.40711
1.0912
1.16683
1.65459
2.64307
1.00338
2.36294
3.12763
2.81496
2.18402
1.55034
1.1709
1.2579
1.76971
2.50865
0.999835
1.79967
2.97804
2.94809
2.38358
1.71268
1.27242
1.38311
1.91713
2.48104
0.999931
1.32706
2.69885
2.98559
2.53346
1.87231
1.38596
1.53114
2.10295
2.45713
0.999973
1.08185
2.34549
2.93662
2.63472
2.03266
1.51797
1.72164
2.33494
2.46106
0.999993
1.01647
1.8754
2.83019
2.72029
2.20872
1.67619
1.9652
2.5834
2.48534
1
1.00317
1.41569
2.63503
2.75951
2.34867
1.83035
2.27537
2.81314
2.53567
1
1.00061
1.1372
2.36705
2.72198
2.4215
1.98113
2.6709
3.03252
2.61098
1
1.00011
1.03631
1.97193
2.61723
2.46412
2.17963
3.14932
3.26303
2.69243
1
1.00002
1.00905
1.52959
2.50068
2.4986
2.46469
3.629
3.52556
2.75856
1
1
1.00231
1.20456
2.34622
2.43988
2.81163
4.05108
3.76616
2.82047
1
1
1.00055
1.06237
2.09673
2.28136
3.22779
4.40433
3.98131
2.88389
1
1
1.00012
1.0168
1.71778
2.05205
3.72561
4.6905
4.1742
3.00572
1
1
1.00003
1.00392
1.3506
1.80962
4.32103
4.9779
4.35112
3.0097
1
1
1.00001
1.0008
1.12092
1.64626
4.75263
5.36018
4.63658
3.0777
1
1
1
1.00013
1.03236
1.55302
5.01125
5.565
4.66445
3.06825
1
1
1
1.00002
1.00967
1.4971
5.19565
5.78724
4.77652
3.09861
1
1
1
1
1.00422
1.4594
5.26474
5.92034
4.84543
3.11558
1
1
1
1
1.00246
1.43617
5.29321
5.97435
4.86961
3.13697
1
1
1
1
1
1
1
1
1
1
1
1
1
1
1
1
1
1
1
1
1
1
1
1
1
1
1
1
1
1
1
1
1
1
1
1
1
1
1
1
1
1
1
1
1
1
1
1
1
1
1
1
1
1
1
1
1
1
1
1
1
1
1
1
1
1
1
1
1
1
1
1
1
1
1
1
1
1
1
1
1
1
1
1
1
1
1
1
1
1
1
1
1
1
1
1
1
1
1
1
1
1
1
1
1
1
1
1
1
1
1
1
1
1
1
1
1
1
1
1
1
1
1
1
1
1
1
1
1
1
1
1
1
1
1
1
1
1
1
1
1
1
1
1
1
1
1
1
1
1
1
1
1
1
1
1
1
1
1
1
1
1
1
1
1
1
1
1
1
1
1
1
1
1
1
1
1
1
1
1
1
1
1
1
1
1
1
1
1
1
1
1
1
1
1
1
1
1
1
1
1
1
1
1
1
1
1
1
1
1
1
1
1
1
1
1
1
1
1
1
1
1
1
1
1
1
1
1
1
1
1
1
1
1
1
1
1
1
1
1
1
1
1
1
1
1
1
1
1
1
1
1
1
1
1
1
1
1
1
1
1
1
1
1
1
1
1
1
1
1
1
1
1
1
1
1
1
1
1
1
1
1
1
1
1
1
1
1
1
1
1
1
1
1
1
1
1
1
1
1
1
1
1
1
1
1
1
1
1
1
1
1
1
1
1
1
1
1
1
1
1
1
1
1
1
1
1
1
1
1
1
1
1
1
1
1
1
1
1
1
1
1
1
1
1
1
1
1
1
1
1
1
1
1
1
1
1
1
1
1
1
1
1
1
1
1
1
1
1
1
1
1
1
1
1
1
1
1
1
1
1
1
1
1
1
1
1
1
1
1
1
1
1
1
1
1
1
1
1
1
1
1
1
1
1
1
1
1
1
1
1
1
1
1
1
1
1
1
1
1
1
1
1
1
1
1
1
1
1
1
1
1
1
1
1
1
1
1
1
1
1
1
1
1
1
1
1
1
1
1
1
1
1
1
1
1
1
1
1
1
1
1
1
1
1
1
1
1
1
1
1
1
1
1
1
1
1
1
1
1
1
1
1
1
1
1
1
1
1
1
1
1
1
1
1
1
1
1
1
1
1
1
1
1
1
1
1
1
1
1
1
1
1
1
1
1
1
1
1
1
1
1
1
1
1
1
1
1
1
1
1
1
1
1
1
1
1
1
1
1
1
1
1
1
1
1
1
1
1
1
1
1
1
1
1
1
1
1
1
1
1
1
1
1
1
1
1
1
1
1
1
1
1
1
1
1
1
1
1
1
1
1
1
1
1
1
1
1
1
1
1
1
1
1
1
1
1
1
1
1
1
1
1
1
1
1
1
1
1
1
1
1
1
1
1
1
1
1
1
1
1
1
1
1
1
1
1
1
1
1
1
1
1
1
1
1
1
1
1
1
1
1
1
1
1
1
1
1
1
1
1
1
1
1
1
1
1
1
1
1
1
1
1
1
1
1
1
1
1
1
1
1
1
1
1
1
1
1
1
1
1
1
1
1
1
1
1
1
1
1
1
1
1
1
1
1
1
1
1
1
1
1
1
1
1
1
1
1
1
1
1
1
1
1
1
1
1
1
1
1
1
1
1
1
1
1
1
1
1
1
1
1
1
1
1
1
1
1
1
1
1
1
1
1
1
1
1
1
1
1
1
1
1
1
1
1
1
1
1
1
1
1
1
1
1
1
1
1
1
1
1
1
1
1
1
1
1
1
1
1
1
1
1
1
1
1
1
1
1
1
1
1
1
1
1
1
1
1
1
1
)
;

boundaryField
{
    inlet
    {
        type            fixedValue;
        value           uniform 1;
    }
    outlet
    {
        type            zeroGradient;
    }
    triangle
    {
        type            zeroGradient;
    }
    top
    {
        type            symmetryPlane;
    }
    bottom
    {
        type            symmetryPlane;
    }
    defaultFaces
    {
        type            empty;
    }
}


// ************************************************************************* //
