/*--------------------------------*- C++ -*----------------------------------*\
  =========                 |
  \\      /  F ield         | OpenFOAM: The Open Source CFD Toolbox
   \\    /   O peration     | Website:  https://openfoam.org
    \\  /    A nd           | Version:  8
     \\/     M anipulation  |
\*---------------------------------------------------------------------------*/
FoamFile
{
    version     2.0;
    format      ascii;
    class       volScalarField;
    location    "1.3";
    object      p;
}
// * * * * * * * * * * * * * * * * * * * * * * * * * * * * * * * * * * * * * //

dimensions      [1 -1 -2 0 0 0 0];

internalField   nonuniform List<scalar> 
2600
(
0.797638
0.878581
0.916921
0.896715
1.02159
1.20362
1.42401
1.5664
1.86198
3.18875
0.909362
0.889938
0.912276
0.925648
1.07548
1.25161
1.44386
1.59751
1.87497
3.1551
0.909692
0.851972
0.895939
0.947755
1.11961
1.27371
1.47475
1.63542
1.86825
3.1361
0.910283
0.851092
0.896216
0.970732
1.15435
1.29275
1.50225
1.64536
1.88277
3.12117
0.922497
0.841194
0.885461
0.976511
1.17774
1.29654
1.52825
1.65632
1.89635
3.12034
0.939625
0.851827
0.889801
0.987171
1.18748
1.3152
1.5337
1.65504
1.90126
3.11065
0.947456
0.856903
0.896847
0.983543
1.18434
1.31536
1.54396
1.64954
1.91342
3.09346
0.946466
0.859482
0.897161
0.975392
1.17868
1.31901
1.54933
1.64664
1.91944
3.04189
0.935152
0.857007
0.895772
0.979948
1.18238
1.31899
1.55366
1.64264
1.92676
2.9313
0.927725
0.853872
0.902951
0.982416
1.18136
1.32433
1.55575
1.64049
1.93308
2.89623
0.927377
0.853973
0.90314
0.982538
1.18211
1.31878
1.55553
1.64316
1.93387
2.89562
0.934454
0.857849
0.896137
0.978276
1.17934
1.31558
1.55448
1.64651
1.92723
2.92945
0.945844
0.861241
0.898455
0.975523
1.17593
1.31213
1.55499
1.65307
1.91868
3.04027
0.947445
0.859443
0.89951
0.983205
1.17902
1.30625
1.55086
1.6568
1.91157
3.0913
0.940211
0.85455
0.892902
0.986501
1.18228
1.30733
1.54521
1.66306
1.89869
3.10822
0.923109
0.843353
0.887555
0.9774
1.17148
1.28772
1.53567
1.66494
1.89204
3.11734
0.911137
0.852248
0.897451
0.969673
1.15235
1.28636
1.51164
1.65608
1.879
3.11793
0.91048
0.853
0.897351
0.946587
1.11434
1.2694
1.48141
1.64186
1.86452
3.1324
0.91051
0.890695
0.91359
0.925366
1.06619
1.24677
1.45079
1.60646
1.86995
3.15065
0.797834
0.879607
0.918359
0.896735
1.01299
1.19944
1.43101
1.57285
1.85613
3.18337
1.71734
0.89194
0.920289
0.876946
0.963409
1.14751
1.40061
1.51379
1.86085
3.23895
2.71402
0.971082
0.966
0.873962
0.923409
1.09283
1.35323
1.46245
1.86895
3.29919
3.31094
1.18192
1.01132
0.87244
0.901785
1.04184
1.29156
1.41026
1.88404
3.34966
3.76068
1.50474
1.0578
0.855637
0.883758
0.991663
1.21475
1.36946
1.90265
3.39084
4.16526
1.81001
1.15245
0.856885
0.87421
0.948111
1.13084
1.32579
1.92658
3.4269
4.35797
2.11794
1.28943
0.864998
0.88011
0.914127
1.05331
1.27993
1.94198
3.45137
4.54326
2.37339
1.43917
0.902668
0.892958
0.89508
0.993008
1.23156
1.95027
3.46198
4.69707
2.61366
1.60382
0.973215
0.908404
0.887712
0.952958
1.1848
1.95389
3.47538
4.88026
2.83405
1.756
1.0444
0.933511
0.883086
0.926946
1.14268
1.94811
3.48535
4.86908
3.06078
1.91422
1.13024
0.966232
0.887563
0.914801
1.10666
1.92738
3.48193
4.79975
3.30414
2.0568
1.22887
1.00366
0.891633
0.911282
1.07836
1.89307
3.46952
4.74901
3.50023
2.19625
1.335
1.05708
0.898801
0.911841
1.06023
1.84373
3.44923
4.50273
3.61114
2.31748
1.43564
1.12051
0.907715
0.912353
1.04308
1.77356
3.41453
4.19448
3.69061
2.44894
1.54827
1.19491
0.918139
0.916816
1.02311
1.68917
3.36455
3.88591
3.65981
2.5798
1.67197
1.26591
0.927098
0.924054
1.00843
1.59983
3.297
3.53582
3.62005
2.71222
1.80296
1.35561
0.958079
0.930443
0.997517
1.51957
3.21085
3.01816
3.60388
2.83182
1.9309
1.43778
1.00009
0.930106
1.00317
1.48353
3.12056
2.72195
3.58079
2.92748
2.06319
1.52958
1.04801
0.935047
1.00939
1.46891
3.02577
2.33425
3.54918
3.01602
2.18795
1.61655
1.10791
0.951523
1.0242
1.49885
2.94382
2.00999
3.48825
3.08822
2.3038
1.6989
1.16589
0.970084
1.04322
1.52144
2.86568
1.75111
2.54282
3.91093
5.92677
9.90958
9.57836
7.77913
6.62508
6.43443
6.61037
0.999997
0.994257
1.13154
1.56203
4.66335
7.21057
6.8546
6.51403
6.50427
6.73269
1
1.00001
1
0.998315
1.36008
6.01075
7.44616
6.9045
6.68181
6.78416
1
1
1
1.00001
0.999997
2.17797
6.63505
6.94364
6.65352
6.77544
1
1
1
1
1
1.00006
4.06254
7.01108
6.72999
6.82799
1
1
1
1
1
1
1.34643
5.73435
6.72874
6.86729
1
1
1
1
1
1
0.999996
2.74619
6.41388
6.92443
1
1
1
1
1
1
1
1.10564
5.052
6.8924
1
1
1
1
1
1
1
1.00006
2.52337
6.55514
1
1
1
1
1
1
1
1
1.12678
5.46544
1
1
1
1
1
1
1
1
1.00111
3.87156
1
1
1
1
1
1
1
1
1.00001
1.97009
1
1
1
1
1
1
1
1
1
0.999439
1
1
1
1
1
1
1
1
1
0.993435
1
1
1
1
1
1
1
1
1
0.99651
1
1
1
1
1
1
1
1
1
0.998821
1
1
1
1
1
1
1
1
1
0.999732
1
1
1
1
1
1
1
1
1
0.999967
1
1
1
1
1
1
1
1
1
0.999999
1
1
1
1
1
1
1
1
1
1
1
1
1
1
1
1
1
1
1
1
1
1
1
1
1
1
1
1
1
1
1
1
1
1
1
1
1
1
1
1
1
1
1
1
1
1
1
1
1
1
1
1
1
1
1
1
1
1
1
1
1
1
1
1
1
1
1
1
1
1
1
1
1
1
1
1
1
1
1
1
1
1
1
1
1
1
1
1
1
1
1
1
1
1
1
1
1
1
1
1
1
1
1
1
1
1
1
1
1
1
1
1
1
1
1
1
1
1
1
1
1
1
1
1
1
1
1
1
1
1
1
1
1
1
1
1
1
1
1
1
1
1
1
1
1
1
1
1
1
1
1
1
1
1
1
1
1
1
1
1
1
1
1
1
1
1
1
1
1
1
1
1
1
1
1
1
1
1
1
1
1
1
1
1
1
1
1
1
1
1
1
1
1
1
1
1
1
1
1
1
1
1
1
1
1
1
1
1
1
1
1
1
1
1
1
1
1
1
1
1
1
1
1
1
1
1
1
1
1
1
1
1
1
1
1
1
1
1
1
1
1
1
1
1
1
1
1
1
1
1
1
1
1
1
1
1
1
1
1
1
1
1
1
1
1
1
1
1
1
1
1
1
1
1
1
1
1
1
1
1
1
1
1
1
1
1
1
1
1
1
1
1
1
1
1
1
1
1
1
1
1
1
1
1
1
1
1
1
1
1
1
1
1
1
1
1
1
1
1
1
1
1
1
1
1
1
1
1
1
1
1
1
1
1
1
1
1
1
1
1
1
1
1
1
1
1
1
1
1
1
1
1
1
1
1
1
1
1
1
1
1
1
1
1
1
1
1
1
1
1
1
1
1
1
1
1
1
1
1
1
1
1
1
1
1
1
1
1
1
1
1
1
1
1
1
1
1
1
1
1
1
1
1
1
1
1
1
1
1
1
1
1
1
1
1
1
1
1
1
1
1
1
1
1
1
1
1
1
1
0.999999
1
1
1
1
1
1
1
1
1
0.999967
1
1
1
1
1
1
1
1
1
0.999732
1
1
1
1
1
1
1
1
1
0.998821
1
1
1
1
1
1
1
1
1
0.996509
1
1
1
1
1
1
1
1
1
0.993433
1
1
1
1
1
1
1
1
1
0.99946
1
1
1
1
1
1
1
1
1.00001
1.97019
1
1
1
1
1
1
1
1
1.00112
3.87168
1
1
1
1
1
1
1
1
1.12681
5.46556
1
1
1
1
1
1
1
1.00006
2.52349
6.5552
1
1
1
1
1
1
1
1.10567
5.05212
6.89243
1
1
1
1
1
1
0.999996
2.74631
6.41392
6.92444
1
1
1
1
1
1
1.34645
5.73446
6.72876
6.86729
1
1
1
1
1
1.00006
4.06261
7.01112
6.73001
6.82799
1
1
1
1.00001
0.999997
2.17798
6.63508
6.94367
6.65354
6.77546
1
1.00001
1
0.998315
1.36008
6.01076
7.44618
6.90453
6.68184
6.78418
0.999997
0.994257
1.13154
1.56203
4.66335
7.21057
6.85461
6.51407
6.50429
6.73271
1.75111
2.54282
3.91093
5.92677
9.90958
9.57836
7.77913
6.62511
6.43445
6.61039
2.00999
3.48852
3.08813
2.30393
1.69898
1.1659
0.968764
1.04195
1.52085
2.86588
2.33427
3.54934
3.01577
2.18775
1.61633
1.10871
0.950808
1.02323
1.49754
2.94354
2.72201
3.5807
2.92699
2.063
1.52945
1.04925
0.934245
1.00831
1.46647
3.02569
3.01831
3.60298
2.83133
1.9306
1.43746
1.00067
0.929113
1.00197
1.48311
3.12075
3.53609
3.61971
2.71196
1.8023
1.35591
0.959229
0.930365
0.99663
1.52108
3.21114
3.8862
3.65997
2.57954
1.67169
1.26631
0.927933
0.924716
1.00755
1.59966
3.29737
4.19475
3.69175
2.44867
1.54788
1.19516
0.918377
0.917426
1.02173
1.69016
3.36589
4.5029
3.61067
2.31715
1.43501
1.12151
0.908745
0.913105
1.04138
1.77418
3.41629
4.74911
3.49992
2.19594
1.33466
1.05845
0.900209
0.912939
1.05812
1.84395
3.45092
4.79978
3.3041
2.05631
1.22883
1.00521
0.893083
0.912301
1.07577
1.89343
3.47081
4.8691
3.06056
1.91399
1.12951
0.967794
0.889174
0.915403
1.10391
1.92815
3.48292
4.88031
2.83383
1.75583
1.04359
0.935132
0.884966
0.926971
1.14033
1.94962
3.48625
4.69692
2.61357
1.60385
0.972031
0.911068
0.889904
0.952325
1.18323
1.95622
3.47661
4.54304
2.3735
1.439
0.902869
0.895118
0.897541
0.990958
1.23049
1.95335
3.46409
4.35798
2.11824
1.28857
0.866357
0.881505
0.91672
1.04945
1.27898
1.94506
3.45408
4.1657
1.81025
1.15077
0.858131
0.875771
0.951203
1.12499
1.32436
1.92882
3.42957
3.76075
1.50451
1.05612
0.856651
0.886024
0.995463
1.20785
1.36731
1.90429
3.39364
3.3112
1.18097
1.00961
0.873275
0.904702
1.04582
1.28304
1.40651
1.88675
3.35303
2.71434
0.969833
0.963817
0.874925
0.927691
1.0972
1.34479
1.45669
1.87296
3.30331
1.71738
0.89042
0.918453
0.877491
0.970197
1.15198
1.3922
1.50736
1.8662
3.24425
1
1
1
1
1.00245
1.43539
5.29131
5.97522
4.87076
3.13743
1
1
1
1
1.00421
1.45857
5.26279
5.92068
4.84623
3.11598
1
1
1
1.00002
1.00965
1.49633
5.19373
5.78725
4.77704
3.09897
1
1
1
1.00013
1.03235
1.5525
5.00938
5.56444
4.6646
3.06852
1
1
1.00001
1.0008
1.12092
1.64608
4.75067
5.35945
4.63651
3.07783
1
1
1.00003
1.00392
1.35063
1.8096
4.3187
4.97755
4.35114
3.00986
1
1
1.00012
1.0168
1.71781
2.05213
3.72355
4.69049
4.17429
3.00588
1
1
1.00055
1.06237
2.09682
2.2815
3.2261
4.40408
3.98134
2.88403
1
1
1.00231
1.20455
2.34638
2.44005
2.81035
4.05047
3.76607
2.82066
1
1.00002
1.00905
1.52955
2.50083
2.49883
2.46399
3.62811
3.52531
2.75873
1
1.00011
1.03631
1.97191
2.61731
2.46431
2.17922
3.14827
3.26277
2.69263
1
1.00061
1.13719
2.36709
2.72202
2.42164
1.98085
2.66984
3.03233
2.61124
1
1.00317
1.4157
2.63509
2.75952
2.34872
1.83006
2.2744
2.81295
2.53606
0.999993
1.01647
1.87541
2.83023
2.72025
2.20876
1.67596
1.96443
2.58307
2.48586
0.999973
1.08187
2.34552
2.93661
2.63469
2.03279
1.51778
1.72097
2.33441
2.46169
0.999931
1.32709
2.69888
2.98558
2.53343
1.87256
1.38581
1.53053
2.10247
2.4573
0.999835
1.79973
2.97805
2.9481
2.38358
1.71298
1.27216
1.38251
1.9167
2.48077
1.00339
2.36302
3.12765
2.815
2.18394
1.55075
1.17061
1.25727
1.76902
2.51256
1.1273
2.84822
3.22117
2.69517
2.01532
1.4073
1.09081
1.16613
1.65399
2.64339
1.53399
3.29531
3.19721
2.492
1.84225
1.26819
1.01364
1.08561
1.57032
2.76719
1.53399
3.29508
3.19707
2.49201
1.84195
1.26803
1.0143
1.08647
1.57073
2.76661
1.12729
2.84805
3.22107
2.69506
2.0153
1.40706
1.09126
1.16691
1.65456
2.64281
1.00338
2.36291
3.12762
2.81496
2.18401
1.5503
1.1709
1.2579
1.76941
2.51195
0.999835
1.79966
2.97803
2.94808
2.38358
1.71262
1.27242
1.38313
1.91708
2.48002
0.999931
1.32705
2.69884
2.98557
2.53345
1.87229
1.38596
1.53115
2.10293
2.4565
0.999973
1.08185
2.34547
2.9366
2.63471
2.03267
1.51799
1.72167
2.33499
2.46099
0.999993
1.01647
1.87538
2.83017
2.72029
2.20873
1.67622
1.96527
2.58344
2.48534
1
1.00317
1.41568
2.63501
2.7595
2.34867
1.83038
2.27545
2.81319
2.53568
1
1.00061
1.13719
2.36703
2.72197
2.42149
1.98116
2.671
3.03256
2.61097
1
1.00011
1.03631
1.97192
2.61721
2.4641
2.17967
3.14941
3.26305
2.69242
1
1.00002
1.00905
1.52958
2.50066
2.49857
2.46474
3.62907
3.52557
2.75853
1
1
1.00231
1.20455
2.3462
2.43986
2.81172
4.05111
3.76614
2.82045
1
1
1.00055
1.06237
2.09672
2.28134
3.2279
4.40433
3.98129
2.88388
1
1
1.00012
1.0168
1.71777
2.05204
3.72574
4.69051
4.1742
3.00572
1
1
1.00003
1.00392
1.35059
1.80962
4.32119
4.97794
4.35115
3.00971
1
1
1.00001
1.0008
1.12091
1.64627
4.75277
5.36026
4.63663
3.07771
1
1
1
1.00013
1.03236
1.55305
5.01139
5.56508
4.66448
3.06825
1
1
1
1.00002
1.00967
1.49715
5.1958
5.78727
4.77652
3.09861
1
1
1
1
1.00422
1.45945
5.26489
5.92033
4.84539
3.11556
1
1
1
1
1.00246
1.43623
5.29334
5.97427
4.86954
3.13695
1
1
1
1
1
1
1
1
1
1
1
1
1
1
1
1
1
1
1
1
1
1
1
1
1
1
1
1
1
1
1
1
1
1
1
1
1
1
1
1
1
1
1
1
1
1
1
1
1
1
1
1
1
1
1
1
1
1
1
1
1
1
1
1
1
1
1
1
1
1
1
1
1
1
1
1
1
1
1
1
1
1
1
1
1
1
1
1
1
1
1
1
1
1
1
1
1
1
1
1
1
1
1
1
1
1
1
1
1
1
1
1
1
1
1
1
1
1
1
1
1
1
1
1
1
1
1
1
1
1
1
1
1
1
1
1
1
1
1
1
1
1
1
1
1
1
1
1
1
1
1
1
1
1
1
1
1
1
1
1
1
1
1
1
1
1
1
1
1
1
1
1
1
1
1
1
1
1
1
1
1
1
1
1
1
1
1
1
1
1
1
1
1
1
1
1
1
1
1
1
1
1
1
1
1
1
1
1
1
1
1
1
1
1
1
1
1
1
1
1
1
1
1
1
1
1
1
1
1
1
1
1
1
1
1
1
1
1
1
1
1
1
1
1
1
1
1
1
1
1
1
1
1
1
1
1
1
1
1
1
1
1
1
1
1
1
1
1
1
1
1
1
1
1
1
1
1
1
1
1
1
1
1
1
1
1
1
1
1
1
1
1
1
1
1
1
1
1
1
1
1
1
1
1
1
1
1
1
1
1
1
1
1
1
1
1
1
1
1
1
1
1
1
1
1
1
1
1
1
1
1
1
1
1
1
1
1
1
1
1
1
1
1
1
1
1
1
1
1
1
1
1
1
1
1
1
1
1
1
1
1
1
1
1
1
1
1
1
1
1
1
1
1
1
1
1
1
1
1
1
1
1
1
1
1
1
1
1
1
1
1
1
1
1
1
1
1
1
1
1
1
1
1
1
1
1
1
1
1
1
1
1
1
1
1
1
1
1
1
1
1
1
1
1
1
1
1
1
1
1
1
1
1
1
1
1
1
1
1
1
1
1
1
1
1
1
1
1
1
1
1
1
1
1
1
1
1
1
1
1
1
1
1
1
1
1
1
1
1
1
1
1
1
1
1
1
1
1
1
1
1
1
1
1
1
1
1
1
1
1
1
1
1
1
1
1
1
1
1
1
1
1
1
1
1
1
1
1
1
1
1
1
1
1
1
1
1
1
1
1
1
1
1
1
1
1
1
1
1
1
1
1
1
1
1
1
1
1
1
1
1
1
1
1
1
1
1
1
1
1
1
1
1
1
1
1
1
1
1
1
1
1
1
1
1
1
1
1
1
1
1
1
1
1
1
1
1
1
1
1
1
1
1
1
1
1
1
1
1
1
1
1
1
1
1
1
1
1
1
1
1
1
1
1
1
1
1
1
1
1
1
1
1
1
1
1
1
1
1
1
1
1
1
1
1
1
1
1
1
1
1
1
1
1
1
1
1
1
1
1
1
1
1
1
1
1
1
1
1
1
1
1
1
1
1
1
1
1
1
1
1
1
1
1
1
1
1
1
1
1
1
1
1
1
1
1
1
1
1
1
1
1
1
1
1
1
1
1
1
1
1
1
1
1
1
1
1
1
1
1
1
1
1
1
1
1
1
1
1
1
1
1
1
1
1
1
1
1
1
1
1
1
1
1
1
1
1
1
1
1
1
1
1
1
1
1
1
1
1
1
1
1
1
1
1
1
1
1
1
1
1
1
1
1
1
1
1
1
1
1
1
1
1
1
1
1
1
1
1
1
1
1
1
1
1
1
1
1
1
1
1
1
1
1
1
1
1
1
1
1
1
1
1
1
1
1
1
1
1
1
)
;

boundaryField
{
    inlet
    {
        type            fixedValue;
        value           uniform 1;
    }
    outlet
    {
        type            zeroGradient;
    }
    triangle
    {
        type            zeroGradient;
    }
    top
    {
        type            symmetryPlane;
    }
    bottom
    {
        type            symmetryPlane;
    }
    defaultFaces
    {
        type            empty;
    }
}


// ************************************************************************* //
