/*--------------------------------*- C++ -*----------------------------------*\
  =========                 |
  \\      /  F ield         | OpenFOAM: The Open Source CFD Toolbox
   \\    /   O peration     | Website:  https://openfoam.org
    \\  /    A nd           | Version:  7
     \\/     M anipulation  |
\*---------------------------------------------------------------------------*/
FoamFile
{
    version     2.0;
    format      ascii;
    class       volScalarField;
    location    "1.3";
    object      rho;
}
// * * * * * * * * * * * * * * * * * * * * * * * * * * * * * * * * * * * * * //

dimensions      [1 -3 0 0 0 0 0];

internalField   nonuniform List<scalar> 
2600
(
0.774554
0.834645
0.895146
0.934322
1.0496
1.19404
1.34662
1.32574
1.35099
2.14205
0.828648
0.821562
0.860615
0.919831
1.05306
1.18795
1.29595
1.25024
1.28866
2.05039
0.798155
0.776396
0.820846
0.895881
1.04042
1.14479
1.22342
1.1805
1.25325
1.97693
0.787772
0.757211
0.793565
0.868238
1.0066
1.07792
1.13796
1.12947
1.25365
1.9198
0.792199
0.739886
0.765401
0.829196
0.951779
0.99797
1.07369
1.1162
1.26605
1.88922
0.802858
0.742799
0.75385
0.79955
0.898394
0.949236
1.04279
1.11653
1.28369
1.87554
0.808411
0.744735
0.749222
0.775837
0.866112
0.92446
1.04159
1.12339
1.30913
1.86929
0.808992
0.745838
0.744576
0.762986
0.855895
0.922898
1.04943
1.13726
1.3268
1.8423
0.80357
0.744038
0.741304
0.763852
0.858223
0.925004
1.05855
1.14713
1.33493
1.752
0.799665
0.741935
0.744914
0.76548
0.858832
0.929703
1.06345
1.15057
1.33889
1.71888
0.799593
0.742008
0.744962
0.765343
0.859183
0.927683
1.06327
1.15156
1.33922
1.71875
0.80344
0.744387
0.741435
0.763188
0.857324
0.924075
1.05884
1.14903
1.33538
1.75161
0.808834
0.746463
0.745049
0.763157
0.854953
0.920678
1.05031
1.14051
1.32722
1.84196
0.808322
0.745563
0.750185
0.775745
0.864507
0.921978
1.04275
1.12696
1.30958
1.86872
0.802834
0.743661
0.754887
0.799709
0.897593
0.948202
1.04511
1.11958
1.284
1.87496
0.792172
0.740498
0.766041
0.829995
0.950726
0.997827
1.07532
1.11872
1.26563
1.88863
0.787853
0.757536
0.793833
0.868276
1.00653
1.07893
1.14059
1.13186
1.25309
1.91939
0.798209
0.776647
0.821207
0.895622
1.03903
1.14521
1.22491
1.18063
1.25234
1.97663
0.828814
0.821794
0.861082
0.919834
1.04988
1.18704
1.2977
1.25062
1.28662
2.04981
0.774539
0.835129
0.895822
0.934538
1.04636
1.19279
1.3486
1.32595
1.34827
2.14098
1.44369
0.869201
0.93723
0.956
1.03957
1.18602
1.36815
1.368
1.44917
2.26413
2.22853
0.970261
1.02016
0.986061
1.03212
1.16733
1.36041
1.39014
1.55447
2.39874
2.68343
1.18618
1.09805
1.00327
1.02867
1.13967
1.32878
1.38644
1.63705
2.51
2.97216
1.48533
1.16131
0.996363
1.01924
1.10441
1.27496
1.37471
1.6944
2.59102
3.18449
1.73337
1.24899
0.999968
1.01254
1.07
1.20995
1.35003
1.73581
2.64855
3.26237
1.95167
1.35812
1.00781
1.01763
1.04197
1.14808
1.31742
1.76011
2.68568
3.34261
2.11229
1.46622
1.03893
1.02765
1.02543
1.0999
1.2809
1.77367
2.70562
3.41891
2.25512
1.58021
1.09635
1.04044
1.01797
1.06887
1.24615
1.78167
2.72109
3.52752
2.38203
1.68141
1.15315
1.06074
1.01445
1.04929
1.21595
1.78392
2.73096
3.50879
2.51127
1.78438
1.22011
1.08687
1.019
1.0411
1.19114
1.77734
2.73151
3.46944
2.64554
1.87392
1.2945
1.1159
1.0232
1.03973
1.17243
1.76105
2.72521
3.47661
2.7663
1.96404
1.37305
1.15761
1.02943
1.04132
1.16111
1.73314
2.71271
3.36018
2.8479
2.04762
1.44669
1.20711
1.03642
1.04254
1.14978
1.68923
2.69158
3.17751
2.90022
2.13801
1.5296
1.26614
1.04468
1.04795
1.13656
1.63363
2.66173
2.99484
2.8788
2.22362
1.61905
1.32289
1.05268
1.05666
1.12825
1.57202
2.6219
2.79585
2.85117
2.30386
1.71159
1.39333
1.07884
1.0648
1.12158
1.51647
2.57324
2.51495
2.83515
2.37453
1.80059
1.45691
1.11421
1.06578
1.12786
1.48942
2.52415
2.38847
2.81985
2.43107
1.89099
1.52512
1.15361
1.07006
1.13417
1.47739
2.47452
2.22958
2.81025
2.48779
1.97399
1.58567
1.20037
1.08253
1.14562
1.49818
2.43433
2.14132
2.81385
2.55176
2.04953
1.63965
1.24455
1.09635
1.15969
1.51363
2.39774
2.03825
2.64291
3.5386
4.67192
6.4704
6.28172
5.34828
4.74083
4.6189
4.69438
1.4
1.39417
1.50078
1.82397
3.73727
5.03476
4.8219
4.6381
4.62529
4.70828
1.40001
1.40001
1.40001
1.3985
1.66415
4.02145
4.95724
4.7219
4.6242
4.63317
1.40001
1.40001
1.40001
1.40001
1.4
2.14443
4.39251
4.60157
4.4804
4.51261
1.40001
1.40001
1.40001
1.40001
1.40001
1.40007
3.11752
4.51688
4.42327
4.46639
1.40001
1.40001
1.40001
1.40001
1.40001
1.40001
1.65387
3.91569
4.43329
4.47668
1.40001
1.40001
1.40001
1.40001
1.40001
1.40001
1.4
2.53208
4.35558
4.50801
1.40001
1.40001
1.40001
1.40001
1.40001
1.40001
1.40001
1.48815
3.68983
4.50812
1.40001
1.40001
1.40001
1.40001
1.40001
1.40001
1.40001
1.40006
2.45
4.40814
1.40001
1.40001
1.40001
1.40001
1.40001
1.40001
1.40001
1.40001
1.50793
3.79594
1.40001
1.40001
1.40001
1.40001
1.40001
1.40001
1.40001
1.40001
1.40107
2.99997
1.40001
1.40001
1.40001
1.40001
1.40001
1.40001
1.40001
1.40001
1.40001
2.10467
1.40001
1.40001
1.40001
1.40001
1.40001
1.40001
1.40001
1.40001
1.40001
1.40068
1.40001
1.40001
1.40001
1.40001
1.40001
1.40001
1.40001
1.40001
1.40001
1.39339
1.40001
1.40001
1.40001
1.40001
1.40001
1.40001
1.40001
1.40001
1.40001
1.3965
1.40001
1.40001
1.40001
1.40001
1.40001
1.40001
1.40001
1.40001
1.40001
1.39883
1.40001
1.40001
1.40001
1.40001
1.40001
1.40001
1.40001
1.40001
1.40001
1.39974
1.40001
1.40001
1.40001
1.40001
1.40001
1.40001
1.40001
1.40001
1.40001
1.39997
1.40001
1.40001
1.40001
1.40001
1.40001
1.40001
1.40001
1.40001
1.40001
1.4
1.40001
1.40001
1.40001
1.40001
1.40001
1.40001
1.40001
1.40001
1.40001
1.40001
1.40001
1.40001
1.40001
1.40001
1.40001
1.40001
1.40001
1.40001
1.40001
1.40001
1.40001
1.40001
1.40001
1.40001
1.40001
1.40001
1.40001
1.40001
1.40001
1.40001
1.40001
1.40001
1.40001
1.40001
1.40001
1.40001
1.40001
1.40001
1.40001
1.40001
1.40001
1.40001
1.40001
1.40001
1.40001
1.40001
1.40001
1.40001
1.40001
1.40001
1.40001
1.40001
1.40001
1.40001
1.40001
1.40001
1.40001
1.40001
1.40001
1.40001
1.40001
1.40001
1.40001
1.40001
1.40001
1.40001
1.40001
1.40001
1.40001
1.40001
1.40001
1.40001
1.40001
1.40001
1.40001
1.40001
1.40001
1.40001
1.40001
1.40001
1.40001
1.40001
1.40001
1.40001
1.40001
1.40001
1.40001
1.40001
1.40001
1.40001
1.40001
1.40001
1.40001
1.40001
1.40001
1.40001
1.40001
1.40001
1.40001
1.40001
1.40001
1.40001
1.40001
1.40001
1.40001
1.40001
1.40001
1.40001
1.40001
1.40001
1.40001
1.40001
1.40001
1.40001
1.40001
1.40001
1.40001
1.40001
1.40001
1.40001
1.40001
1.40001
1.40001
1.40001
1.40001
1.40001
1.40001
1.40001
1.40001
1.40001
1.40001
1.40001
1.40001
1.40001
1.40001
1.40001
1.40001
1.40001
1.40001
1.40001
1.40001
1.40001
1.40001
1.40001
1.40001
1.40001
1.40001
1.40001
1.40001
1.40001
1.40001
1.40001
1.40001
1.40001
1.40001
1.40001
1.40001
1.40001
1.40001
1.40001
1.40001
1.40001
1.40001
1.40001
1.40001
1.40001
1.40001
1.40001
1.40001
1.40001
1.40001
1.40001
1.40001
1.40001
1.40001
1.40001
1.40001
1.40001
1.40001
1.40001
1.40001
1.40001
1.40001
1.40001
1.40001
1.40001
1.40001
1.40001
1.40001
1.40001
1.40001
1.40001
1.40001
1.40001
1.40001
1.40001
1.40001
1.40001
1.40001
1.40001
1.40001
1.40001
1.40001
1.40001
1.40001
1.40001
1.40001
1.40001
1.40001
1.40001
1.40001
1.40001
1.40001
1.40001
1.40001
1.40001
1.40001
1.40001
1.40001
1.40001
1.40001
1.40001
1.40001
1.40001
1.40001
1.40001
1.40001
1.40001
1.40001
1.40001
1.40001
1.40001
1.40001
1.40001
1.40001
1.40001
1.40001
1.40001
1.40001
1.40001
1.40001
1.40001
1.40001
1.40001
1.40001
1.40001
1.40001
1.40001
1.40001
1.40001
1.40001
1.40001
1.40001
1.40001
1.40001
1.40001
1.40001
1.40001
1.40001
1.40001
1.40001
1.40001
1.40001
1.40001
1.40001
1.40001
1.40001
1.40001
1.40001
1.40001
1.40001
1.40001
1.40001
1.40001
1.40001
1.40001
1.40001
1.40001
1.40001
1.40001
1.40001
1.40001
1.40001
1.40001
1.40001
1.40001
1.40001
1.40001
1.40001
1.40001
1.40001
1.40001
1.40001
1.40001
1.40001
1.40001
1.40001
1.40001
1.40001
1.40001
1.40001
1.40001
1.40001
1.40001
1.40001
1.40001
1.40001
1.40001
1.40001
1.40001
1.40001
1.40001
1.40001
1.40001
1.40001
1.40001
1.40001
1.40001
1.40001
1.40001
1.40001
1.40001
1.40001
1.40001
1.40001
1.40001
1.40001
1.40001
1.40001
1.40001
1.40001
1.40001
1.40001
1.40001
1.40001
1.40001
1.40001
1.40001
1.40001
1.40001
1.40001
1.40001
1.40001
1.40001
1.40001
1.40001
1.40001
1.40001
1.40001
1.40001
1.40001
1.40001
1.40001
1.40001
1.40001
1.40001
1.40001
1.40001
1.40001
1.40001
1.40001
1.40001
1.40001
1.40001
1.40001
1.40001
1.40001
1.40001
1.40001
1.40001
1.40001
1.40001
1.40001
1.40001
1.40001
1.40001
1.40001
1.40001
1.40001
1.40001
1.40001
1.40001
1.40001
1.40001
1.40001
1.40001
1.40001
1.40001
1.40001
1.40001
1.40001
1.40001
1.40001
1.40001
1.40001
1.40001
1.40001
1.40001
1.40001
1.40001
1.40001
1.40001
1.40001
1.40001
1.40001
1.40001
1.40001
1.40001
1.40001
1.40001
1.40001
1.40001
1.40001
1.40001
1.40001
1.40001
1.40001
1.40001
1.40001
1.40001
1.40001
1.40001
1.40001
1.40001
1.40001
1.40001
1.40001
1.40001
1.40001
1.4
1.40001
1.40001
1.40001
1.40001
1.40001
1.40001
1.40001
1.40001
1.40001
1.39997
1.40001
1.40001
1.40001
1.40001
1.40001
1.40001
1.40001
1.40001
1.40001
1.39974
1.40001
1.40001
1.40001
1.40001
1.40001
1.40001
1.40001
1.40001
1.40001
1.39883
1.40001
1.40001
1.40001
1.40001
1.40001
1.40001
1.40001
1.40001
1.40001
1.3965
1.40001
1.40001
1.40001
1.40001
1.40001
1.40001
1.40001
1.40001
1.40001
1.39338
1.40001
1.40001
1.40001
1.40001
1.40001
1.40001
1.40001
1.40001
1.40001
1.40072
1.40001
1.40001
1.40001
1.40001
1.40001
1.40001
1.40001
1.40001
1.40001
2.10475
1.40001
1.40001
1.40001
1.40001
1.40001
1.40001
1.40001
1.40001
1.40107
3.00003
1.40001
1.40001
1.40001
1.40001
1.40001
1.40001
1.40001
1.40001
1.50795
3.79602
1.40001
1.40001
1.40001
1.40001
1.40001
1.40001
1.40001
1.40006
2.45009
4.40817
1.40001
1.40001
1.40001
1.40001
1.40001
1.40001
1.40001
1.48818
3.6899
4.50813
1.40001
1.40001
1.40001
1.40001
1.40001
1.40001
1.4
2.53216
4.3556
4.50801
1.40001
1.40001
1.40001
1.40001
1.40001
1.40001
1.65389
3.91575
4.4333
4.47667
1.40001
1.40001
1.40001
1.40001
1.40001
1.40007
3.11756
4.5169
4.42328
4.46639
1.40001
1.40001
1.40001
1.40001
1.4
2.14444
4.39253
4.60158
4.48041
4.51262
1.40001
1.40001
1.40001
1.3985
1.66415
4.02146
4.95725
4.72192
4.62421
4.63319
1.4
1.39417
1.50078
1.82397
3.73727
5.03476
4.8219
4.63812
4.6253
4.70829
2.03825
2.64291
3.5386
4.67192
6.4704
6.28172
5.34828
4.74084
4.61891
4.6944
2.14132
2.81392
2.55172
2.04957
1.63961
1.24475
1.09579
1.159
1.51341
2.39681
2.22957
2.8103
2.4877
1.97393
1.58555
1.20081
1.0822
1.14501
1.49821
2.4342
2.38849
2.81985
2.43091
1.89094
1.52503
1.15421
1.0697
1.13357
1.47782
2.47495
2.51502
2.83487
2.37435
1.8005
1.45676
1.11454
1.06539
1.12728
1.48901
2.52452
2.79593
2.85107
2.30374
1.71136
1.39344
1.07935
1.06484
1.12117
1.51539
2.57362
2.99493
2.87887
2.22352
1.61891
1.32307
1.05307
1.05705
1.12778
1.57166
2.6225
3.17759
2.90057
2.1379
1.52942
1.26631
1.04486
1.04833
1.13589
1.63282
2.66218
3.36025
2.84777
2.04748
1.44642
1.20758
1.03695
1.04302
1.14898
1.68866
2.6922
3.47664
2.76622
1.9639
1.37288
1.15822
1.03015
1.04195
1.16013
1.73287
2.71353
3.46944
2.64554
1.87373
1.2944
1.11663
1.02395
1.04032
1.1713
1.76101
2.72604
3.50879
2.51124
1.78428
1.21964
1.08768
1.0198
1.04152
1.19002
1.77757
2.73228
3.52752
2.38201
1.68132
1.15263
1.06155
1.01544
1.04947
1.21503
1.78439
2.73164
3.41884
2.25513
1.58019
1.09557
1.04169
1.0191
1.06878
1.24556
1.78228
2.72161
3.34251
2.11236
1.46607
1.03885
1.02862
1.02667
1.09929
1.2805
1.77436
2.70614
3.26234
1.95182
1.35764
1.00837
1.01819
1.04331
1.14687
1.31706
1.76062
2.68664
3.18459
1.73355
1.24813
1.0004
1.01326
1.07167
1.20804
1.34944
1.73618
2.64976
2.97217
1.48539
1.16045
0.996619
1.02015
1.10632
1.27265
1.37383
1.69495
2.59226
2.68356
1.18584
1.09724
1.0034
1.02977
1.14153
1.3258
1.38508
1.63813
2.5113
2.22875
0.969604
1.01921
0.986202
1.0338
1.1692
1.35742
1.38836
1.5562
2.40002
1.44382
0.868396
0.936371
0.955978
1.04229
1.18771
1.36521
1.36682
1.45185
2.2655
1.40001
1.40001
1.40001
1.40001
1.40246
1.80821
4.05295
4.25592
3.64839
2.6238
1.40001
1.40001
1.40001
1.40001
1.40421
1.83092
4.08261
4.26116
3.66077
2.62162
1.40001
1.40001
1.40001
1.40002
1.40967
1.86122
4.13704
4.27304
3.68981
2.64369
1.40001
1.40001
1.40001
1.40014
1.43242
1.89892
4.11281
4.25112
3.71308
2.67381
1.40001
1.40001
1.40001
1.4008
1.51899
1.96669
3.98056
4.22241
3.77611
2.72688
1.40001
1.40001
1.40003
1.40392
1.72513
2.0894
3.6956
4.0471
3.657
2.72085
1.40001
1.40001
1.40013
1.41681
2.01806
2.26299
3.31034
3.87081
3.55862
2.74746
1.40001
1.40001
1.40056
1.46215
2.30944
2.41581
2.98558
3.66791
3.42425
2.68316
1.40001
1.40001
1.40231
1.59917
2.49612
2.50904
2.70166
3.41345
3.26002
2.639
1.40001
1.40002
1.40905
1.8875
2.57648
2.52902
2.44453
3.11168
3.07285
2.58702
1.40001
1.40012
1.43629
2.23631
2.60905
2.4771
2.20536
2.7786
2.87882
2.52361
1.40001
1.40061
1.53529
2.51414
2.64404
2.41351
2.02949
2.44523
2.70605
2.44814
1.4
1.40317
1.79017
2.6601
2.64483
2.32748
1.88672
2.16196
2.53768
2.37634
1.4
1.41653
2.15862
2.71256
2.58798
2.18503
1.73997
1.92761
2.35937
2.32197
1.39998
1.48174
2.4828
2.71736
2.47751
2.02004
1.59433
1.73354
2.16144
2.28802
1.39994
1.71079
2.67399
2.69946
2.36173
1.86816
1.47117
1.57499
1.97479
2.26469
1.39985
2.08244
2.7457
2.63403
2.21273
1.71732
1.36416
1.44755
1.82401
2.25586
1.40373
2.43911
2.73648
2.49536
2.03845
1.57343
1.27135
1.33953
1.70403
2.25506
1.53067
2.69543
2.73361
2.36888
1.89169
1.44769
1.19946
1.26122
1.61356
2.30247
1.8894
2.83074
2.6698
2.18773
1.74501
1.32819
1.13295
1.19417
1.54947
2.35328
1.8894
2.83069
2.66978
2.18775
1.74491
1.328
1.13328
1.19465
1.54978
2.35557
1.53065
2.69537
2.73358
2.36886
1.89169
1.44754
1.19971
1.26169
1.61388
2.30382
1.40373
2.43906
2.73648
2.49535
2.03852
1.57314
1.27157
1.34
1.70462
2.2483
1.39985
2.0824
2.7457
2.63403
2.21274
1.71714
1.36436
1.44797
1.8243
2.25734
1.39994
1.71075
2.67397
2.69947
2.36177
1.86801
1.47128
1.57541
1.97514
2.26501
1.39998
1.48173
2.48277
2.71737
2.47754
2.01996
1.59446
1.73397
2.16183
2.28745
1.4
1.41653
2.1586
2.71255
2.588
2.185
1.74013
1.92808
2.35956
2.32155
1.4
1.40317
1.79016
2.66008
2.64482
2.32745
1.88691
2.16254
2.53778
2.37603
1.40001
1.40061
1.53529
2.51413
2.64402
2.41345
2.02967
2.44585
2.70615
2.44793
1.40001
1.40012
1.43629
2.23633
2.609
2.47699
2.20562
2.77925
2.87895
2.52346
1.40001
1.40002
1.40905
1.88754
2.5764
2.52884
2.44495
3.11219
3.07302
2.58691
1.40001
1.40001
1.40231
1.59917
2.49602
2.5089
2.70234
3.41381
3.26011
2.63886
1.40001
1.40001
1.40056
1.46215
2.30938
2.41571
2.98644
3.66806
3.42424
2.68304
1.40001
1.40001
1.40013
1.4168
2.01802
2.26294
3.31143
3.87084
3.55855
2.7473
1.40001
1.40001
1.40003
1.40392
1.72509
2.08941
3.69686
4.04727
3.65694
2.72068
1.40001
1.40001
1.40001
1.4008
1.51898
1.96685
3.9816
4.22275
3.77608
2.72673
1.40001
1.40001
1.40001
1.40014
1.43243
1.89936
4.1137
4.25136
3.71293
2.67359
1.40001
1.40001
1.40001
1.40002
1.40969
1.86186
4.1378
4.27299
3.68946
2.64343
1.40001
1.40001
1.40001
1.40001
1.40422
1.83157
4.08331
4.26093
3.66027
2.62136
1.40001
1.40001
1.40001
1.40001
1.40246
1.80877
4.05359
4.25544
3.64773
2.62351
1.40001
1.40001
1.40001
1.40001
1.40001
1.40001
1.40001
1.40001
1.40001
1.40001
1.40001
1.40001
1.40001
1.40001
1.40001
1.40001
1.40001
1.40001
1.40001
1.40001
1.40001
1.40001
1.40001
1.40001
1.40001
1.40001
1.40001
1.40001
1.40001
1.40001
1.40001
1.40001
1.40001
1.40001
1.40001
1.40001
1.40001
1.40001
1.40001
1.40001
1.40001
1.40001
1.40001
1.40001
1.40001
1.40001
1.40001
1.40001
1.40001
1.40001
1.40001
1.40001
1.40001
1.40001
1.40001
1.40001
1.40001
1.40001
1.40001
1.40001
1.40001
1.40001
1.40001
1.40001
1.40001
1.40001
1.40001
1.40001
1.40001
1.40001
1.40001
1.40001
1.40001
1.40001
1.40001
1.40001
1.40001
1.40001
1.40001
1.40001
1.40001
1.40001
1.40001
1.40001
1.40001
1.40001
1.40001
1.40001
1.40001
1.40001
1.40001
1.40001
1.40001
1.40001
1.40001
1.40001
1.40001
1.40001
1.40001
1.40001
1.40001
1.40001
1.40001
1.40001
1.40001
1.40001
1.40001
1.40001
1.40001
1.40001
1.40001
1.40001
1.40001
1.40001
1.40001
1.40001
1.40001
1.40001
1.40001
1.40001
1.40001
1.40001
1.40001
1.40001
1.40001
1.40001
1.40001
1.40001
1.40001
1.40001
1.40001
1.40001
1.40001
1.40001
1.40001
1.40001
1.40001
1.40001
1.40001
1.40001
1.40001
1.40001
1.40001
1.40001
1.40001
1.40001
1.40001
1.40001
1.40001
1.40001
1.40001
1.40001
1.40001
1.40001
1.40001
1.40001
1.40001
1.40001
1.40001
1.40001
1.40001
1.40001
1.40001
1.40001
1.40001
1.40001
1.40001
1.40001
1.40001
1.40001
1.40001
1.40001
1.40001
1.40001
1.40001
1.40001
1.40001
1.40001
1.40001
1.40001
1.40001
1.40001
1.40001
1.40001
1.40001
1.40001
1.40001
1.40001
1.40001
1.40001
1.40001
1.40001
1.40001
1.40001
1.40001
1.40001
1.40001
1.40001
1.40001
1.40001
1.40001
1.40001
1.40001
1.40001
1.40001
1.40001
1.40001
1.40001
1.40001
1.40001
1.40001
1.40001
1.40001
1.40001
1.40001
1.40001
1.40001
1.40001
1.40001
1.40001
1.40001
1.40001
1.40001
1.40001
1.40001
1.40001
1.40001
1.40001
1.40001
1.40001
1.40001
1.40001
1.40001
1.40001
1.40001
1.40001
1.40001
1.40001
1.40001
1.40001
1.40001
1.40001
1.40001
1.40001
1.40001
1.40001
1.40001
1.40001
1.40001
1.40001
1.40001
1.40001
1.40001
1.40001
1.40001
1.40001
1.40001
1.40001
1.40001
1.40001
1.40001
1.40001
1.40001
1.40001
1.40001
1.40001
1.40001
1.40001
1.40001
1.40001
1.40001
1.40001
1.40001
1.40001
1.40001
1.40001
1.40001
1.40001
1.40001
1.40001
1.40001
1.40001
1.40001
1.40001
1.40001
1.40001
1.40001
1.40001
1.40001
1.40001
1.40001
1.40001
1.40001
1.40001
1.40001
1.40001
1.40001
1.40001
1.40001
1.40001
1.40001
1.40001
1.40001
1.40001
1.40001
1.40001
1.40001
1.40001
1.40001
1.40001
1.40001
1.40001
1.40001
1.40001
1.40001
1.40001
1.40001
1.40001
1.40001
1.40001
1.40001
1.40001
1.40001
1.40001
1.40001
1.40001
1.40001
1.40001
1.40001
1.40001
1.40001
1.40001
1.40001
1.40001
1.40001
1.40001
1.40001
1.40001
1.40001
1.40001
1.40001
1.40001
1.40001
1.40001
1.40001
1.40001
1.40001
1.40001
1.40001
1.40001
1.40001
1.40001
1.40001
1.40001
1.40001
1.40001
1.40001
1.40001
1.40001
1.40001
1.40001
1.40001
1.40001
1.40001
1.40001
1.40001
1.40001
1.40001
1.40001
1.40001
1.40001
1.40001
1.40001
1.40001
1.40001
1.40001
1.40001
1.40001
1.40001
1.40001
1.40001
1.40001
1.40001
1.40001
1.40001
1.40001
1.40001
1.40001
1.40001
1.40001
1.40001
1.40001
1.40001
1.40001
1.40001
1.40001
1.40001
1.40001
1.40001
1.40001
1.40001
1.40001
1.40001
1.40001
1.40001
1.40001
1.40001
1.40001
1.40001
1.40001
1.40001
1.40001
1.40001
1.40001
1.40001
1.40001
1.40001
1.40001
1.40001
1.40001
1.40001
1.40001
1.40001
1.40001
1.40001
1.40001
1.40001
1.40001
1.40001
1.40001
1.40001
1.40001
1.40001
1.40001
1.40001
1.40001
1.40001
1.40001
1.40001
1.40001
1.40001
1.40001
1.40001
1.40001
1.40001
1.40001
1.40001
1.40001
1.40001
1.40001
1.40001
1.40001
1.40001
1.40001
1.40001
1.40001
1.40001
1.40001
1.40001
1.40001
1.40001
1.40001
1.40001
1.40001
1.40001
1.40001
1.40001
1.40001
1.40001
1.40001
1.40001
1.40001
1.40001
1.40001
1.40001
1.40001
1.40001
1.40001
1.40001
1.40001
1.40001
1.40001
1.40001
1.40001
1.40001
1.40001
1.40001
1.40001
1.40001
1.40001
1.40001
1.40001
1.40001
1.40001
1.40001
1.40001
1.40001
1.40001
1.40001
1.40001
1.40001
1.40001
1.40001
1.40001
1.40001
1.40001
1.40001
1.40001
1.40001
1.40001
1.40001
1.40001
1.40001
1.40001
1.40001
1.40001
1.40001
1.40001
1.40001
1.40001
1.40001
1.40001
1.40001
1.40001
1.40001
1.40001
1.40001
1.40001
1.40001
1.40001
1.40001
1.40001
1.40001
1.40001
1.40001
1.40001
1.40001
1.40001
1.40001
1.40001
1.40001
1.40001
1.40001
1.40001
1.40001
1.40001
1.40001
1.40001
1.40001
1.40001
1.40001
1.40001
1.40001
1.40001
1.40001
1.40001
1.40001
1.40001
1.40001
1.40001
1.40001
1.40001
1.40001
1.40001
1.40001
1.40001
1.40001
1.40001
1.40001
1.40001
1.40001
1.40001
1.40001
1.40001
1.40001
1.40001
1.40001
1.40001
1.40001
1.40001
1.40001
1.40001
1.40001
1.40001
1.40001
1.40001
1.40001
1.40001
1.40001
1.40001
1.40001
1.40001
1.40001
1.40001
1.40001
1.40001
1.40001
1.40001
1.40001
1.40001
1.40001
1.40001
1.40001
1.40001
1.40001
1.40001
1.40001
1.40001
1.40001
1.40001
1.40001
1.40001
1.40001
1.40001
1.40001
1.40001
1.40001
1.40001
1.40001
1.40001
1.40001
1.40001
1.40001
1.40001
1.40001
1.40001
1.40001
1.40001
1.40001
1.40001
1.40001
1.40001
1.40001
1.40001
1.40001
1.40001
1.40001
1.40001
1.40001
1.40001
1.40001
1.40001
1.40001
1.40001
1.40001
1.40001
1.40001
1.40001
1.40001
1.40001
1.40001
1.40001
1.40001
1.40001
1.40001
1.40001
1.40001
1.40001
1.40001
1.40001
1.40001
1.40001
1.40001
1.40001
1.40001
1.40001
1.40001
1.40001
1.40001
1.40001
1.40001
1.40001
1.40001
1.40001
1.40001
1.40001
1.40001
1.40001
1.40001
1.40001
1.40001
1.40001
1.40001
1.40001
1.40001
1.40001
1.40001
1.40001
1.40001
1.40001
1.40001
1.40001
1.40001
1.40001
1.40001
1.40001
1.40001
1.40001
1.40001
1.40001
1.40001
1.40001
1.40001
1.40001
1.40001
1.40001
1.40001
1.40001
1.40001
1.40001
1.40001
1.40001
1.40001
1.40001
1.40001
1.40001
1.40001
1.40001
1.40001
1.40001
1.40001
1.40001
1.40001
1.40001
1.40001
1.40001
1.40001
1.40001
1.40001
1.40001
1.40001
1.40001
1.40001
1.40001
1.40001
1.40001
1.40001
1.40001
1.40001
1.40001
1.40001
1.40001
1.40001
1.40001
1.40001
1.40001
1.40001
1.40001
1.40001
1.40001
1.40001
1.40001
1.40001
1.40001
1.40001
1.40001
1.40001
1.40001
1.40001
1.40001
1.40001
1.40001
1.40001
1.40001
1.40001
1.40001
1.40001
1.40001
1.40001
1.40001
1.40001
1.40001
1.40001
1.40001
1.40001
1.40001
1.40001
1.40001
1.40001
1.40001
1.40001
1.40001
1.40001
1.40001
1.40001
1.40001
1.40001
1.40001
1.40001
1.40001
1.40001
1.40001
1.40001
1.40001
1.40001
1.40001
1.40001
1.40001
1.40001
1.40001
)
;

boundaryField
{
    inlet
    {
        type            calculated;
        value           uniform 1.40001;
    }
    outlet
    {
        type            calculated;
        value           nonuniform List<scalar> 
100
(
2.35562
2.30384
2.24822
2.25732
2.26492
2.28733
2.32152
2.37608
2.44798
2.52353
2.58695
2.63887
2.68303
2.7473
2.72055
2.72648
2.67366
2.64361
2.6216
2.62384
2.26413
2.39862
2.5098
2.59076
2.64835
2.68558
2.7055
2.72085
2.73076
2.73135
2.72508
2.71265
2.6916
2.66182
2.62203
2.57343
2.52433
2.47463
2.43442
2.39778
2.14216
2.05053
1.97706
1.91984
1.88901
1.87507
1.86846
1.84162
1.75405
1.72102
1.72087
1.75366
1.84128
1.86789
1.8745
1.88842
1.91944
1.97678
2.04996
2.14109
2.39681
2.43427
2.47505
2.5247
2.57381
2.62263
2.66228
2.69222
2.71347
2.72592
2.73212
2.73143
2.72137
2.70603
2.68655
2.64956
2.59201
2.5111
2.3999
2.2655
2.62414
2.62187
2.64386
2.67388
2.72663
2.72072
2.74746
2.68316
2.63901
2.58706
2.52367
2.44819
2.37639
2.32194
2.2879
2.26459
2.25583
2.25493
2.3026
2.35332
)
;
    }
    triangle
    {
        type            calculated;
        value           nonuniform List<scalar> 
40
(
2.03825
2.64291
3.5386
4.67192
6.4704
6.28172
5.34828
4.74083
4.6189
4.69438
0.774554
0.828648
0.798155
0.787772
0.792199
0.802858
0.808411
0.808992
0.80357
0.799665
0.799593
0.80344
0.808834
0.808322
0.802834
0.792172
0.787853
0.798209
0.828814
0.774539
2.03825
2.64291
3.5386
4.67192
6.4704
6.28172
5.34828
4.74084
4.61891
4.6944
)
;
    }
    top
    {
        type            symmetryPlane;
    }
    bottom
    {
        type            symmetryPlane;
    }
    defaultFaces
    {
        type            empty;
    }
}


// ************************************************************************* //
