/*--------------------------------*- C++ -*----------------------------------*\
  =========                 |
  \\      /  F ield         | OpenFOAM: The Open Source CFD Toolbox
   \\    /   O peration     | Website:  https://openfoam.org
    \\  /    A nd           | Version:  7
     \\/     M anipulation  |
\*---------------------------------------------------------------------------*/
FoamFile
{
    version     2.0;
    format      ascii;
    class       volScalarField;
    location    "1.3";
    object      T;
}
// * * * * * * * * * * * * * * * * * * * * * * * * * * * * * * * * * * * * * //

dimensions      [0 0 0 1 0 0 0];

internalField   nonuniform List<scalar> 
2600
(
1.44189
1.47382
1.43429
1.3436
1.35989
1.41033
1.48263
1.6552
1.92747
2.08345
1.53709
1.51662
1.48417
1.40878
1.42684
1.474
1.56181
1.79057
2.03522
2.15377
1.59613
1.53657
1.52835
1.48063
1.50521
1.55638
1.69009
1.94071
2.08545
2.22042
1.6183
1.57395
1.58138
1.56478
1.60543
1.67649
1.85156
2.04184
2.10114
2.27567
1.63084
1.59271
1.62039
1.6487
1.73002
1.81593
1.9958
2.07876
2.09548
2.31183
1.63905
1.60666
1.65365
1.72772
1.84807
1.93759
2.06418
2.07664
2.07243
2.32147
1.64089
1.61194
1.6769
1.77438
1.91211
1.98935
2.07853
2.05733
2.04541
2.31638
1.63759
1.61404
1.68752
1.78956
1.92644
1.99883
2.06993
2.02833
2.02475
2.31106
1.62887
1.61292
1.69187
1.79558
1.92794
1.99474
2.05477
2.0053
2.02045
2.34179
1.62401
1.6114
1.69745
1.79734
1.92643
1.99288
2.04769
1.99667
2.0214
2.35873
1.62394
1.61147
1.69751
1.7974
1.92656
1.99123
2.04758
1.9971
2.02147
2.35877
1.62872
1.61325
1.69201
1.79491
1.92716
1.9942
2.05505
2.00542
2.02039
2.34191
1.63745
1.61461
1.68797
1.78955
1.92616
1.99716
2.07052
2.02809
2.02425
2.31133
1.64086
1.61273
1.67782
1.77419
1.91098
1.98631
2.07919
2.0571
2.04437
2.31649
1.6391
1.60761
1.6548
1.72727
1.84622
1.93271
2.06538
2.07795
2.07122
2.3214
1.63097
1.59357
1.62157
1.64864
1.72684
1.80937
1.99571
2.08172
2.09439
2.31138
1.61864
1.57473
1.58253
1.56436
1.60345
1.67128
1.85196
2.04633
2.10082
2.27472
1.59662
1.53742
1.52949
1.48031
1.50365
1.55271
1.69034
1.94582
2.08595
2.21913
1.53754
1.5173
1.48505
1.40869
1.42488
1.47131
1.56234
1.79634
2.03654
2.15237
1.44211
1.47439
1.43494
1.34354
1.3581
1.40855
1.48295
1.6594
1.92928
2.0822
1.66539
1.43624
1.37432
1.28459
1.29951
1.35548
1.43064
1.54803
1.79932
2.00327
1.70503
1.40089
1.32521
1.24135
1.25388
1.31171
1.39016
1.47169
1.68454
1.92583
1.7274
1.39477
1.28913
1.21788
1.2283
1.28087
1.35833
1.42328
1.61197
1.86843
1.77142
1.41824
1.27494
1.20272
1.21469
1.25802
1.33171
1.39421
1.57234
1.83211
1.83122
1.46194
1.29149
1.20016
1.20931
1.2412
1.30644
1.37455
1.5544
1.81142
1.87016
1.51931
1.32906
1.20209
1.21128
1.22883
1.28298
1.35994
1.54552
1.79937
1.90286
1.57307
1.37418
1.21656
1.21716
1.2227
1.26313
1.34582
1.54018
1.79168
1.92338
1.62257
1.42095
1.24255
1.22314
1.22146
1.24785
1.33066
1.5358
1.78816
1.93689
1.66563
1.46209
1.26779
1.23257
1.21924
1.23665
1.31498
1.52906
1.78665
1.94276
1.70631
1.50186
1.29671
1.24502
1.21993
1.23026
1.29994
1.51823
1.78451
1.93682
1.74853
1.53656
1.32904
1.2596
1.2204
1.22728
1.287
1.50498
1.7823
1.9124
1.77141
1.56549
1.36114
1.27881
1.22273
1.22619
1.27789
1.48946
1.78014
1.87606
1.77515
1.58447
1.38916
1.29982
1.22641
1.22534
1.26972
1.47041
1.77619
1.84811
1.78169
1.60357
1.417
1.32127
1.23041
1.22494
1.25998
1.44851
1.7698
1.81659
1.77984
1.62421
1.44571
1.33978
1.23319
1.22446
1.25117
1.42496
1.76029
1.77057
1.7775
1.64812
1.4746
1.36219
1.24362
1.22328
1.24492
1.40437
1.7468
1.68014
1.77951
1.66956
1.50124
1.38157
1.2567
1.22145
1.24495
1.3945
1.7307
1.59548
1.77778
1.68581
1.52745
1.4041
1.27214
1.22309
1.24576
1.39045
1.71168
1.46573
1.76814
1.69724
1.55171
1.42726
1.29231
1.23036
1.25148
1.39999
1.69304
1.31414
1.73557
1.69432
1.57371
1.45064
1.31138
1.23835
1.25913
1.40711
1.67378
1.20278
1.34698
1.54731
1.77604
2.14414
2.13473
2.03632
1.95644
1.9503
1.97141
0.999999
0.998417
1.05556
1.19895
1.74692
2.00503
1.99019
1.96625
1.96874
2.00196
1
1
1
0.999389
1.1442
2.09255
2.10292
2.04713
2.02296
2.04997
1
1
1
1
0.999998
1.4219
2.11476
2.11257
2.07905
2.10203
1
1
1
1
1
1.00001
1.82439
2.17308
2.13011
2.14026
1
1
1
1
1
1
1.13976
2.05025
2.1249
2.14763
1
1
1
1
1
1
0.999997
1.51839
2.0616
2.15045
1
1
1
1
1
1
1
1.04016
1.91685
2.14045
1
1
1
1
1
1
1
1.00002
1.44194
2.08189
1
1
1
1
1
1
1
1
1.04615
2.01575
1
1
1
1
1
1
1
1
1.00035
1.80676
1
1
1
1
1
1
1
1
1
1.31049
1
1
1
1
1
1
1
1
1
0.998959
1
1
1
1
1
1
1
1
1
0.998153
1
1
1
1
1
1
1
1
1
0.999008
1
1
1
1
1
1
1
1
1
0.999663
1
1
1
1
1
1
1
1
1
0.999923
1
1
1
1
1
1
1
1
1
0.99999
1
1
1
1
1
1
1
1
1
1
1
1
1
1
1
1
1
1
1
1
1
1
1
1
1
1
1
1
1
1
1
1
1
1
1
1
1
1
1
1
1
1
1
1
1
1
1
1
1
1
1
1
1
1
1
1
1
1
1
1
1
1
1
1
1
1
1
1
1
1
1
1
1
1
1
1
1
1
1
1
1
1
1
1
1
1
1
1
1
1
1
1
1
1
1
1
1
1
1
1
1
1
1
1
1
1
1
1
1
1
1
1
1
1
1
1
1
1
1
1
1
1
1
1
1
1
1
1
1
1
1
1
1
1
1
1
1
1
1
1
1
1
1
1
1
1
1
1
1
1
1
1
1
1
1
1
1
1
1
1
1
1
1
1
1
1
1
1
1
1
1
1
1
1
1
1
1
1
1
1
1
1
1
1
1
1
1
1
1
1
1
1
1
1
1
1
1
1
1
1
1
1
1
1
1
1
1
1
1
1
1
1
1
1
1
1
1
1
1
1
1
1
1
1
1
1
1
1
1
1
1
1
1
1
1
1
1
1
1
1
1
1
1
1
1
1
1
1
1
1
1
1
1
1
1
1
1
1
1
1
1
1
1
1
1
1
1
1
1
1
1
1
1
1
1
1
1
1
1
1
1
1
1
1
1
1
1
1
1
1
1
1
1
1
1
1
1
1
1
1
1
1
1
1
1
1
1
1
1
1
1
1
1
1
1
1
1
1
1
1
1
1
1
1
1
1
1
1
1
1
1
1
1
1
1
1
1
1
1
1
1
1
1
1
1
1
1
1
1
1
1
1
1
1
1
1
1
1
1
1
1
1
1
1
1
1
1
1
1
1
1
1
1
1
1
1
1
1
1
1
1
1
1
1
1
1
1
1
1
1
1
1
1
1
1
1
1
1
1
1
1
1
1
1
1
1
1
1
1
1
1
1
1
1
1
1
1
1
1
1
1
1
1
1
1
1
1
1
1
1
1
1
1
1
1
1
1
1
1
1
1
1
1
1
1
1
1
1
1
0.99999
1
1
1
1
1
1
1
1
1
0.999923
1
1
1
1
1
1
1
1
1
0.999663
1
1
1
1
1
1
1
1
1
0.999008
1
1
1
1
1
1
1
1
1
0.998152
1
1
1
1
1
1
1
1
1
0.998972
1
1
1
1
1
1
1
1
1
1.31054
1
1
1
1
1
1
1
1
1.00035
1.80679
1
1
1
1
1
1
1
1
1.04616
2.01577
1
1
1
1
1
1
1
1.00002
1.44197
2.0819
1
1
1
1
1
1
1
1.04017
1.91687
2.14045
1
1
1
1
1
1
0.999997
1.51843
2.06161
2.15045
1
1
1
1
1
1
1.13977
2.05026
2.1249
2.14763
1
1
1
1
1
1.00001
1.82441
2.17309
2.13011
2.14026
1
1
1
1
0.999998
1.42191
2.11476
2.11258
2.07905
2.10204
1
1
1
0.999389
1.1442
2.09255
2.10292
2.04713
2.02297
2.04997
0.999999
0.998417
1.05556
1.19895
1.74692
2.00503
1.99019
1.96626
1.96875
2.00197
1.20278
1.34698
1.54731
1.77604
2.14414
2.13473
2.03632
1.95644
1.9503
1.97141
1.31416
1.73561
1.69431
1.57373
1.45065
1.31139
1.23811
1.25886
1.40707
1.67363
1.46575
1.76815
1.69722
1.55169
1.42721
1.29243
1.23022
1.25123
1.40002
1.69305
1.59551
1.77776
1.68577
1.52743
1.40406
1.27236
1.22297
1.24549
1.39062
1.71174
1.68017
1.77946
1.66952
1.50122
1.38151
1.25683
1.22129
1.24467
1.39433
1.7307
1.7706
1.77748
1.64811
1.47454
1.36221
1.24388
1.22327
1.24473
1.40392
1.74685
1.81661
1.77984
1.6242
1.4457
1.33983
1.23345
1.22459
1.25094
1.42478
1.76041
1.84813
1.78175
1.60354
1.41698
1.3213
1.23055
1.2251
1.25965
1.44823
1.76991
1.87607
1.77512
1.58443
1.38911
1.29998
1.2267
1.22551
1.26932
1.47027
1.77635
1.91241
1.77138
1.56545
1.36113
1.27903
1.22307
1.22646
1.2774
1.48946
1.78036
1.93683
1.74852
1.53651
1.3291
1.25989
1.22073
1.22755
1.28642
1.50508
1.7825
1.94277
1.70629
1.50183
1.29666
1.24533
1.22029
1.23045
1.29937
1.51844
1.78469
1.9369
1.66559
1.46207
1.26778
1.23288
1.21968
1.23674
1.31452
1.52941
1.78681
1.92339
1.62254
1.42096
1.24248
1.22369
1.22195
1.24778
1.33036
1.53625
1.78833
1.90287
1.57306
1.37417
1.21677
1.21755
1.22324
1.26275
1.34558
1.54065
1.79188
1.8702
1.51931
1.32894
1.20244
1.21155
1.22943
1.28228
1.35966
1.5459
1.79973
1.83129
1.4619
1.29119
1.20043
1.2097
1.24196
1.30549
1.3741
1.55463
1.81194
1.77146
1.41807
1.27456
1.20296
1.21522
1.25891
1.33077
1.39359
1.57239
1.83278
1.72744
1.39447
1.28867
1.21807
1.22899
1.28182
1.35736
1.42229
1.61173
1.86924
1.70504
1.40062
1.32454
1.24155
1.25487
1.31283
1.38947
1.46998
1.68368
1.92669
1.6653
1.43584
1.37369
1.28476
1.30097
1.35687
1.43021
1.54533
1.79782
2.00428
1
1
1
1
1.0007
1.11142
1.82783
1.96555
1.86903
1.67404
1
1
1
1
1.0012
1.11534
1.80478
1.94524
1.85334
1.66398
1
1
1
1
1.00273
1.12559
1.75767
1.89613
1.81252
1.6411
1
1
1
1.00004
1.00899
1.14464
1.70527
1.83255
1.75878
1.60667
1
1
1
1.00023
1.03312
1.17179
1.67093
1.77704
1.71902
1.58019
1
1
1.00001
1.00112
1.09609
1.21253
1.63613
1.72189
1.66575
1.54871
1
1
1.00003
1.00475
1.19172
1.26955
1.57483
1.69647
1.64222
1.53168
1
1
1.00016
1.01722
1.27111
1.32216
1.51286
1.681
1.62776
1.5048
1
1
1.00066
1.05454
1.31601
1.3615
1.45639
1.66129
1.61731
1.49635
1
1.00001
1.00257
1.13451
1.35889
1.38328
1.41119
1.63239
1.60614
1.4929
1
1.00003
1.01013
1.23448
1.40443
1.39277
1.38343
1.5863
1.58673
1.49377
1
1.00017
1.03699
1.31812
1.44129
1.40471
1.36647
1.52865
1.56882
1.49328
1
1.0009
1.10716
1.38684
1.46071
1.41278
1.35798
1.47286
1.55189
1.49412
0.999998
1.00461
1.21633
1.46073
1.47156
1.41522
1.34851
1.42679
1.53277
1.49885
0.999992
1.02219
1.32259
1.51297
1.48882
1.40884
1.3328
1.38988
1.51207
1.50634
0.999977
1.08602
1.41304
1.54839
1.50178
1.40328
1.31877
1.3605
1.49053
1.5187
0.999944
1.20994
1.51848
1.56693
1.5081
1.39642
1.30558
1.33712
1.47114
1.5385
1.00072
1.35633
1.60013
1.57933
1.49992
1.37979
1.28907
1.31405
1.4532
1.564
1.03107
1.47935
1.6497
1.59282
1.49149
1.36091
1.27327
1.29456
1.43522
1.60562
1.13666
1.62975
1.67655
1.59472
1.47796
1.33678
1.25274
1.2729
1.41891
1.64478
1.13666
1.62971
1.67654
1.59472
1.47791
1.33678
1.25288
1.27308
1.41897
1.64543
1.03107
1.47933
1.64968
1.59281
1.49148
1.36091
1.27338
1.29474
1.43533
1.60616
1.00072
1.35631
1.60012
1.57932
1.49993
1.37971
1.28917
1.31423
1.45347
1.56213
0.999944
1.20993
1.51847
1.56693
1.5081
1.39637
1.30566
1.33729
1.47125
1.53875
0.999977
1.08601
1.41303
1.54839
1.50178
1.40323
1.31881
1.36067
1.4906
1.51876
0.999992
1.02218
1.32259
1.51297
1.48882
1.40881
1.33284
1.39005
1.51211
1.50626
0.999998
1.00461
1.21633
1.46072
1.47157
1.4152
1.34857
1.42696
1.53281
1.49878
1
1.0009
1.10715
1.38682
1.46071
1.41277
1.35804
1.47305
1.55191
1.49407
1
1.00017
1.03699
1.3181
1.44128
1.40468
1.36652
1.52882
1.56885
1.49325
1
1.00003
1.01013
1.23448
1.40442
1.39274
1.38351
1.58642
1.58678
1.49375
1
1.00001
1.00257
1.13451
1.35886
1.38326
1.41131
1.63249
1.60617
1.4929
1
1
1.00066
1.05454
1.31598
1.36149
1.45662
1.66135
1.61732
1.49636
1
1
1.00016
1.01722
1.27109
1.32214
1.51315
1.68102
1.62776
1.50481
1
1
1.00003
1.00474
1.19172
1.26954
1.57511
1.69646
1.64221
1.5317
1
1
1.00001
1.00112
1.09609
1.21253
1.63638
1.72192
1.66576
1.54873
1
1
1
1.00023
1.03312
1.17181
1.67111
1.7771
1.71904
1.5802
1
1
1
1.00004
1.00899
1.14472
1.70546
1.8326
1.75879
1.60667
1
1
1
1
1.00273
1.12573
1.75792
1.89614
1.8125
1.64108
1
1
1
1
1.0012
1.11553
1.80507
1.94524
1.85331
1.66396
1
1
1
1
1.0007
1.11161
1.82814
1.96551
1.86896
1.67401
1
1
1
1
1
1
1
1
1
1
1
1
1
1
1
1
1
1
1
1
1
1
1
1
1
1
1
1
1
1
1
1
1
1
1
1
1
1
1
1
1
1
1
1
1
1
1
1
1
1
1
1
1
1
1
1
1
1
1
1
1
1
1
1
1
1
1
1
1
1
1
1
1
1
1
1
1
1
1
1
1
1
1
1
1
1
1
1
1
1
1
1
1
1
1
1
1
1
1
1
1
1
1
1
1
1
1
1
1
1
1
1
1
1
1
1
1
1
1
1
1
1
1
1
1
1
1
1
1
1
1
1
1
1
1
1
1
1
1
1
1
1
1
1
1
1
1
1
1
1
1
1
1
1
1
1
1
1
1
1
1
1
1
1
1
1
1
1
1
1
1
1
1
1
1
1
1
1
1
1
1
1
1
1
1
1
1
1
1
1
1
1
1
1
1
1
1
1
1
1
1
1
1
1
1
1
1
1
1
1
1
1
1
1
1
1
1
1
1
1
1
1
1
1
1
1
1
1
1
1
1
1
1
1
1
1
1
1
1
1
1
1
1
1
1
1
1
1
1
1
1
1
1
1
1
1
1
1
1
1
1
1
1
1
1
1
1
1
1
1
1
1
1
1
1
1
1
1
1
1
1
1
1
1
1
1
1
1
1
1
1
1
1
1
1
1
1
1
1
1
1
1
1
1
1
1
1
1
1
1
1
1
1
1
1
1
1
1
1
1
1
1
1
1
1
1
1
1
1
1
1
1
1
1
1
1
1
1
1
1
1
1
1
1
1
1
1
1
1
1
1
1
1
1
1
1
1
1
1
1
1
1
1
1
1
1
1
1
1
1
1
1
1
1
1
1
1
1
1
1
1
1
1
1
1
1
1
1
1
1
1
1
1
1
1
1
1
1
1
1
1
1
1
1
1
1
1
1
1
1
1
1
1
1
1
1
1
1
1
1
1
1
1
1
1
1
1
1
1
1
1
1
1
1
1
1
1
1
1
1
1
1
1
1
1
1
1
1
1
1
1
1
1
1
1
1
1
1
1
1
1
1
1
1
1
1
1
1
1
1
1
1
1
1
1
1
1
1
1
1
1
1
1
1
1
1
1
1
1
1
1
1
1
1
1
1
1
1
1
1
1
1
1
1
1
1
1
1
1
1
1
1
1
1
1
1
1
1
1
1
1
1
1
1
1
1
1
1
1
1
1
1
1
1
1
1
1
1
1
1
1
1
1
1
1
1
1
1
1
1
1
1
1
1
1
1
1
1
1
1
1
1
1
1
1
1
1
1
1
1
1
1
1
1
1
1
1
1
1
1
1
1
1
1
1
1
1
1
1
1
1
1
1
1
1
1
1
1
1
1
1
1
1
1
1
1
1
1
1
1
1
1
1
1
1
1
1
1
1
1
1
1
1
1
1
1
1
1
1
1
1
1
1
1
1
1
1
1
1
1
1
1
1
1
1
1
1
1
1
1
1
1
1
1
1
1
1
1
1
1
1
1
1
1
1
1
1
1
1
1
1
1
1
1
1
1
1
1
1
1
1
1
1
1
1
1
1
1
1
1
1
1
1
1
1
1
1
1
1
1
1
1
1
1
1
1
1
1
1
1
1
1
1
1
1
1
1
1
1
1
1
1
1
1
1
1
1
1
1
1
1
1
1
1
1
1
1
1
1
1
1
1
1
1
1
1
1
1
1
1
1
1
1
1
1
1
1
1
1
1
1
1
1
1
1
1
1
1
1
1
1
1
1
1
1
1
1
1
1
1
1
1
1
1
1
1
1
1
1
1
1
1
1
1
1
1
1
1
1
1
)
;

boundaryField
{
    inlet
    {
        type            fixedValue;
        value           uniform 1;
    }
    outlet
    {
        type            inletOutlet;
        inletValue      uniform 1;
        value           nonuniform List<scalar> 
100
(
1.64539
1.60615
1.56218
1.53876
1.51882
1.50634
1.4988
1.49404
1.49322
1.49371
1.49288
1.49635
1.50481
1.53169
1.5488
1.58035
1.60662
1.64097
1.6638
1.67379
2.00326
1.92592
1.86858
1.83229
1.81156
1.79943
1.79176
1.78832
1.78678
1.78461
1.78238
1.78018
1.77618
1.76974
1.7602
1.74668
1.73058
1.7116
1.69298
1.67376
2.08335
2.15363
2.22027
2.27562
2.3121
2.32205
2.31742
2.31192
2.33906
2.35581
2.35586
2.33918
2.31219
2.31752
2.32198
2.31164
2.27466
2.21897
2.15222
2.08209
1.67364
1.693
1.71167
1.73058
1.74672
1.76032
1.76984
1.77634
1.78039
1.78258
1.78479
1.78695
1.78848
1.79195
1.79979
1.81208
1.83296
1.86938
1.92678
2.00428
1.67383
1.66382
1.64098
1.60663
1.58034
1.54879
1.53168
1.5048
1.49635
1.49288
1.49373
1.49325
1.49409
1.49888
1.50642
1.51876
1.53852
1.56409
1.60553
1.64476
)
;
    }
    triangle
    {
        type            zeroGradient;
    }
    top
    {
        type            symmetryPlane;
    }
    bottom
    {
        type            symmetryPlane;
    }
    defaultFaces
    {
        type            empty;
    }
}


// ************************************************************************* //
