/*--------------------------------*- C++ -*----------------------------------*\
  =========                 |
  \\      /  F ield         | OpenFOAM: The Open Source CFD Toolbox
   \\    /   O peration     | Website:  https://openfoam.org
    \\  /    A nd           | Version:  8
     \\/     M anipulation  |
\*---------------------------------------------------------------------------*/
FoamFile
{
    version     2.0;
    format      ascii;
    class       volScalarField;
    location    "1.3";
    object      T;
}
// * * * * * * * * * * * * * * * * * * * * * * * * * * * * * * * * * * * * * //

dimensions      [0 0 0 1 0 0 0];

internalField   nonuniform List<scalar> 
2600
(
1.44178
1.47375
1.4342
1.3437
1.36076
1.41091
1.4818
1.65364
1.92786
2.0838
1.53678
1.51649
1.48405
1.40888
1.42783
1.47493
1.56064
1.78823
2.03544
2.1542
1.59589
1.53637
1.52811
1.48087
1.50591
1.55786
1.6885
1.93862
2.08573
2.22092
1.61806
1.57377
1.5811
1.56515
1.60613
1.67885
1.84986
2.04036
2.10161
2.27611
1.63061
1.59234
1.62
1.64903
1.73155
1.81859
1.99466
2.07844
2.09619
2.31212
1.63886
1.60625
1.65322
1.72824
1.84927
1.93935
2.06291
2.07697
2.07312
2.32161
1.64081
1.61158
1.67654
1.77459
1.91281
1.9904
2.07802
2.05803
2.04597
2.31647
1.63765
1.61379
1.68728
1.78957
1.92668
1.99945
2.06944
2.02888
2.02501
2.31114
1.62896
1.61276
1.69177
1.79562
1.928
1.99519
2.05475
2.00542
2.02044
2.34188
1.624
1.61129
1.6973
1.79711
1.92614
1.99315
2.04746
1.99628
2.02124
2.35877
1.62381
1.61136
1.69744
1.79735
1.92633
1.99077
2.04736
1.99689
2.02136
2.35875
1.62851
1.61324
1.69203
1.79478
1.92666
1.99379
2.05487
2.00516
2.02031
2.34182
1.63731
1.61474
1.68802
1.78953
1.92607
1.99648
2.07093
2.02763
2.0241
2.31131
1.64085
1.61301
1.678
1.77411
1.91056
1.98507
2.07973
2.05651
2.04407
2.31647
1.63918
1.60794
1.65512
1.72684
1.84519
1.93074
2.06652
2.07793
2.07078
2.32132
1.63108
1.59384
1.62181
1.64825
1.72553
1.80677
1.99706
2.08233
2.09381
2.31113
1.61877
1.57485
1.58275
1.56382
1.60262
1.66905
1.85382
2.04771
2.10034
2.27429
1.59678
1.53758
1.52974
1.47998
1.50271
1.55135
1.69216
1.9479
2.08565
2.21865
1.53776
1.51744
1.48523
1.40852
1.42384
1.47042
1.56383
1.79889
2.03635
2.15198
1.44217
1.4745
1.43506
1.3434
1.35724
1.40799
1.48393
1.66115
1.92905
2.08192
1.66542
1.43634
1.37444
1.2844
1.29886
1.35504
1.43132
1.54902
1.79906
2.0031
1.70502
1.40097
1.32538
1.24114
1.25343
1.31134
1.39079
1.47228
1.68425
1.92575
1.72739
1.39486
1.28922
1.21771
1.22797
1.28055
1.35901
1.42362
1.61177
1.8684
1.77141
1.41829
1.27502
1.20256
1.21444
1.25775
1.33235
1.3944
1.57224
1.83212
1.8312
1.46195
1.29156
1.2
1.20913
1.24101
1.30707
1.37468
1.55419
1.81141
1.87016
1.51931
1.32908
1.20193
1.21115
1.22866
1.28345
1.36003
1.54522
1.79929
1.90286
1.57308
1.37417
1.21645
1.21699
1.22252
1.26339
1.3459
1.5399
1.79159
1.92339
1.62259
1.42094
1.24254
1.22292
1.2213
1.24795
1.33078
1.53561
1.78815
1.93689
1.66565
1.4621
1.26778
1.23244
1.21909
1.23668
1.31517
1.52897
1.78667
1.94276
1.70633
1.50186
1.29672
1.24492
1.21979
1.23023
1.30016
1.51821
1.78455
1.93682
1.74853
1.53658
1.32901
1.2595
1.22028
1.22722
1.2872
1.50497
1.78233
1.9124
1.77142
1.5655
1.36114
1.27871
1.22261
1.22613
1.27805
1.48942
1.78016
1.87606
1.77517
1.58449
1.38919
1.29976
1.2263
1.22532
1.26984
1.47027
1.77618
1.8481
1.78166
1.60358
1.41701
1.32128
1.23038
1.22491
1.26008
1.44824
1.7698
1.81658
1.77984
1.62422
1.44571
1.33977
1.23311
1.22443
1.25123
1.42487
1.76038
1.77057
1.7775
1.64812
1.47463
1.36217
1.24354
1.2233
1.24499
1.40392
1.74685
1.68014
1.77953
1.66957
1.50126
1.38159
1.2567
1.22153
1.24503
1.39451
1.7307
1.59548
1.77779
1.68583
1.52746
1.4041
1.27208
1.22315
1.24582
1.39091
1.71172
1.46573
1.76814
1.69725
1.55172
1.42726
1.29228
1.23042
1.25152
1.40019
1.69306
1.31414
1.73556
1.69433
1.5737
1.45063
1.31142
1.23846
1.2592
1.40716
1.67367
1.20278
1.34698
1.54731
1.77604
2.14414
2.13473
2.03632
1.95644
1.9503
1.97141
0.999999
0.998417
1.05556
1.19895
1.74692
2.00503
1.99019
1.96625
1.96874
2.00196
1
1
1
0.999389
1.1442
2.09255
2.10292
2.04713
2.02296
2.04997
1
1
1
1
0.999998
1.4219
2.11476
2.11257
2.07905
2.10203
1
1
1
1
1
1.00001
1.82439
2.17308
2.1301
2.14026
1
1
1
1
1
1
1.13976
2.05025
2.1249
2.14763
1
1
1
1
1
1
0.999997
1.51839
2.0616
2.15044
1
1
1
1
1
1
1
1.04015
1.91685
2.14045
1
1
1
1
1
1
1
1.00002
1.44193
2.08188
1
1
1
1
1
1
1
1
1.04614
2.01575
1
1
1
1
1
1
1
1
1.00035
1.80676
1
1
1
1
1
1
1
1
1
1.31049
1
1
1
1
1
1
1
1
1
0.998958
1
1
1
1
1
1
1
1
1
0.998153
1
1
1
1
1
1
1
1
1
0.999009
1
1
1
1
1
1
1
1
1
0.999663
1
1
1
1
1
1
1
1
1
0.999923
1
1
1
1
1
1
1
1
1
0.99999
1
1
1
1
1
1
1
1
1
1
1
1
1
1
1
1
1
1
1
1
1
1
1
1
1
1
1
1
1
1
1
1
1
1
1
1
1
1
1
1
1
1
1
1
1
1
1
1
1
1
1
1
1
1
1
1
1
1
1
1
1
1
1
1
1
1
1
1
1
1
1
1
1
1
1
1
1
1
1
1
1
1
1
1
1
1
1
1
1
1
1
1
1
1
1
1
1
1
1
1
1
1
1
1
1
1
1
1
1
1
1
1
1
1
1
1
1
1
1
1
1
1
1
1
1
1
1
1
1
1
1
1
1
1
1
1
1
1
1
1
1
1
1
1
1
1
1
1
1
1
1
1
1
1
1
1
1
1
1
1
1
1
1
1
1
1
1
1
1
1
1
1
1
1
1
1
1
1
1
1
1
1
1
1
1
1
1
1
1
1
1
1
1
1
1
1
1
1
1
1
1
1
1
1
1
1
1
1
1
1
1
1
1
1
1
1
1
1
1
1
1
1
1
1
1
1
1
1
1
1
1
1
1
1
1
1
1
1
1
1
1
1
1
1
1
1
1
1
1
1
1
1
1
1
1
1
1
1
1
1
1
1
1
1
1
1
1
1
1
1
1
1
1
1
1
1
1
1
1
1
1
1
1
1
1
1
1
1
1
1
1
1
1
1
1
1
1
1
1
1
1
1
1
1
1
1
1
1
1
1
1
1
1
1
1
1
1
1
1
1
1
1
1
1
1
1
1
1
1
1
1
1
1
1
1
1
1
1
1
1
1
1
1
1
1
1
1
1
1
1
1
1
1
1
1
1
1
1
1
1
1
1
1
1
1
1
1
1
1
1
1
1
1
1
1
1
1
1
1
1
1
1
1
1
1
1
1
1
1
1
1
1
1
1
1
1
1
1
1
1
1
1
1
1
1
1
1
1
1
1
1
1
1
1
1
1
1
1
1
1
1
1
1
1
1
1
1
1
1
1
1
1
1
1
1
1
1
1
1
1
1
1
1
1
1
1
1
1
1
0.99999
1
1
1
1
1
1
1
1
1
0.999923
1
1
1
1
1
1
1
1
1
0.999663
1
1
1
1
1
1
1
1
1
0.999008
1
1
1
1
1
1
1
1
1
0.998152
1
1
1
1
1
1
1
1
1
0.998965
1
1
1
1
1
1
1
1
1
1.31052
1
1
1
1
1
1
1
1
1.00035
1.80678
1
1
1
1
1
1
1
1
1.04615
2.01576
1
1
1
1
1
1
1
1.00002
1.44196
2.08189
1
1
1
1
1
1
1
1.04016
1.91686
2.14045
1
1
1
1
1
1
0.999997
1.51842
2.06161
2.15045
1
1
1
1
1
1
1.13977
2.05026
2.1249
2.14763
1
1
1
1
1
1.00001
1.82441
2.17309
2.13011
2.14026
1
1
1
1
0.999998
1.42191
2.11476
2.11257
2.07905
2.10203
1
1
1
0.999389
1.1442
2.09255
2.10292
2.04713
2.02297
2.04997
0.999999
0.998417
1.05556
1.19895
1.74692
2.00503
1.99019
1.96626
1.96875
2.00197
1.20278
1.34698
1.54731
1.77604
2.14414
2.13473
2.03632
1.95644
1.9503
1.97141
1.31415
1.73562
1.69431
1.57373
1.45067
1.31136
1.23801
1.2588
1.407
1.67368
1.46575
1.76815
1.69721
1.55168
1.42721
1.29247
1.23017
1.2512
1.39982
1.693
1.59551
1.77775
1.68575
1.52742
1.40406
1.27244
1.22291
1.24544
1.3902
1.71171
1.68017
1.77943
1.66951
1.50121
1.38149
1.25685
1.2212
1.24459
1.39435
1.73072
1.7706
1.77747
1.64811
1.47451
1.36223
1.24396
1.22325
1.24466
1.40432
1.74682
1.81662
1.77984
1.62419
1.4457
1.33986
1.23353
1.22462
1.25088
1.42486
1.76035
1.84814
1.78178
1.60353
1.41697
1.3213
1.23058
1.22512
1.25953
1.44851
1.76993
1.87607
1.7751
1.58442
1.38908
1.30003
1.22679
1.22552
1.26918
1.47045
1.77638
1.91241
1.77137
1.56544
1.36112
1.27913
1.22318
1.22651
1.27724
1.48955
1.78035
1.93683
1.74851
1.53649
1.32913
1.25999
1.22082
1.2276
1.28625
1.50515
1.78248
1.94277
1.70627
1.50182
1.29667
1.24542
1.22039
1.23046
1.29918
1.5185
1.78466
1.93689
1.66557
1.46206
1.26777
1.23299
1.2198
1.2367
1.31436
1.52951
1.78679
1.92339
1.62252
1.42096
1.24245
1.2239
1.2221
1.24768
1.33024
1.53641
1.78834
1.90287
1.57305
1.37418
1.21684
1.21773
1.22343
1.26252
1.3455
1.54087
1.79195
1.87021
1.51931
1.32891
1.20258
1.2117
1.22962
1.28188
1.3596
1.54619
1.7998
1.83131
1.46188
1.29109
1.20059
1.20981
1.24215
1.30494
1.37403
1.5549
1.81199
1.77148
1.418
1.27443
1.20311
1.21545
1.25915
1.33017
1.39348
1.57261
1.83282
1.72745
1.39434
1.28851
1.21822
1.22932
1.28208
1.35667
1.42203
1.612
1.86929
1.70504
1.40054
1.32431
1.24175
1.25535
1.31316
1.38883
1.46943
1.68407
1.92681
1.66527
1.43577
1.37353
1.28493
1.30165
1.35732
1.42955
1.54434
1.79825
2.00453
1
1
1
1
1.0007
1.11139
1.8278
1.96555
1.86903
1.67405
1
1
1
1
1.0012
1.11532
1.80475
1.94524
1.85335
1.66399
1
1
1
1
1.00273
1.12557
1.75764
1.89612
1.81252
1.6411
1
1
1
1.00004
1.00899
1.14463
1.70524
1.83254
1.75878
1.60667
1
1
1
1.00023
1.03312
1.17178
1.67091
1.77703
1.71901
1.58018
1
1
1.00001
1.00112
1.09609
1.21253
1.63611
1.72189
1.66575
1.54871
1
1
1.00003
1.00475
1.19172
1.26955
1.5748
1.69647
1.64221
1.53168
1
1
1.00016
1.01722
1.27111
1.32216
1.51283
1.681
1.62776
1.5048
1
1
1.00066
1.05454
1.31602
1.3615
1.45637
1.66128
1.61731
1.49636
1
1.00001
1.00257
1.13451
1.35889
1.38328
1.41118
1.63238
1.60615
1.49291
1
1.00003
1.01013
1.23448
1.40443
1.39277
1.38343
1.58629
1.58672
1.49377
1
1.00017
1.03699
1.31812
1.44129
1.40471
1.36646
1.52863
1.56882
1.49328
1
1.0009
1.10715
1.38684
1.46071
1.41278
1.35798
1.47284
1.55189
1.49411
0.999998
1.00461
1.21633
1.46073
1.47156
1.41522
1.34851
1.42678
1.53277
1.49884
0.999992
1.02219
1.32259
1.51297
1.48882
1.40884
1.33279
1.38988
1.51206
1.50633
0.999977
1.08602
1.41303
1.5484
1.50178
1.40329
1.31877
1.36049
1.49053
1.51879
0.999944
1.20994
1.51848
1.56693
1.50811
1.39643
1.30558
1.33712
1.47115
1.53874
1.00072
1.35633
1.60013
1.57933
1.49992
1.37979
1.28907
1.31404
1.45328
1.5628
1.03107
1.47936
1.6497
1.59283
1.49149
1.36092
1.27325
1.29453
1.43518
1.6062
1.13666
1.62976
1.67655
1.59472
1.47798
1.33678
1.2527
1.27286
1.41887
1.64521
1.13666
1.6297
1.67653
1.59472
1.47789
1.33678
1.25291
1.27312
1.41897
1.64511
1.03107
1.47932
1.64968
1.5928
1.49148
1.36089
1.27339
1.29476
1.43532
1.60609
1.00072
1.35631
1.60012
1.57932
1.49992
1.3797
1.28917
1.31423
1.45338
1.56268
0.999944
1.20992
1.51847
1.56692
1.5081
1.39635
1.30566
1.3373
1.47123
1.5386
0.999977
1.086
1.41303
1.54839
1.50178
1.40322
1.31882
1.36067
1.49059
1.51867
0.999992
1.02218
1.32259
1.51296
1.48882
1.40881
1.33285
1.39006
1.51212
1.50624
0.999998
1.00461
1.21632
1.46071
1.47157
1.4152
1.34857
1.42698
1.53282
1.49878
1
1.0009
1.10715
1.38682
1.46071
1.41277
1.35804
1.47306
1.55192
1.49407
1
1.00017
1.03699
1.3181
1.44128
1.40467
1.36653
1.52884
1.56885
1.49325
1
1.00003
1.01013
1.23448
1.40441
1.39273
1.38351
1.58644
1.58678
1.49375
1
1.00001
1.00257
1.13451
1.35886
1.38326
1.41132
1.6325
1.60617
1.4929
1
1
1.00066
1.05453
1.31598
1.36149
1.45664
1.66135
1.61732
1.49636
1
1
1.00016
1.01722
1.27109
1.32214
1.51317
1.68102
1.62776
1.50481
1
1
1.00003
1.00474
1.19171
1.26954
1.57513
1.69646
1.64221
1.5317
1
1
1.00001
1.00112
1.09608
1.21253
1.6364
1.72192
1.66577
1.54873
1
1
1
1.00023
1.03312
1.17181
1.67113
1.77711
1.71905
1.58021
1
1
1
1.00004
1.00899
1.14472
1.70548
1.8326
1.75879
1.60667
1
1
1
1
1.00273
1.12574
1.75795
1.89614
1.8125
1.64108
1
1
1
1
1.0012
1.11554
1.80509
1.94524
1.85331
1.66396
1
1
1
1
1.0007
1.11162
1.82816
1.96551
1.86896
1.67401
1
1
1
1
1
1
1
1
1
1
1
1
1
1
1
1
1
1
1
1
1
1
1
1
1
1
1
1
1
1
1
1
1
1
1
1
1
1
1
1
1
1
1
1
1
1
1
1
1
1
1
1
1
1
1
1
1
1
1
1
1
1
1
1
1
1
1
1
1
1
1
1
1
1
1
1
1
1
1
1
1
1
1
1
1
1
1
1
1
1
1
1
1
1
1
1
1
1
1
1
1
1
1
1
1
1
1
1
1
1
1
1
1
1
1
1
1
1
1
1
1
1
1
1
1
1
1
1
1
1
1
1
1
1
1
1
1
1
1
1
1
1
1
1
1
1
1
1
1
1
1
1
1
1
1
1
1
1
1
1
1
1
1
1
1
1
1
1
1
1
1
1
1
1
1
1
1
1
1
1
1
1
1
1
1
1
1
1
1
1
1
1
1
1
1
1
1
1
1
1
1
1
1
1
1
1
1
1
1
1
1
1
1
1
1
1
1
1
1
1
1
1
1
1
1
1
1
1
1
1
1
1
1
1
1
1
1
1
1
1
1
1
1
1
1
1
1
1
1
1
1
1
1
1
1
1
1
1
1
1
1
1
1
1
1
1
1
1
1
1
1
1
1
1
1
1
1
1
1
1
1
1
1
1
1
1
1
1
1
1
1
1
1
1
1
1
1
1
1
1
1
1
1
1
1
1
1
1
1
1
1
1
1
1
1
1
1
1
1
1
1
1
1
1
1
1
1
1
1
1
1
1
1
1
1
1
1
1
1
1
1
1
1
1
1
1
1
1
1
1
1
1
1
1
1
1
1
1
1
1
1
1
1
1
1
1
1
1
1
1
1
1
1
1
1
1
1
1
1
1
1
1
1
1
1
1
1
1
1
1
1
1
1
1
1
1
1
1
1
1
1
1
1
1
1
1
1
1
1
1
1
1
1
1
1
1
1
1
1
1
1
1
1
1
1
1
1
1
1
1
1
1
1
1
1
1
1
1
1
1
1
1
1
1
1
1
1
1
1
1
1
1
1
1
1
1
1
1
1
1
1
1
1
1
1
1
1
1
1
1
1
1
1
1
1
1
1
1
1
1
1
1
1
1
1
1
1
1
1
1
1
1
1
1
1
1
1
1
1
1
1
1
1
1
1
1
1
1
1
1
1
1
1
1
1
1
1
1
1
1
1
1
1
1
1
1
1
1
1
1
1
1
1
1
1
1
1
1
1
1
1
1
1
1
1
1
1
1
1
1
1
1
1
1
1
1
1
1
1
1
1
1
1
1
1
1
1
1
1
1
1
1
1
1
1
1
1
1
1
1
1
1
1
1
1
1
1
1
1
1
1
1
1
1
1
1
1
1
1
1
1
1
1
1
1
1
1
1
1
1
1
1
1
1
1
1
1
1
1
1
1
1
1
1
1
1
1
1
1
1
1
1
1
1
1
1
1
1
1
1
1
1
1
1
1
1
1
1
1
1
1
1
1
1
1
1
1
1
1
1
1
1
1
1
1
1
1
1
1
1
1
1
1
1
1
1
1
1
1
1
1
1
1
1
1
1
1
1
1
1
1
1
1
1
1
1
1
1
1
1
1
1
1
1
1
1
1
1
1
1
1
1
1
1
1
1
1
1
1
1
1
1
1
1
1
1
1
1
1
1
1
1
1
1
1
1
1
1
1
1
1
1
1
1
1
1
1
1
1
1
1
1
1
1
1
1
1
1
1
1
1
1
1
1
1
1
1
1
1
1
1
1
1
1
1
1
1
1
1
1
1
1
1
1
1
1
1
1
1
1
1
1
1
1
1
1
1
1
1
1
)
;

boundaryField
{
    inlet
    {
        type            fixedValue;
        value           uniform 1;
    }
    outlet
    {
        type            inletOutlet;
        inletValue      uniform 1;
        value           nonuniform List<scalar> 
100
(
1.64507
1.60604
1.56277
1.53862
1.51873
1.50632
1.4988
1.49404
1.49322
1.49371
1.49288
1.49635
1.50481
1.53169
1.54881
1.58036
1.60663
1.64097
1.6638
1.67379
2.00309
1.92584
1.86855
1.8323
1.81155
1.79936
1.79167
1.78831
1.78681
1.78465
1.78242
1.7802
1.77617
1.76973
1.76029
1.74672
1.73059
1.71164
1.69301
1.67366
2.0837
2.15407
2.22077
2.27606
2.31238
2.32219
2.3175
2.31198
2.33914
2.35584
2.35584
2.3391
2.31217
2.31751
2.3219
2.31139
2.27423
2.21848
2.15183
2.0818
1.67367
1.69294
1.71163
1.73059
1.74669
1.76025
1.76986
1.77636
1.78039
1.78256
1.78476
1.78693
1.78849
1.79203
1.79986
1.81212
1.833
1.86943
1.92691
2.00453
1.67383
1.66383
1.64098
1.60663
1.58033
1.54879
1.53168
1.5048
1.49635
1.49288
1.49373
1.49325
1.49408
1.49887
1.50641
1.51885
1.53875
1.56289
1.60615
1.64517
)
;
    }
    triangle
    {
        type            zeroGradient;
    }
    top
    {
        type            symmetryPlane;
    }
    bottom
    {
        type            symmetryPlane;
    }
    defaultFaces
    {
        type            empty;
    }
}


// ************************************************************************* //
