/*--------------------------------*- C++ -*----------------------------------*\
  =========                 |
  \\      /  F ield         | OpenFOAM: The Open Source CFD Toolbox
   \\    /   O peration     | Website:  https://openfoam.org
    \\  /    A nd           | Version:  7
     \\/     M anipulation  |
\*---------------------------------------------------------------------------*/
FoamFile
{
    version     2.0;
    format      ascii;
    class       volVectorField;
    location    "1.3";
    object      U;
}
// * * * * * * * * * * * * * * * * * * * * * * * * * * * * * * * * * * * * * //

dimensions      [0 1 -1 0 0 0 0];

internalField   nonuniform List<vector> 
2600
(
(2.05802 0.678808 0)
(2.56524 0.280148 0)
(2.74451 0.349098 0)
(2.80699 0.312765 0)
(2.80093 0.182606 0)
(2.74301 0.028894 0)
(2.63068 -0.10315 0)
(2.46376 -0.265893 0)
(2.10246 -0.196381 0)
(1.71536 0.0818825 0)
(1.45708 0.107307 0)
(2.08819 0.144124 0)
(2.53155 0.296237 0)
(2.72427 0.276661 0)
(2.76969 0.135903 0)
(2.73756 -0.00799967 0)
(2.55837 -0.117419 0)
(2.25759 -0.23783 0)
(1.71311 -0.138889 0)
(1.53068 0.0855572 0)
(0.706523 0.0625901 0)
(1.44233 0.214257 0)
(2.1188 0.291377 0)
(2.5089 0.261451 0)
(2.66588 0.107375 0)
(2.66187 -0.00918274 0)
(2.40839 -0.125491 0)
(1.87112 -0.214253 0)
(1.19691 -0.170668 0)
(1.28918 0.0725726 0)
(0.204826 -0.0767916 0)
(0.817797 0.0748983 0)
(1.55836 0.190761 0)
(2.11901 0.200958 0)
(2.43328 0.0776985 0)
(2.41417 -0.0314925 0)
(2.07702 -0.122695 0)
(1.31982 -0.158975 0)
(0.700894 -0.0741317 0)
(1.01378 0.0564812 0)
(-0.00982718 -0.0860111 0)
(0.341403 0.0347967 0)
(0.951374 0.138037 0)
(1.56274 0.154794 0)
(2.00771 0.0560265 0)
(1.92736 -0.0334242 0)
(1.51365 -0.0934499 0)
(0.727686 -0.096411 0)
(0.282661 -0.103771 0)
(0.726497 0.0408876 0)
(-0.102419 -0.0866397 0)
(0.05296 -0.0120814 0)
(0.422187 0.0657867 0)
(0.931454 0.096469 0)
(1.37177 0.0382941 0)
(1.26179 -0.0264994 0)
(0.852811 -0.0749571 0)
(0.23109 -0.0567931 0)
(-0.0338262 -0.0516807 0)
(0.458102 0.0235828 0)
(-0.148708 -0.0729879 0)
(-0.110869 -0.0264992 0)
(0.0350208 0.0367066 0)
(0.356084 0.0524273 0)
(0.677258 0.0228806 0)
(0.603341 -0.0298683 0)
(0.312349 -0.028659 0)
(-0.113124 -0.0307374 0)
(-0.254581 -0.0576795 0)
(0.238824 0.0194477 0)
(-0.172789 -0.0587019 0)
(-0.199829 -0.0361199 0)
(-0.199712 0.00124686 0)
(-0.0556323 0.0130731 0)
(0.15312 0.0141943 0)
(0.144194 -0.0105164 0)
(-0.0206632 -0.0222181 0)
(-0.311686 -0.0164221 0)
(-0.388967 -0.0358054 0)
(0.0637697 0.0274083 0)
(-0.178113 -0.0341179 0)
(-0.24558 -0.0356047 0)
(-0.309587 -0.00794772 0)
(-0.260885 0.00738773 0)
(-0.110217 0.0143536 0)
(-0.0738991 -0.0147155 0)
(-0.170308 -0.0109547 0)
(-0.403528 -0.0100642 0)
(-0.463674 -0.0289711 0)
(-0.116776 0.050363 0)
(-0.181876 -0.0135539 0)
(-0.26126 -0.0125521 0)
(-0.339727 -0.00184289 0)
(-0.317014 0.0048469 0)
(-0.184401 0.00729647 0)
(-0.132133 -0.00440281 0)
(-0.209319 -0.00692244 0)
(-0.432214 -0.00467957 0)
(-0.492022 -0.00927803 0)
(-0.19307 0.0170794 0)
(-0.181682 0.0126206 0)
(-0.261204 0.0129494 0)
(-0.339667 0.00336007 0)
(-0.316986 0.000105137 0)
(-0.183859 -0.00471114 0)
(-0.131479 0.00430508 0)
(-0.209405 -0.0015988 0)
(-0.432366 0.00671345 0)
(-0.492109 0.0121864 0)
(-0.192953 -0.0157433 0)
(-0.178148 0.0332107 0)
(-0.245512 0.0358304 0)
(-0.309479 0.00974273 0)
(-0.260261 -0.00150035 0)
(-0.107019 -0.00987498 0)
(-0.0690893 0.00953746 0)
(-0.169357 0.00180372 0)
(-0.405055 0.0127605 0)
(-0.464141 0.0323602 0)
(-0.116184 -0.0486291 0)
(-0.172905 0.0579762 0)
(-0.199885 0.0363201 0)
(-0.200015 0.000890694 0)
(-0.0549735 -0.00941086 0)
(0.161857 -0.0155577 0)
(0.156075 0.00580814 0)
(-0.0173458 0.0114358 0)
(-0.315869 0.0171795 0)
(-0.390185 0.0394079 0)
(0.0652147 -0.0259206 0)
(-0.148768 0.0726694 0)
(-0.111215 0.0268785 0)
(0.0335769 -0.0351833 0)
(0.355578 -0.0491329 0)
(0.692364 -0.0189613 0)
(0.622623 0.0301932 0)
(0.31756 0.0255358 0)
(-0.121898 0.0331977 0)
(-0.257093 0.0606352 0)
(0.241248 -0.0181147 0)
(-0.1025 0.0865086 0)
(0.0520787 0.0123998 0)
(0.419632 -0.0640665 0)
(0.929462 -0.0930595 0)
(1.38915 -0.0395397 0)
(1.2843 0.0215095 0)
(0.858007 0.0653477 0)
(0.217253 0.0550234 0)
(-0.0384356 0.0543924 0)
(0.461325 -0.0226673 0)
(-0.00995468 0.0864702 0)
(0.339898 -0.0340843 0)
(0.948134 -0.136887 0)
(1.56029 -0.152983 0)
(2.02127 -0.055271 0)
(1.94506 0.0305551 0)
(1.51548 0.0954811 0)
(0.709155 0.0993671 0)
(0.275695 0.105338 0)
(0.730104 -0.0401969 0)
(0.204891 0.0769501 0)
(0.81592 -0.0740261 0)
(1.55565 -0.189197 0)
(2.11754 -0.200996 0)
(2.44008 -0.0767811 0)
(2.42508 0.0274031 0)
(2.07629 0.120549 0)
(1.2993 0.155635 0)
(0.69206 0.0773201 0)
(1.01738 -0.0562019 0)
(0.707474 -0.0620738 0)
(1.44092 -0.213175 0)
(2.11709 -0.290411 0)
(2.50892 -0.26095 0)
(2.66808 -0.108154 0)
(2.66827 0.00583356 0)
(2.4052 0.126049 0)
(1.85116 0.217645 0)
(1.18799 0.170562 0)
(1.29259 -0.0728574 0)
(1.45781 -0.107183 0)
(2.08729 -0.143753 0)
(2.53058 -0.295101 0)
(2.72477 -0.276324 0)
(2.77105 -0.139507 0)
(2.74156 0.00376913 0)
(2.5534 0.118607 0)
(2.24406 0.239049 0)
(1.70591 0.140151 0)
(1.53389 -0.0864139 0)
(2.05672 -0.678293 0)
(2.56467 -0.279218 0)
(2.7435 -0.34805 0)
(2.80768 -0.311942 0)
(2.80242 -0.185778 0)
(2.74463 -0.0329379 0)
(2.6251 0.103024 0)
(2.45511 0.267981 0)
(2.09933 0.196682 0)
(1.71862 -0.0831104 0)
(2.30318 0.0897796 0)
(2.8219 -0.23328 0)
(2.81655 -0.348493 0)
(2.83214 -0.314086 0)
(2.81383 -0.218242 0)
(2.73874 -0.0695104 0)
(2.65875 0.0849952 0)
(2.55705 0.252875 0)
(2.33718 0.180535 0)
(1.84072 -0.0833483 0)
(2.30995 0.268294 0)
(2.84172 -0.216088 0)
(2.78108 -0.352931 0)
(2.83574 -0.310809 0)
(2.81845 -0.242403 0)
(2.73457 -0.0995118 0)
(2.67817 0.0395887 0)
(2.61247 0.259027 0)
(2.41731 0.200442 0)
(1.9128 -0.077728 0)
(2.22618 0.473763 0)
(2.6965 0.052208 0)
(2.71801 -0.340671 0)
(2.84371 -0.293161 0)
(2.81985 -0.252964 0)
(2.74414 -0.139345 0)
(2.68535 0.013651 0)
(2.63328 0.237769 0)
(2.42813 0.179416 0)
(1.94958 -0.0781973 0)
(2.146 0.583339 0)
(2.61626 0.0746557 0)
(2.72233 -0.322986 0)
(2.82693 -0.283249 0)
(2.81049 -0.262915 0)
(2.74831 -0.167882 0)
(2.69625 -0.0232254 0)
(2.63937 0.216647 0)
(2.42497 0.165004 0)
(1.9722 -0.0796154 0)
(2.08509 0.645725 0)
(2.508 0.270198 0)
(2.70273 -0.217071 0)
(2.81352 -0.25757 0)
(2.80283 -0.272038 0)
(2.75283 -0.203379 0)
(2.70922 -0.0632109 0)
(2.64527 0.195003 0)
(2.42214 0.146646 0)
(1.99041 -0.0830495 0)
(1.99749 0.692216 0)
(2.45302 0.329779 0)
(2.68258 -0.171121 0)
(2.80933 -0.228483 0)
(2.78773 -0.2761 0)
(2.75524 -0.224506 0)
(2.72946 -0.107841 0)
(2.66419 0.158602 0)
(2.42628 0.118558 0)
(2.00674 -0.0888951 0)
(1.96409 0.724133 0)
(2.38398 0.412396 0)
(2.61992 -0.0421228 0)
(2.77251 -0.16323 0)
(2.7552 -0.278505 0)
(2.76292 -0.232817 0)
(2.75444 -0.142169 0)
(2.68621 0.121656 0)
(2.44101 0.0893992 0)
(2.0198 -0.0987133 0)
(1.91155 0.753262 0)
(2.32273 0.47013 0)
(2.59498 0.0124729 0)
(2.76307 -0.13544 0)
(2.72774 -0.27418 0)
(2.77909 -0.230248 0)
(2.77259 -0.164086 0)
(2.70999 0.0793208 0)
(2.45654 0.0539248 0)
(2.02963 -0.101757 0)
(1.88053 0.788463 0)
(2.28146 0.511032 0)
(2.54502 0.112747 0)
(2.73073 -0.0460236 0)
(2.71301 -0.25495 0)
(2.79409 -0.221445 0)
(2.78409 -0.178231 0)
(2.72583 0.0411173 0)
(2.4602 0.010744 0)
(2.03627 -0.104239 0)
(1.86243 0.806866 0)
(2.23055 0.560035 0)
(2.51854 0.165143 0)
(2.70495 0.00912172 0)
(2.71951 -0.25738 0)
(2.79819 -0.213119 0)
(2.78786 -0.182257 0)
(2.74055 0.00253332 0)
(2.46708 -0.0348268 0)
(2.04046 -0.111396 0)
(1.85502 0.807438 0)
(2.16525 0.593171 0)
(2.44641 0.252243 0)
(2.63355 0.10006 0)
(2.71755 -0.20727 0)
(2.78881 -0.195436 0)
(2.78595 -0.180387 0)
(2.74659 -0.0282984 0)
(2.48128 -0.0885772 0)
(2.04425 -0.118939 0)
(1.90439 0.786146 0)
(2.12261 0.629041 0)
(2.41346 0.310008 0)
(2.60551 0.138726 0)
(2.71273 -0.195977 0)
(2.78783 -0.185512 0)
(2.78389 -0.179478 0)
(2.75098 -0.0582359 0)
(2.49232 -0.149838 0)
(2.04565 -0.128588 0)
(1.94656 0.767302 0)
(2.10294 0.656674 0)
(2.37591 0.379127 0)
(2.56283 0.212376 0)
(2.6851 -0.135691 0)
(2.77586 -0.163882 0)
(2.78115 -0.17947 0)
(2.76101 -0.0906459 0)
(2.498 -0.217125 0)
(2.04177 -0.142005 0)
(1.99129 0.735947 0)
(2.08805 0.688394 0)
(2.3537 0.438435 0)
(2.54279 0.25087 0)
(2.67278 -0.115521 0)
(2.78054 -0.147847 0)
(2.77933 -0.182578 0)
(2.75628 -0.117819 0)
(2.49327 -0.285435 0)
(2.03276 -0.157327 0)
(2.05318 0.693793 0)
(2.08388 0.707725 0)
(2.33265 0.49089 0)
(2.51387 0.303878 0)
(2.64744 -0.0509833 0)
(2.76815 -0.114371 0)
(2.77164 -0.178014 0)
(2.75608 -0.146132 0)
(2.49665 -0.368099 0)
(2.02804 -0.181118 0)
(2.13897 0.644604 0)
(2.08448 0.723472 0)
(2.29715 0.537009 0)
(2.48707 0.339614 0)
(2.63361 -0.0213305 0)
(2.76818 -0.0871941 0)
(2.76589 -0.184011 0)
(2.75127 -0.160803 0)
(2.48469 -0.426762 0)
(2.0274 -0.204299 0)
(2.22171 0.614212 0)
(2.08206 0.723072 0)
(2.26324 0.57178 0)
(2.45131 0.384263 0)
(2.61233 0.0282334 0)
(2.76523 -0.0614222 0)
(2.76737 -0.176889 0)
(2.74801 -0.168004 0)
(2.48251 -0.477961 0)
(2.04199 -0.238919 0)
(2.3931 0.580285 0)
(2.08924 0.721779 0)
(2.23829 0.598785 0)
(2.42315 0.414823 0)
(2.59128 0.0729033 0)
(2.74399 -0.00764198 0)
(2.76991 -0.162388 0)
(2.74529 -0.169071 0)
(2.47623 -0.500323 0)
(2.05474 -0.267866 0)
(2.54428 0.514058 0)
(2.10164 0.722671 0)
(2.21516 0.625781 0)
(2.39779 0.4434 0)
(2.57384 0.110535 0)
(2.72842 0.0206834 0)
(2.77487 -0.153515 0)
(2.74245 -0.168515 0)
(2.46615 -0.520713 0)
(2.07647 -0.300878 0)
(2.76858 0.43992 0)
(2.12988 0.724393 0)
(2.20497 0.639123 0)
(2.36972 0.47112 0)
(2.53924 0.163959 0)
(2.69659 0.0700157 0)
(2.77352 -0.1357 0)
(2.7353 -0.167648 0)
(2.44989 -0.535112 0)
(2.09335 -0.328732 0)
(2.82685 0.0854204 0)
(2.71503 0.118618 0)
(2.46245 0.322582 0)
(2.34754 0.475322 0)
(1.8334 0.742172 0)
(1.66184 0.931962 0)
(1.71847 1.00131 0)
(1.77807 1.05774 0)
(1.75475 1.03109 0)
(1.73097 1.00932 0)
(3 7.2812e-07 0)
(3.00387 -0.00416702 0)
(2.92376 0.0673597 0)
(2.80658 0.221636 0)
(1.82147 1.02006 0)
(1.4583 1.18026 0)
(1.56892 1.1108 0)
(1.68598 1.05914 0)
(1.71641 1.01099 0)
(1.7314 0.985389 0)
(3 8.96069e-08 0)
(3 3.0893e-06 0)
(3 -7.39927e-07 0)
(3.001 -0.000724485 0)
(2.93965 0.109887 0)
(1.89699 0.973334 0)
(1.59026 1.02467 0)
(1.67186 1.00676 0)
(1.71448 0.971293 0)
(1.71208 0.972795 0)
(3 1.0971e-07 0)
(3 1.09302e-07 0)
(3 1.0069e-07 0)
(3 1.35586e-06 0)
(3 1.7576e-07 0)
(2.74746 0.381129 0)
(1.5393 0.994447 0)
(1.61241 0.976858 0)
(1.65822 0.968237 0)
(1.66133 0.960088 0)
(3 7.91724e-08 0)
(3 8.1531e-08 0)
(3 1.1098e-07 0)
(3 1.14895e-07 0)
(3 1.75623e-07 0)
(2.99998 1.92513e-05 0)
(2.10316 0.737163 0)
(1.56208 0.945896 0)
(1.59523 0.941395 0)
(1.59696 0.926368 0)
(3 8.27372e-08 0)
(3 1.09676e-07 0)
(3 1.06612e-07 0)
(3 1.32826e-07 0)
(3 1.45846e-07 0)
(3 2.17736e-07 0)
(2.95956 0.0988528 0)
(1.68821 0.857876 0)
(1.55451 0.928408 0)
(1.54879 0.905092 0)
(3 8.62236e-08 0)
(3 9.89454e-08 0)
(3 1.08174e-07 0)
(3 1.28864e-07 0)
(3 1.38502e-07 0)
(3 2.55089e-07 0)
(3 1.62732e-06 0)
(2.54078 0.549265 0)
(1.6162 0.9176 0)
(1.54029 0.89585 0)
(3 8.79483e-08 0)
(3 9.45777e-08 0)
(3 1.29781e-07 0)
(3 1.28573e-07 0)
(3 1.90236e-07 0)
(3 2.21858e-07 0)
(3 3.2738e-07 0)
(3.011 0.0321965 0)
(1.78168 0.846728 0)
(1.53731 0.898356 0)
(3 8.79585e-08 0)
(3 1.14447e-07 0)
(3 1.30781e-07 0)
(3 1.583e-07 0)
(3 2.13533e-07 0)
(3 2.41161e-07 0)
(3 3.95041e-07 0)
(3 6.53509e-05 0)
(2.65515 0.525741 0)
(1.61066 0.885223 0)
(3 1.17412e-07 0)
(3 1.4473e-07 0)
(3 1.57118e-07 0)
(3 1.99517e-07 0)
(3 2.08205e-07 0)
(3 2.78788e-07 0)
(3 3.25136e-07 0)
(3 4.55579e-07 0)
(3.02688 0.0420892 0)
(1.73019 0.820193 0)
(3 1.38205e-07 0)
(3 1.59399e-07 0)
(3 1.84013e-07 0)
(3 2.17328e-07 0)
(3 2.41626e-07 0)
(3 3.12107e-07 0)
(3 3.30231e-07 0)
(3 4.94371e-07 0)
(3.00003 0.00115931 0)
(1.981 0.750495 0)
(3 1.35784e-07 0)
(3 1.53956e-07 0)
(3 1.73202e-07 0)
(3 2.03257e-07 0)
(3 2.33532e-07 0)
(3 2.76859e-07 0)
(3 3.39109e-07 0)
(3 4.23285e-07 0)
(3 3.83125e-06 0)
(2.88776 0.424983 0)
(3 1.41446e-07 0)
(3 1.57184e-07 0)
(3 1.81817e-07 0)
(3 2.05371e-07 0)
(3 2.42491e-07 0)
(3 2.82015e-07 0)
(3 3.48291e-07 0)
(3 4.1126e-07 0)
(3 6.16879e-07 0)
(3.1211 -0.0567249 0)
(3 1.32657e-07 0)
(3 1.53002e-07 0)
(3 1.69276e-07 0)
(3 2.0464e-07 0)
(3 2.29564e-07 0)
(3 2.84947e-07 0)
(3 3.34583e-07 0)
(3 4.17359e-07 0)
(3 5.68741e-07 0)
(3.00458 -0.00320717 0)
(3 1.42651e-07 0)
(3 1.57008e-07 0)
(3 1.82312e-07 0)
(3 2.0807e-07 0)
(3 2.42363e-07 0)
(3 2.88877e-07 0)
(3 3.44351e-07 0)
(3 4.19735e-07 0)
(3 5.75788e-07 0)
(3.00134 -0.00188953 0)
(3 1.4507e-07 0)
(3 1.58546e-07 0)
(3 1.83707e-07 0)
(3 2.10166e-07 0)
(3 2.43454e-07 0)
(3 2.89073e-07 0)
(3 3.43195e-07 0)
(3 4.13315e-07 0)
(3 5.60442e-07 0)
(3.00037 -0.000848432 0)
(3 1.48556e-07 0)
(3 1.57923e-07 0)
(3 1.8568e-07 0)
(3 2.06643e-07 0)
(3 2.42977e-07 0)
(3 2.84344e-07 0)
(3 3.38248e-07 0)
(3 4.03899e-07 0)
(3 5.52782e-07 0)
(3.00007 -0.000167471 0)
(3 1.50799e-07 0)
(3 1.55783e-07 0)
(3 1.86004e-07 0)
(3 1.98507e-07 0)
(3 2.38329e-07 0)
(3 2.70341e-07 0)
(3 3.27089e-07 0)
(3 3.82609e-07 0)
(3 5.24694e-07 0)
(3.00001 -2.36843e-05 0)
(3 1.42384e-07 0)
(3 1.44899e-07 0)
(3 1.74458e-07 0)
(3 1.80324e-07 0)
(3 2.24946e-07 0)
(3 2.47622e-07 0)
(3 3.1274e-07 0)
(3 3.56526e-07 0)
(3 5.30954e-07 0)
(3 -1.32122e-06 0)
(3 1.37652e-07 0)
(3 1.39952e-07 0)
(3 1.67342e-07 0)
(3 1.72275e-07 0)
(3 2.1308e-07 0)
(3 2.37922e-07 0)
(3 2.88908e-07 0)
(3 3.58656e-07 0)
(3 4.4068e-07 0)
(3 5.83341e-07 0)
(3 -6.30339e-17 0)
(3 -3.53439e-15 0)
(3 -1.14929e-15 0)
(3 -3.781e-15 0)
(3 -6.83524e-16 0)
(3 -1.41161e-15 0)
(3 -9.18796e-16 0)
(3 6.52753e-15 0)
(3 -3.82378e-12 0)
(3 -3.5494e-08 0)
(3 -6.37669e-17 0)
(3 -3.79309e-15 0)
(3 -1.75642e-15 0)
(3 4.17007e-16 0)
(3 8.93139e-16 0)
(3 -4.94354e-16 0)
(3 2.26135e-15 0)
(3 2.14384e-14 0)
(3 -1.08348e-11 0)
(3 -2.05873e-08 0)
(3 1.11708e-15 0)
(3 -4.12971e-16 0)
(3 -2.80385e-15 0)
(3 8.49947e-16 0)
(3 -2.21256e-16 0)
(3 -4.55323e-15 0)
(3 4.95543e-16 0)
(3 3.73015e-14 0)
(3 -1.59077e-11 0)
(3 1.3227e-08 0)
(3 2.02778e-15 0)
(3 4.12559e-16 0)
(3 -8.6191e-16 0)
(3 -6.07453e-16 0)
(3 1.34762e-15 0)
(3 -2.26552e-15 0)
(3 1.43553e-15 0)
(3 5.21171e-14 0)
(3 -2.25259e-11 0)
(3 2.00154e-08 0)
(3 2.59934e-16 0)
(3 -1.88247e-15 0)
(3 1.08576e-15 0)
(3 1.31893e-15 0)
(3 8.58536e-16 0)
(3 9.4437e-17 0)
(3 8.46077e-16 0)
(3 6.74874e-14 0)
(3 -2.9526e-11 0)
(3 3.82868e-08 0)
(3 3.93506e-17 0)
(3 4.96168e-15 0)
(3 4.80726e-15 0)
(3 3.397e-15 0)
(3 6.39228e-16 0)
(3 1.62258e-15 0)
(3 2.78023e-15 0)
(3 8.1683e-14 0)
(3 -3.58237e-11 0)
(3 3.04846e-08 0)
(3 3.91226e-16 0)
(3 7.94682e-15 0)
(3 2.37783e-15 0)
(3 3.05295e-15 0)
(3 2.41628e-15 0)
(3 2.83294e-15 0)
(3 7.12743e-15 0)
(3 9.76089e-14 0)
(3 -4.1491e-11 0)
(3 3.80498e-08 0)
(3 -1.1277e-15 0)
(3 2.9306e-15 0)
(3 7.11479e-15 0)
(3 5.5507e-15 0)
(3 2.75788e-15 0)
(3 2.82433e-15 0)
(3 3.48838e-15 0)
(3 1.06713e-13 0)
(3 -4.68865e-11 0)
(3 3.80487e-08 0)
(3 -9.7447e-16 0)
(3 4.23396e-16 0)
(3 7.28172e-15 0)
(3 8.82296e-15 0)
(3 7.02036e-15 0)
(3 5.49468e-15 0)
(3 -4.84354e-15 0)
(3 1.17683e-13 0)
(3 -5.20208e-11 0)
(3 4.81972e-08 0)
(3 -7.11458e-16 0)
(3 -4.47692e-15 0)
(3 2.63126e-15 0)
(3 9.83707e-15 0)
(3 9.87953e-15 0)
(3 7.70691e-15 0)
(3 -7.57859e-15 0)
(3 1.26125e-13 0)
(3 -5.55642e-11 0)
(3 5.48603e-08 0)
(3 9.38981e-16 0)
(3 -1.91582e-15 0)
(3 3.25305e-16 0)
(3 7.95791e-15 0)
(3 6.51844e-15 0)
(3 6.25102e-15 0)
(3 -3.7475e-15 0)
(3 1.38269e-13 0)
(3 -5.92567e-11 0)
(3 6.55366e-08 0)
(3 2.27496e-15 0)
(3 1.7762e-15 0)
(3 1.14505e-15 0)
(3 4.53493e-15 0)
(3 3.82442e-15 0)
(3 3.5079e-15 0)
(3 -1.79399e-15 0)
(3 1.57114e-13 0)
(3 -6.28746e-11 0)
(3 7.99941e-08 0)
(3 -1.13424e-15 0)
(3 1.89986e-15 0)
(3 3.42593e-15 0)
(3 1.58824e-15 0)
(3 6.38385e-16 0)
(3 1.48246e-15 0)
(3 1.5874e-15 0)
(3 1.63728e-13 0)
(3 -6.6359e-11 0)
(3 7.06621e-08 0)
(3 -2.04452e-15 0)
(3 -1.29871e-15 0)
(3 4.23308e-15 0)
(3 -6.27543e-17 0)
(3 -1.89809e-15 0)
(3 -1.72299e-15 0)
(3 5.37503e-15 0)
(3 1.82097e-13 0)
(3 -6.95873e-11 0)
(3 7.7425e-08 0)
(3 -1.31506e-15 0)
(3 -3.89524e-15 0)
(3 1.32995e-15 0)
(3 2.83317e-16 0)
(3 -2.78229e-15 0)
(3 -1.64254e-15 0)
(3 6.18269e-15 0)
(3 1.95928e-13 0)
(3 -7.23838e-11 0)
(3 7.1217e-08 0)
(3 -4.02736e-15 0)
(3 -2.32683e-16 0)
(3 1.24648e-15 0)
(3 -9.69294e-16 0)
(3 -2.16239e-15 0)
(3 1.19107e-15 0)
(3 5.18747e-15 0)
(3 1.98975e-13 0)
(3 -7.47787e-11 0)
(3 7.91574e-08 0)
(3 -2.03549e-15 0)
(3 -6.89191e-16 0)
(3 -3.81466e-15 0)
(3 1.00218e-15 0)
(3 -2.17346e-16 0)
(3 2.45564e-15 0)
(3 5.89701e-15 0)
(3 2.06416e-13 0)
(3 -7.66776e-11 0)
(3 7.90441e-08 0)
(3 1.97343e-15 0)
(3 -3.03457e-15 0)
(3 -3.03371e-15 0)
(3 -8.2225e-16 0)
(3 -3.55793e-15 0)
(3 3.2541e-15 0)
(3 6.60902e-15 0)
(3 2.14813e-13 0)
(3 -7.82398e-11 0)
(3 8.40074e-08 0)
(3 -1.47697e-15 0)
(3 -3.99006e-15 0)
(3 -3.77762e-15 0)
(3 -2.21861e-15 0)
(3 -1.84789e-15 0)
(3 7.56668e-15 0)
(3 6.72145e-15 0)
(3 2.19023e-13 0)
(3 -7.94011e-11 0)
(3 8.11652e-08 0)
(3 -1.97071e-15 0)
(3 -4.35638e-15 0)
(3 -9.47951e-15 0)
(3 -4.52746e-15 0)
(3 5.75908e-16 0)
(3 8.50571e-15 0)
(3 6.91891e-15 0)
(3 2.21916e-13 0)
(3 -8.02853e-11 0)
(3 8.3255e-08 0)
(3 -3.17208e-16 0)
(3 1.28379e-15 0)
(3 1.58617e-15 0)
(3 -2.09118e-15 0)
(3 -4.12386e-15 0)
(3 -5.58375e-15 0)
(3 -3.50888e-15 0)
(3 -2.15577e-13 0)
(3 8.03559e-11 0)
(3 -8.32533e-08 0)
(3 -4.31242e-15 0)
(3 -1.5234e-15 0)
(3 1.32782e-15 0)
(3 -3.05006e-16 0)
(3 -9.51825e-15 0)
(3 -4.09589e-15 0)
(3 -3.69668e-16 0)
(3 -2.11489e-13 0)
(3 7.94761e-11 0)
(3 -8.116e-08 0)
(3 4.18286e-16 0)
(3 -2.8154e-15 0)
(3 3.58985e-16 0)
(3 1.53613e-15 0)
(3 -6.26314e-15 0)
(3 -3.80396e-15 0)
(3 2.53918e-15 0)
(3 -2.02913e-13 0)
(3 7.83047e-11 0)
(3 -8.40001e-08 0)
(3 4.84714e-15 0)
(3 1.17753e-15 0)
(3 -5.46458e-16 0)
(3 -2.22703e-15 0)
(3 -4.96149e-16 0)
(3 -6.17998e-15 0)
(3 1.19262e-15 0)
(3 -1.9684e-13 0)
(3 7.66645e-11 0)
(3 -7.9035e-08 0)
(3 2.28834e-15 0)
(3 2.43064e-15 0)
(3 -5.26317e-15 0)
(3 -4.33684e-15 0)
(3 3.69331e-16 0)
(3 -7.02709e-15 0)
(3 -1.81211e-15 0)
(3 -1.91068e-13 0)
(3 7.46803e-11 0)
(3 -7.91391e-08 0)
(3 -2.98665e-16 0)
(3 -8.81966e-16 0)
(3 -1.81117e-15 0)
(3 -5.35834e-15 0)
(3 -7.87457e-16 0)
(3 -2.56131e-15 0)
(3 -1.69876e-15 0)
(3 -1.86799e-13 0)
(3 7.22049e-11 0)
(3 -7.12041e-08 0)
(3 -1.96615e-15 0)
(3 -8.90608e-16 0)
(3 -1.46574e-15 0)
(3 -1.41489e-15 0)
(3 -2.48989e-15 0)
(3 -1.41383e-15 0)
(3 -2.15727e-15 0)
(3 -1.75361e-13 0)
(3 6.943e-11 0)
(3 -7.74074e-08 0)
(3 -8.49442e-16 0)
(3 -2.86608e-15 0)
(3 2.09729e-16 0)
(3 -8.29345e-16 0)
(3 -3.11799e-15 0)
(3 -2.28953e-15 0)
(3 -2.86635e-15 0)
(3 -1.64668e-13 0)
(3 6.63246e-11 0)
(3 -7.06514e-08 0)
(3 -8.7471e-16 0)
(3 -1.68617e-15 0)
(3 2.26076e-16 0)
(3 -2.36198e-16 0)
(3 5.93465e-16 0)
(3 -4.13347e-15 0)
(3 -3.4557e-15 0)
(3 -1.5446e-13 0)
(3 6.30334e-11 0)
(3 -7.99824e-08 0)
(3 -1.20867e-15 0)
(3 3.73619e-15 0)
(3 -1.73207e-15 0)
(3 9.44956e-17 0)
(3 4.59172e-16 0)
(3 -3.01853e-15 0)
(3 -6.07443e-16 0)
(3 -1.39548e-13 0)
(3 5.94639e-11 0)
(3 -6.55255e-08 0)
(3 -8.41489e-16 0)
(3 5.53059e-15 0)
(3 -7.66047e-16 0)
(3 -2.89523e-15 0)
(3 -3.99411e-15 0)
(3 -1.11798e-15 0)
(3 2.04616e-15 0)
(3 -1.28719e-13 0)
(3 5.57439e-11 0)
(3 -5.4856e-08 0)
(3 -2.12428e-15 0)
(3 2.11973e-15 0)
(3 4.60473e-15 0)
(3 -2.848e-15 0)
(3 9.15266e-16 0)
(3 -1.76973e-15 0)
(3 -2.00433e-15 0)
(3 -1.20867e-13 0)
(3 5.23963e-11 0)
(3 -4.81895e-08 0)
(3 1.68875e-15 0)
(3 1.15907e-15 0)
(3 4.2032e-15 0)
(3 1.46242e-15 0)
(3 1.84715e-15 0)
(3 -3.16938e-16 0)
(3 -1.60265e-15 0)
(3 -1.08593e-13 0)
(3 4.68155e-11 0)
(3 -3.80464e-08 0)
(3 3.84628e-15 0)
(3 -1.67292e-16 0)
(3 1.59203e-15 0)
(3 4.83427e-15 0)
(3 7.60517e-16 0)
(3 -1.05687e-15 0)
(3 -7.06798e-16 0)
(3 -9.312e-14 0)
(3 4.1011e-11 0)
(3 -3.80543e-08 0)
(3 -1.60147e-15 0)
(3 -8.99004e-16 0)
(3 1.32269e-15 0)
(3 1.50317e-15 0)
(3 2.84612e-15 0)
(3 -1.26262e-15 0)
(3 -4.07012e-15 0)
(3 -8.38556e-14 0)
(3 3.55208e-11 0)
(3 -3.04656e-08 0)
(3 -2.11001e-15 0)
(3 3.49842e-15 0)
(3 4.65779e-16 0)
(3 1.1329e-15 0)
(3 1.71587e-15 0)
(3 3.04298e-15 0)
(3 -2.13008e-15 0)
(3 -6.96217e-14 0)
(3 2.96402e-11 0)
(3 -3.82992e-08 0)
(3 -5.85096e-16 0)
(3 2.76298e-16 0)
(3 -1.27674e-15 0)
(3 2.31456e-15 0)
(3 2.29917e-15 0)
(3 5.9156e-16 0)
(3 -4.93194e-16 0)
(3 -5.19265e-14 0)
(3 2.30695e-11 0)
(3 -2.00648e-08 0)
(3 -4.85907e-16 0)
(3 -1.41281e-15 0)
(3 -1.01191e-15 0)
(3 -2.29461e-16 0)
(3 2.06409e-15 0)
(3 -8.39337e-16 0)
(3 2.5032e-16 0)
(3 -3.69387e-14 0)
(3 1.61922e-11 0)
(3 -1.32624e-08 0)
(3 1.89767e-15 0)
(3 2.25724e-16 0)
(3 -4.44744e-15 0)
(3 -2.21679e-15 0)
(3 -1.60985e-15 0)
(3 1.92875e-15 0)
(3 4.59262e-16 0)
(3 -2.30293e-14 0)
(3 1.05976e-11 0)
(3 2.05643e-08 0)
(3 1.37289e-15 0)
(3 1.56713e-17 0)
(3 -3.32092e-15 0)
(3 -2.34589e-15 0)
(3 -3.02099e-15 0)
(3 -1.88402e-16 0)
(3 -1.03387e-15 0)
(3 -7.26465e-15 0)
(3 3.4917e-12 0)
(3 3.54618e-08 0)
(3 -1.37646e-07 0)
(3 -1.39946e-07 0)
(3 -1.67334e-07 0)
(3 -1.72257e-07 0)
(3 -2.13073e-07 0)
(3 -2.37875e-07 0)
(3 -2.88909e-07 0)
(3 -3.58607e-07 0)
(3 -4.40637e-07 0)
(3 -5.83342e-07 0)
(3 -1.42373e-07 0)
(3 -1.44889e-07 0)
(3 -1.74444e-07 0)
(3 -1.80301e-07 0)
(3 -2.24928e-07 0)
(3 -2.47578e-07 0)
(3 -3.12724e-07 0)
(3 -3.5649e-07 0)
(3 -5.3092e-07 0)
(3 1.32058e-06 0)
(3 -1.50787e-07 0)
(3 -1.55769e-07 0)
(3 -1.85986e-07 0)
(3 -1.98482e-07 0)
(3 -2.383e-07 0)
(3 -2.70296e-07 0)
(3 -3.27059e-07 0)
(3 -3.82568e-07 0)
(3 -5.24641e-07 0)
(3.00001 2.36823e-05 0)
(3 -1.48538e-07 0)
(3 -1.57904e-07 0)
(3 -1.85656e-07 0)
(3 -2.06615e-07 0)
(3 -2.4294e-07 0)
(3 -2.84299e-07 0)
(3 -3.38212e-07 0)
(3 -4.03855e-07 0)
(3 -5.52722e-07 0)
(3.00007 0.00016751 0)
(3 -1.45045e-07 0)
(3 -1.58519e-07 0)
(3 -1.83676e-07 0)
(3 -2.10128e-07 0)
(3 -2.43404e-07 0)
(3 -2.89021e-07 0)
(3 -3.43149e-07 0)
(3 -4.13256e-07 0)
(3 -5.60364e-07 0)
(3.00037 0.000848923 0)
(3 -1.42626e-07 0)
(3 -1.56981e-07 0)
(3 -1.82276e-07 0)
(3 -2.08029e-07 0)
(3 -2.4231e-07 0)
(3 -2.88826e-07 0)
(3 -3.44296e-07 0)
(3 -4.19668e-07 0)
(3 -5.75699e-07 0)
(3.00134 0.00189057 0)
(3 -1.32626e-07 0)
(3 -1.52968e-07 0)
(3 -1.69239e-07 0)
(3 -2.04594e-07 0)
(3 -2.29505e-07 0)
(3 -2.84889e-07 0)
(3 -3.34523e-07 0)
(3 -4.17283e-07 0)
(3 -5.68639e-07 0)
(3.00458 0.00320967 0)
(3 -1.41433e-07 0)
(3 -1.5717e-07 0)
(3 -1.818e-07 0)
(3 -2.05338e-07 0)
(3 -2.42456e-07 0)
(3 -2.81975e-07 0)
(3 -3.48251e-07 0)
(3 -4.11189e-07 0)
(3 -6.16802e-07 0)
(3.12113 0.0567112 0)
(3 -1.35753e-07 0)
(3 -1.53924e-07 0)
(3 -1.73172e-07 0)
(3 -2.03218e-07 0)
(3 -2.33469e-07 0)
(3 -2.76829e-07 0)
(3 -3.39054e-07 0)
(3 -4.23245e-07 0)
(3 -3.83369e-06 0)
(2.8877 -0.425049 0)
(3 -1.38186e-07 0)
(3 -1.59391e-07 0)
(3 -1.83994e-07 0)
(3 -2.17292e-07 0)
(3 -2.41602e-07 0)
(3 -3.12093e-07 0)
(3 -3.30211e-07 0)
(3 -4.94324e-07 0)
(3.00003 -0.00115989 0)
(1.98095 -0.750507 0)
(3 -1.17382e-07 0)
(3 -1.44715e-07 0)
(3 -1.57087e-07 0)
(3 -1.9946e-07 0)
(3 -2.08163e-07 0)
(3 -2.78747e-07 0)
(3 -3.25088e-07 0)
(3 -4.55531e-07 0)
(3.02688 -0.0420984 0)
(1.73017 -0.820189 0)
(3 -8.79614e-08 0)
(3 -1.14458e-07 0)
(3 -1.30772e-07 0)
(3 -1.58254e-07 0)
(3 -2.13534e-07 0)
(3 -2.41161e-07 0)
(3 -3.95008e-07 0)
(3 -6.53861e-05 0)
(2.65509 -0.525781 0)
(1.61064 -0.885223 0)
(3 -8.79617e-08 0)
(3 -9.45845e-08 0)
(3 -1.29762e-07 0)
(3 -1.28535e-07 0)
(3 -1.90241e-07 0)
(3 -2.21847e-07 0)
(3 -3.27352e-07 0)
(3.011 -0.0322047 0)
(1.78166 -0.846728 0)
(1.53731 -0.898351 0)
(3 -8.62628e-08 0)
(3 -9.89929e-08 0)
(3 -1.08191e-07 0)
(3 -1.28891e-07 0)
(3 -1.38555e-07 0)
(3 -2.55119e-07 0)
(3 -1.6273e-06 0)
(2.54073 -0.549303 0)
(1.61617 -0.917605 0)
(1.54029 -0.895845 0)
(3 -8.2746e-08 0)
(3 -1.09692e-07 0)
(3 -1.06589e-07 0)
(3 -1.32841e-07 0)
(3 -1.45882e-07 0)
(3 -2.17715e-07 0)
(2.95955 -0.0988615 0)
(1.6882 -0.857874 0)
(1.5545 -0.928405 0)
(1.54878 -0.90509 0)
(3 -7.91778e-08 0)
(3 -8.15106e-08 0)
(3 -1.10928e-07 0)
(3 -1.14884e-07 0)
(3 -1.75607e-07 0)
(2.99998 -1.93498e-05 0)
(2.10313 -0.737171 0)
(1.56206 -0.945894 0)
(1.59522 -0.941394 0)
(1.59695 -0.926364 0)
(3 -1.09689e-07 0)
(3 -1.09252e-07 0)
(3 -1.00646e-07 0)
(3 -1.35584e-06 0)
(3 -1.75733e-07 0)
(2.74746 -0.381132 0)
(1.5393 -0.994445 0)
(1.6124 -0.976852 0)
(1.65821 -0.96823 0)
(1.66132 -0.960085 0)
(3 -8.96045e-08 0)
(3 -3.08913e-06 0)
(3 7.40088e-07 0)
(3.001 0.000724481 0)
(2.93965 -0.109887 0)
(1.89699 -0.973335 0)
(1.59026 -1.02467 0)
(1.67185 -1.00675 0)
(1.71447 -0.971289 0)
(1.71208 -0.972792 0)
(3 -7.28137e-07 0)
(3.00387 0.00416702 0)
(2.92376 -0.0673597 0)
(2.80658 -0.221636 0)
(1.82147 -1.02006 0)
(1.4583 -1.18026 0)
(1.56892 -1.1108 0)
(1.68597 -1.05914 0)
(1.71641 -1.01098 0)
(1.7314 -0.985386 0)
(2.82685 -0.0854204 0)
(2.71503 -0.118618 0)
(2.46245 -0.322582 0)
(2.34754 -0.475321 0)
(1.8334 -0.742172 0)
(1.66184 -0.931962 0)
(1.71847 -1.00131 0)
(1.77807 -1.05773 0)
(1.75475 -1.03109 0)
(1.73096 -1.00932 0)
(2.76853 -0.439897 0)
(2.12986 -0.72444 0)
(2.20499 -0.639141 0)
(2.36986 -0.470968 0)
(2.53919 -0.164116 0)
(2.69612 -0.0701752 0)
(2.77357 0.135556 0)
(2.73551 0.167778 0)
(2.44974 0.535148 0)
(2.09301 0.327747 0)
(2.54428 -0.514054 0)
(2.10159 -0.722693 0)
(2.21519 -0.625735 0)
(2.39772 -0.443415 0)
(2.57394 -0.110636 0)
(2.72832 -0.0204417 0)
(2.77519 0.15399 0)
(2.74271 0.168984 0)
(2.46605 0.520355 0)
(2.07571 0.300532 0)
(2.3931 -0.580301 0)
(2.08924 -0.721724 0)
(2.23828 -0.598737 0)
(2.42322 -0.414554 0)
(2.59137 -0.0729313 0)
(2.74386 0.00759445 0)
(2.77016 0.162384 0)
(2.74548 0.169348 0)
(2.47562 0.50003 0)
(2.05452 0.267977 0)
(2.2217 -0.614249 0)
(2.08204 -0.722971 0)
(2.26325 -0.571669 0)
(2.45119 -0.38426 0)
(2.61221 -0.0285287 0)
(2.76511 0.0610106 0)
(2.7677 0.176903 0)
(2.74816 0.168365 0)
(2.48241 0.478569 0)
(2.04199 0.239129 0)
(2.13893 -0.644627 0)
(2.08456 -0.72344 0)
(2.29713 -0.536985 0)
(2.48701 -0.339461 0)
(2.63354 0.0214913 0)
(2.76822 0.0871605 0)
(2.76619 0.18379 0)
(2.75146 0.161237 0)
(2.48496 0.427343 0)
(2.02737 0.204302 0)
(2.05315 -0.693794 0)
(2.08392 -0.707771 0)
(2.3328 -0.490805 0)
(2.51376 -0.303724 0)
(2.64708 0.0506822 0)
(2.7682 0.113957 0)
(2.77186 0.177832 0)
(2.75631 0.146759 0)
(2.49726 0.367866 0)
(2.02814 0.180981 0)
(1.99126 -0.735946 0)
(2.08792 -0.688433 0)
(2.35378 -0.43842 0)
(2.5426 -0.250663 0)
(2.6725 0.115361 0)
(2.78069 0.147064 0)
(2.77962 0.182022 0)
(2.75642 0.118668 0)
(2.49282 0.284724 0)
(2.03277 0.156912 0)
(1.94653 -0.767298 0)
(2.10291 -0.656708 0)
(2.37609 -0.378946 0)
(2.56249 -0.212518 0)
(2.68479 0.135517 0)
(2.77596 0.163068 0)
(2.78138 0.178825 0)
(2.76127 0.0918122 0)
(2.49748 0.216858 0)
(2.04174 0.141496 0)
(1.90436 -0.786142 0)
(2.12266 -0.62905 0)
(2.41349 -0.30994 0)
(2.60548 -0.138521 0)
(2.7123 0.195551 0)
(2.78787 0.184607 0)
(2.7841 0.178827 0)
(2.75142 0.0598191 0)
(2.49186 0.149746 0)
(2.04544 0.127999 0)
(1.855 -0.807428 0)
(2.16531 -0.593141 0)
(2.44647 -0.252126 0)
(2.63352 -0.0997894 0)
(2.71709 0.206622 0)
(2.78901 0.194554 0)
(2.78631 0.179721 0)
(2.74711 0.0301548 0)
(2.48063 0.0884063 0)
(2.04386 0.118238 0)
(1.86244 -0.806849 0)
(2.23052 -0.560093 0)
(2.51864 -0.164954 0)
(2.70467 -0.00917539 0)
(2.7188 0.256334 0)
(2.79839 0.212134 0)
(2.78834 0.181675 0)
(2.74115 -0.000573132 0)
(2.46618 0.03449 0)
(2.04007 0.110685 0)
(1.88052 -0.78846 0)
(2.28155 -0.511031 0)
(2.54506 -0.112625 0)
(2.73094 0.0466396 0)
(2.71233 0.2535 0)
(2.79434 0.22056 0)
(2.78466 0.17775 0)
(2.72646 -0.0393069 0)
(2.45935 -0.0112303 0)
(2.03595 0.103526 0)
(1.91157 -0.753258 0)
(2.32272 -0.470236 0)
(2.59513 -0.012093 0)
(2.7625 0.134759 0)
(2.72754 0.273298 0)
(2.77933 0.229043 0)
(2.77323 0.163903 0)
(2.71069 -0.0775856 0)
(2.4559 -0.05461 0)
(2.0294 0.1011 0)
(1.96411 -0.724137 0)
(2.38403 -0.41243 0)
(2.62005 0.0424643 0)
(2.77159 0.163293 0)
(2.75495 0.277371 0)
(2.76277 0.231308 0)
(2.75504 0.142269 0)
(2.68683 -0.120186 0)
(2.44053 -0.0901404 0)
(2.01958 0.0981662 0)
(1.99755 -0.692202 0)
(2.45301 -0.329886 0)
(2.68252 0.171661 0)
(2.80909 0.228791 0)
(2.78742 0.27503 0)
(2.75474 0.222821 0)
(2.7303 0.108543 0)
(2.66491 -0.157018 0)
(2.42594 -0.119062 0)
(2.00644 0.0881233 0)
(2.0851 -0.64573 0)
(2.50798 -0.270123 0)
(2.70245 0.217318 0)
(2.81306 0.257488 0)
(2.80224 0.271107 0)
(2.75199 0.201369 0)
(2.7105 0.0637603 0)
(2.64588 -0.19361 0)
(2.42154 -0.146625 0)
(1.98992 0.0820886 0)
(2.14608 -0.583331 0)
(2.61586 -0.0746521 0)
(2.72228 0.323955 0)
(2.82667 0.283133 0)
(2.80974 0.261736 0)
(2.74719 0.16571 0)
(2.69863 0.0247652 0)
(2.64053 -0.214805 0)
(2.42424 -0.164784 0)
(1.97137 0.0786418 0)
(2.22636 -0.473732 0)
(2.69594 -0.052282 0)
(2.71844 0.341606 0)
(2.8433 0.293241 0)
(2.81895 0.251428 0)
(2.74304 0.136785 0)
(2.68856 -0.0131781 0)
(2.6352 -0.235976 0)
(2.42714 -0.179034 0)
(1.9482 0.0769925 0)
(2.31013 -0.268354 0)
(2.84185 0.216612 0)
(2.78164 0.354377 0)
(2.8351 0.311071 0)
(2.8178 0.240797 0)
(2.7341 0.0971101 0)
(2.68281 -0.038383 0)
(2.61573 -0.256784 0)
(2.41582 -0.199955 0)
(1.91054 0.0765288 0)
(2.30366 -0.0898431 0)
(2.82253 0.234003 0)
(2.81766 0.349871 0)
(2.83133 0.314056 0)
(2.81234 0.215629 0)
(2.73836 0.066683 0)
(2.66449 -0.0837855 0)
(2.56232 -0.25049 0)
(2.33671 -0.18015 0)
(1.83769 0.0819354 0)
(3 -3.3064e-09 0)
(3 -4.7796e-09 0)
(3 -3.82727e-08 0)
(3 -8.57424e-09 0)
(2.99889 -0.000496437 0)
(2.86592 -0.0599011 0)
(1.74347 -0.0199428 0)
(1.63911 -0.0181424 0)
(1.78355 -0.00724141 0)
(2.11572 0.00788234 0)
(3 -1.09212e-08 0)
(3 -1.80453e-08 0)
(3 -4.13574e-08 0)
(3 -1.36673e-06 0)
(2.99854 -0.00216502 0)
(2.90852 -0.183138 0)
(1.82968 -0.0335771 0)
(1.71224 -0.0195756 0)
(1.82762 -0.00810733 0)
(2.13637 0.032157 0)
(3 -2.23779e-08 0)
(3 -3.0293e-08 0)
(3 -2.33019e-07 0)
(3 -1.15451e-05 0)
(2.99696 -0.00584841 0)
(2.93315 -0.319374 0)
(1.99466 -0.0630108 0)
(1.87148 -0.0111177 0)
(1.93504 0.0213885 0)
(2.18671 0.0550257 0)
(3 -3.671e-08 0)
(3 -5.36074e-08 0)
(3 -8.56132e-07 0)
(2.99997 -9.25129e-05 0)
(2.99512 -0.0174917 0)
(2.92729 -0.481426 0)
(2.12095 -0.124602 0)
(2.01434 0.00391858 0)
(2.06012 0.0426366 0)
(2.25513 0.0786973 0)
(3 -5.52437e-08 0)
(3 -9.06526e-08 0)
(3 -3.60002e-06 0)
(2.9998 -0.000588532 0)
(2.99689 -0.054144 0)
(2.88333 -0.632058 0)