/*--------------------------------*- C++ -*----------------------------------*\
  =========                 |
  \\      /  F ield         | OpenFOAM: The Open Source CFD Toolbox
   \\    /   O peration     | Website:  https://openfoam.org
    \\  /    A nd           | Version:  8
     \\/     M anipulation  |
\*---------------------------------------------------------------------------*/
FoamFile
{
    version     2.0;
    format      ascii;
    class       volVectorField;
    location    "1.3";
    object      U;
}
// * * * * * * * * * * * * * * * * * * * * * * * * * * * * * * * * * * * * * //

dimensions      [0 1 -1 0 0 0 0];

internalField   nonuniform List<vector> 
2600
(
(2.05809 0.678934 0)
(2.56543 0.280416 0)
(2.74484 0.34923 0)
(2.80669 0.313003 0)
(2.80037 0.181055 0)
(2.74275 0.0273607 0)
(2.63341 -0.102267 0)
(2.46585 -0.265415 0)
(2.10085 -0.196502 0)
(1.71392 0.0816016 0)
(1.45647 0.107306 0)
(2.08848 0.14408 0)
(2.53177 0.29641 0)
(2.72406 0.276765 0)
(2.76889 0.134127 0)
(2.73645 -0.00952279 0)
(2.56144 -0.116004 0)
(2.26224 -0.23757 0)
(1.71268 -0.13882 0)
(1.52929 0.0852933 0)
(0.706197 0.0630668 0)
(1.44279 0.214702 0)
(2.11908 0.291413 0)
(2.50885 0.261637 0)
(2.66419 0.107 0)
(2.66012 -0.0110369 0)
(2.41186 -0.124653 0)
(1.87979 -0.212642 0)
(1.19767 -0.170329 0)
(1.28791 0.0726451 0)
(0.204926 -0.0766855 0)
(0.818435 0.0753432 0)
(1.55876 0.191292 0)
(2.11947 0.200653 0)
(2.42886 0.0782264 0)
(2.41076 -0.0330382 0)
(2.08136 -0.122297 0)
(1.33024 -0.160338 0)
(0.702547 -0.0729848 0)
(1.01261 0.0564844 0)
(-0.00978577 -0.0857173 0)
(0.341897 0.035072 0)
(0.951961 0.138224 0)
(1.56328 0.155323 0)
(2.00034 0.0559528 0)
(1.92069 -0.0361508 0)
(1.51812 -0.0929406 0)
(0.738293 -0.0937497 0)
(0.284381 -0.10276 0)
(0.725363 0.0412014 0)
(-0.102425 -0.0868607 0)
(0.0532461 -0.0116614 0)
(0.422655 0.066619 0)
(0.931536 0.0974445 0)
(1.36377 0.0375301 0)
(1.25278 -0.0280562 0)
(0.855067 -0.0789682 0)
(0.239277 -0.0568293 0)
(-0.032517 -0.0507852 0)
(0.457119 0.0236176 0)
(-0.14868 -0.0730971 0)
(-0.110701 -0.0261733 0)
(0.0352755 0.0375029 0)
(0.355572 0.053483 0)
(0.670962 0.0241768 0)
(0.595776 -0.0314836 0)
(0.313149 -0.0299641 0)
(-0.10793 -0.0280682 0)
(-0.25374 -0.0565499 0)
(0.23806 0.019609 0)
(-0.172739 -0.0589697 0)
(-0.199798 -0.0357768 0)
(-0.199814 0.00237098 0)
(-0.0563115 0.014813 0)
(0.149684 0.0139595 0)
(0.139955 -0.0126765 0)
(-0.0206524 -0.0266816 0)
(-0.309263 -0.0142684 0)
(-0.388476 -0.0344886 0)
(0.0632561 0.027236 0)
(-0.178137 -0.0344171 0)
(-0.245702 -0.0353042 0)
(-0.309857 -0.00687824 0)
(-0.261198 0.00980485 0)
(-0.111304 0.0153328 0)
(-0.075585 -0.0169529 0)
(-0.170466 -0.0139661 0)
(-0.402711 -0.0068414 0)
(-0.463445 -0.0277817 0)
(-0.11707 0.0501262 0)
(-0.181973 -0.0137588 0)
(-0.261604 -0.0122679 0)
(-0.339991 -0.0013517 0)
(-0.317003 0.00651106 0)
(-0.184428 0.00790055 0)
(-0.132594 -0.0068458 0)
(-0.209457 -0.0110987 0)
(-0.432125 -0.00187984 0)
(-0.492016 -0.00852249 0)
(-0.193209 0.0165765 0)
(-0.181597 0.0121996 0)
(-0.261509 0.0133208 0)
(-0.339875 0.00415258 0)
(-0.31684 0.00163865 0)
(-0.183615 -0.00390384 0)
(-0.131527 0.00131662 0)
(-0.209644 -0.00599289 0)
(-0.432467 0.00964869 0)
(-0.49225 0.013067 0)
(-0.192983 -0.0163499 0)
(-0.178134 0.0328641 0)
(-0.2456 0.0361228 0)
(-0.309549 0.0106128 0)
(-0.259791 0.000312723 0)
(-0.105775 -0.00853281 0)
(-0.0673371 0.00687362 0)
(-0.169511 -0.00132897 0)
(-0.405925 0.0158192 0)
(-0.464467 0.0333353 0)
(-0.116021 -0.0489107 0)
(-0.172938 0.0577394 0)
(-0.199795 0.036728 0)
(-0.199936 0.00201235 0)
(-0.0541725 -0.00722032 0)
(0.165446 -0.0161197 0)
(0.160772 0.00338112 0)
(-0.0174409 0.00762404 0)
(-0.318268 0.0195163 0)
(-0.390777 0.0405426 0)
(0.0656105 -0.026087 0)
(-0.148748 0.0725913 0)
(-0.111216 0.0271801 0)
(0.0336217 -0.0341828 0)
(0.356318 -0.0480455 0)
(0.698882 -0.0181376 0)
(0.630385 0.028605 0)
(0.316777 0.02378 0)
(-0.12685 0.0359401 0)
(-0.258038 0.0618687 0)
(0.241917 -0.0179469 0)
(-0.102454 0.0864045 0)
(0.051937 0.0127461 0)
(0.419413 -0.063587 0)
(0.929924 -0.0913805 0)
(1.39738 -0.0396218 0)
(1.29321 0.0195627 0)
(0.855502 0.062296 0)
(0.209365 0.0558871 0)
(-0.0397757 0.0554393 0)
(0.462224 -0.0226149 0)
(-0.00995459 0.086779 0)
(0.339547 -0.0338865 0)
(0.947761 -0.136425 0)
(1.56031 -0.15282 0)
(2.02868 -0.0549763 0)
(1.95155 0.0279097 0)
(1.5107 0.0955458 0)
(0.698742 0.101033 0)
(0.274039 0.106094 0)
(0.731148 -0.0399336 0)
(0.204876 0.0770024 0)
(0.815446 -0.0737082 0)
(1.55541 -0.188858 0)
(2.11751 -0.201197 0)
(2.44451 -0.0765014 0)
(2.42834 0.0257211 0)
(2.07164 0.121089 0)
(1.28827 0.155016 0)
(0.690357 0.0783605 0)
(1.01845 -0.0562154 0)
(0.707922 -0.0616687 0)
(1.44063 -0.212874 0)
(2.11696 -0.29025 0)
(2.50913 -0.261012 0)
(2.66972 -0.109225 0)
(2.66997 0.00450019 0)
(2.4016 0.127015 0)
(1.84199 0.218853 0)
(1.18695 0.170645 0)
(1.29372 -0.0728362 0)
(1.45848 -0.107219 0)
(2.08714 -0.143854 0)
(2.53046 -0.294868 0)
(2.72506 -0.276296 0)
(2.77179 -0.141418 0)
(2.74268 0.00233885 0)
(2.55012 0.120434 0)
(2.23902 0.239672 0)
(1.70595 0.14042 0)
(1.53513 -0.0866495 0)
(2.05662 -0.67818 0)
(2.56457 -0.278985 0)
(2.74325 -0.347898 0)
(2.808 -0.311829 0)
(2.80302 -0.187304 0)
(2.74493 -0.0343999 0)
(2.62211 0.104141 0)
(2.45279 0.268645 0)
(2.10066 0.196529 0)
(1.71995 -0.0833754 0)
(2.30308 0.0897364 0)
(2.82173 -0.233024 0)
(2.81622 -0.348142 0)
(2.83252 -0.314269 0)
(2.81431 -0.219404 0)
(2.73849 -0.0704875 0)
(2.65586 0.08637 0)
(2.55598 0.253663 0)
(2.33918 0.180464 0)
(1.84191 -0.0837093 0)
(2.3099 0.268257 0)
(2.84175 -0.215883 0)
(2.78091 -0.352519 0)
(2.83603 -0.310965 0)
(2.81861 -0.24315 0)
(2.73441 -0.100404 0)
(2.67574 0.0407601 0)
(2.61191 0.259669 0)
(2.41901 0.200058 0)
(1.91361 -0.0780355 0)
(2.22612 0.473754 0)
(2.69677 0.0522254 0)
(2.71786 -0.340438 0)
(2.84389 -0.293319 0)
(2.82019 -0.253687 0)
(2.7443 -0.140282 0)
(2.68359 0.0144396 0)
(2.63303 0.238162 0)
(2.42915 0.179223 0)
(1.94997 -0.0784766 0)
(2.14597 0.583333 0)
(2.61643 0.0746579 0)
(2.72236 -0.322716 0)
(2.82706 -0.283425 0)
(2.81079 -0.263523 0)
(2.74854 -0.168567 0)
(2.69501 -0.0219486 0)
(2.63924 0.217131 0)
(2.42549 0.164793 0)
(1.97234 -0.0797864 0)
(2.08507 0.64572 0)
(2.50804 0.270218 0)
(2.70284 -0.217045 0)
(2.81372 -0.257719 0)
(2.80306 -0.272532 0)
(2.75304 -0.203989 0)
(2.70854 -0.0623421 0)
(2.64524 0.195395 0)
(2.42233 0.146019 0)
(1.99044 -0.0831881 0)
(1.99747 0.692224 0)
(2.45305 0.32975 0)
(2.68262 -0.170977 0)
(2.80947 -0.228541 0)
(2.78787 -0.276629 0)
(2.75532 -0.225016 0)
(2.72896 -0.107051 0)
(2.66405 0.15911 0)
(2.42632 0.117658 0)
(2.00674 -0.0891348 0)
(1.96408 0.724134 0)
(2.38398 0.412394 0)
(2.61988 -0.0420196 0)
(2.77282 -0.163253 0)
(2.75529 -0.278976 0)
(2.76284 -0.233322 0)
(2.75405 -0.141811 0)
(2.68604 0.122193 0)
(2.44112 0.0885735 0)
(2.01983 -0.0989568 0)
(1.91155 0.753264 0)
(2.32273 0.470105 0)
(2.59493 0.0126095 0)
(2.76335 -0.135703 0)
(2.72776 -0.274525 0)
(2.77884 -0.230654 0)
(2.77221 -0.163951 0)
(2.70979 0.0799521 0)
(2.45662 0.0532119 0)
(2.02963 -0.101796 0)
(1.88054 0.788465 0)
(2.28143 0.511031 0)
(2.54499 0.112801 0)
(2.73086 -0.04591 0)
(2.71306 -0.25548 0)
(2.79386 -0.22178 0)
(2.78374 -0.178245 0)
(2.72566 0.0417682 0)
(2.46035 0.010189 0)
(2.03622 -0.104223 0)
(1.86243 0.806872 0)
(2.23056 0.560015 0)
(2.51847 0.165226 0)
(2.70522 0.00906372 0)
(2.71958 -0.257827 0)
(2.79804 -0.213468 0)
(2.78761 -0.182376 0)
(2.74041 0.00316792 0)
(2.46729 -0.0352874 0)
(2.04038 -0.111364 0)
(1.85502 0.807441 0)
(2.16523 0.593185 0)
(2.44639 0.252279 0)
(2.63359 0.100195 0)
(2.71764 -0.207556 0)
(2.78869 -0.195702 0)
(2.78579 -0.180543 0)
(2.74647 -0.0277488 0)
(2.48139 -0.0889054 0)
(2.0442 -0.118894 0)
(1.9044 0.786147 0)
(2.12259 0.629035 0)
(2.41346 0.310031 0)
(2.60552 0.138815 0)
(2.71287 -0.196083 0)
(2.78781 -0.18581 0)
(2.7838 -0.179633 0)
(2.75087 -0.0577918 0)
(2.49229 -0.150049 0)
(2.04566 -0.12855 0)
(1.94658 0.767302 0)
(2.10296 0.656653 0)
(2.37584 0.379211 0)
(2.56299 0.212278 0)
(2.68521 -0.135734 0)
(2.77581 -0.164162 0)
(2.78106 -0.179606 0)
(2.76096 -0.0903354 0)
(2.49768 -0.216989 0)
(2.04176 -0.141955 0)
(1.9913 0.735948 0)
(2.08812 0.688372 0)
(2.35368 0.438444 0)
(2.54287 0.250961 0)
(2.67289 -0.115562 0)
(2.78047 -0.148135 0)
(2.7792 -0.182692 0)
(2.75627 -0.117633 0)
(2.49299 -0.284525 0)
(2.03267 -0.157328 0)
(2.05319 0.693794 0)
(2.08387 0.707701 0)
(2.33259 0.490925 0)
(2.51391 0.303964 0)
(2.64762 -0.0511394 0)
(2.76818 -0.114529 0)
(2.77155 -0.177978 0)
(2.75596 -0.145967 0)
(2.49776 -0.367667 0)
(2.02798 -0.181245 0)
(2.13899 0.644594 0)
(2.08443 0.723495 0)
(2.29717 0.53702 0)
(2.48709 0.339696 0)
(2.63366 -0.0212173 0)
(2.7682 -0.0871683 0)
(2.76573 -0.183942 0)
(2.75119 -0.160618 0)
(2.48531 -0.427511 0)
(2.02721 -0.204457 0)
(2.22171 0.614197 0)
(2.08207 0.723121 0)
(2.26322 0.571844 0)
(2.45141 0.384218 0)
(2.6124 0.0281269 0)
(2.76527 -0.0617279 0)
(2.76718 -0.176722 0)
(2.74789 -0.167787 0)
(2.48258 -0.478781 0)
(2.04206 -0.239288 0)
(2.39309 0.580283 0)
(2.08924 0.721806 0)
(2.23831 0.598804 0)
(2.42313 0.414948 0)
(2.59128 0.0729365 0)
(2.74401 -0.00785243 0)
(2.76986 -0.162293 0)
(2.74518 -0.168977 0)
(2.47549 -0.499927 0)
(2.05458 -0.267949 0)
(2.54428 0.514064 0)
(2.10166 0.722662 0)
(2.21515 0.625808 0)
(2.39785 0.443356 0)
(2.57383 0.110537 0)
(2.72832 0.0206737 0)
(2.77477 -0.153144 0)
(2.74238 -0.168335 0)
(2.46615 -0.520262 0)
(2.07603 -0.300661 0)
(2.76858 0.439932 0)
(2.12989 0.724373 0)
(2.20496 0.63911 0)
(2.36967 0.471178 0)
(2.53928 0.163933 0)
(2.69667 0.0698437 0)
(2.77358 -0.13582 0)
(2.73528 -0.167714 0)
(2.44984 -0.535183 0)
(2.09319 -0.328205 0)
(2.82685 0.0854204 0)
(2.71503 0.118618 0)
(2.46245 0.322582 0)
(2.34754 0.475322 0)
(1.8334 0.742172 0)
(1.66184 0.931962 0)
(1.71847 1.00131 0)
(1.77807 1.05774 0)
(1.75475 1.03109 0)
(1.73097 1.00932 0)
(3 7.28121e-07 0)
(3.00387 -0.00416702 0)
(2.92376 0.0673597 0)
(2.80658 0.221636 0)
(1.82147 1.02006 0)
(1.4583 1.18026 0)
(1.56892 1.1108 0)
(1.68598 1.05914 0)
(1.71641 1.01099 0)
(1.7314 0.985389 0)
(3 8.95941e-08 0)
(3 3.08907e-06 0)
(3 -7.40122e-07 0)
(3.001 -0.000724485 0)
(2.93965 0.109887 0)
(1.897 0.973334 0)
(1.59026 1.02467 0)
(1.67186 1.00676 0)
(1.71448 0.971293 0)
(1.71208 0.972796 0)
(3 1.0971e-07 0)
(3 1.09296e-07 0)
(3 1.00683e-07 0)
(3 1.35584e-06 0)
(3 1.75737e-07 0)
(2.74746 0.381129 0)
(1.5393 0.994448 0)
(1.61241 0.976858 0)
(1.65822 0.968238 0)
(1.66133 0.960088 0)
(3 7.91655e-08 0)
(3 8.15315e-08 0)
(3 1.10988e-07 0)
(3 1.14893e-07 0)
(3 1.75611e-07 0)
(2.99998 1.92442e-05 0)
(2.10316 0.737162 0)
(1.56208 0.945896 0)
(1.59523 0.941395 0)
(1.59696 0.926368 0)
(3 8.27205e-08 0)
(3 1.09661e-07 0)
(3 1.06601e-07 0)
(3 1.3281e-07 0)
(3 1.4583e-07 0)
(3 2.17716e-07 0)
(2.95956 0.098852 0)
(1.68821 0.857876 0)
(1.55452 0.928409 0)
(1.54879 0.905093 0)
(3 8.62212e-08 0)
(3 9.89436e-08 0)
(3 1.08179e-07 0)
(3 1.28866e-07 0)
(3 1.38497e-07 0)
(3 2.55074e-07 0)
(3 1.6273e-06 0)
(2.54078 0.549261 0)
(1.6162 0.9176 0)
(1.54029 0.895851 0)
(3 8.79425e-08 0)
(3 9.45675e-08 0)
(3 1.29775e-07 0)
(3 1.28567e-07 0)
(3 1.90225e-07 0)
(3 2.21842e-07 0)
(3 3.27358e-07 0)
(3.011 0.0321958 0)
(1.78168 0.846728 0)
(1.53731 0.898356 0)
(3 8.79546e-08 0)
(3 1.14439e-07 0)
(3 1.30777e-07 0)
(3 1.58289e-07 0)
(3 2.13517e-07 0)
(3 2.41143e-07 0)
(3 3.95013e-07 0)
(3 6.53476e-05 0)
(2.65515 0.525736 0)
(1.61066 0.885224 0)
(3 1.17402e-07 0)
(3 1.44716e-07 0)
(3 1.57109e-07 0)
(3 1.99506e-07 0)
(3 2.0819e-07 0)
(3 2.78768e-07 0)
(3 3.25111e-07 0)
(3 4.55552e-07 0)
(3.02688 0.042088 0)
(1.73019 0.820194 0)
(3 1.38196e-07 0)
(3 1.59388e-07 0)
(3 1.84002e-07 0)
(3 2.17318e-07 0)
(3 2.4161e-07 0)
(3 3.1209e-07 0)
(3 3.30207e-07 0)
(3 4.9434e-07 0)
(3.00003 0.00115923 0)
(1.98101 0.750494 0)
(3 1.35779e-07 0)
(3 1.53948e-07 0)
(3 1.73194e-07 0)
(3 2.0325e-07 0)
(3 2.33519e-07 0)
(3 2.76841e-07 0)
(3 3.39082e-07 0)
(3 4.23246e-07 0)
(3 3.83087e-06 0)
(2.88776 0.424976 0)
(3 1.41447e-07 0)
(3 1.57184e-07 0)
(3 1.81814e-07 0)
(3 2.0537e-07 0)
(3 2.42479e-07 0)
(3 2.81997e-07 0)
(3 3.48258e-07 0)
(3 4.11212e-07 0)
(3 6.16824e-07 0)
(3.1211 -0.0567256 0)
(3 1.3266e-07 0)
(3 1.53003e-07 0)
(3 1.69273e-07 0)
(3 2.04637e-07 0)
(3 2.29548e-07 0)
(3 2.84919e-07 0)
(3 3.34543e-07 0)
(3 4.17301e-07 0)
(3 5.68683e-07 0)
(3.00458 -0.00320689 0)
(3 1.42661e-07 0)
(3 1.57016e-07 0)
(3 1.82309e-07 0)
(3 2.08069e-07 0)
(3 2.42343e-07 0)
(3 2.88844e-07 0)
(3 3.44301e-07 0)
(3 4.19669e-07 0)
(3 5.75722e-07 0)
(3.00134 -0.00188938 0)
(3 1.45084e-07 0)
(3 1.58559e-07 0)
(3 1.83703e-07 0)
(3 2.10163e-07 0)
(3 2.43426e-07 0)
(3 2.89027e-07 0)
(3 3.43132e-07 0)
(3 4.13238e-07 0)
(3 5.60371e-07 0)
(3.00037 -0.000848362 0)
(3 1.4857e-07 0)
(3 1.57936e-07 0)
(3 1.85672e-07 0)
(3 2.06634e-07 0)
(3 2.4294e-07 0)
(3 2.84289e-07 0)
(3 3.38178e-07 0)
(3 4.03819e-07 0)
(3 5.52711e-07 0)
(3.00007 -0.000167464 0)
(3 1.50817e-07 0)
(3 1.558e-07 0)
(3 1.85997e-07 0)
(3 1.98495e-07 0)
(3 2.38285e-07 0)
(3 2.70277e-07 0)
(3 3.27011e-07 0)
(3 3.82529e-07 0)
(3 5.24626e-07 0)
(3.00001 -2.36846e-05 0)
(3 1.42403e-07 0)
(3 1.44917e-07 0)
(3 1.74453e-07 0)
(3 1.8031e-07 0)
(3 2.24902e-07 0)
(3 2.47562e-07 0)
(3 3.12669e-07 0)
(3 3.56461e-07 0)
(3 5.30902e-07 0)
(3 -1.32141e-06 0)
(3 1.37668e-07 0)
(3 1.39966e-07 0)
(3 1.67336e-07 0)
(3 1.7226e-07 0)
(3 2.13038e-07 0)
(3 2.37866e-07 0)
(3 2.88837e-07 0)
(3 3.58605e-07 0)
(3 4.40625e-07 0)
(3 5.83289e-07 0)
(3 4.29193e-14 0)
(3 1.12627e-13 0)
(3 1.19442e-13 0)
(3 -1.76716e-13 0)
(3 -1.22514e-13 0)
(3 -5.2512e-14 0)
(3 2.02973e-13 0)
(3 1.613e-13 0)
(3 -3.54661e-12 0)
(3 -3.54894e-08 0)
(3 -1.19394e-13 0)
(3 -1.41543e-13 0)
(3 9.07966e-14 0)
(3 -1.76159e-14 0)
(3 -1.606e-13 0)
(3 6.69424e-14 0)
(3 1.98894e-13 0)
(3 -9.6752e-14 0)
(3 -1.09454e-11 0)
(3 -2.05835e-08 0)
(3 -1.30892e-13 0)
(3 -6.20411e-14 0)
(3 -6.20258e-14 0)
(3 7.74589e-15 0)
(3 -3.49273e-14 0)
(3 1.33859e-13 0)
(3 9.88998e-15 0)
(3 -1.52459e-13 0)
(3 -1.61888e-11 0)
(3 1.32279e-08 0)
(3 1.41895e-14 0)
(3 4.75728e-14 0)
(3 -1.16005e-13 0)
(3 -9.09753e-14 0)
(3 -1.55749e-13 0)
(3 -3.87003e-15 0)
(3 1.33769e-13 0)
(3 -1.76232e-14 0)
(3 -2.28673e-11 0)
(3 2.00206e-08 0)
(3 8.26527e-14 0)
(3 2.50509e-14 0)
(3 -5.39537e-14 0)
(3 -1.57673e-13 0)
(3 -7.86823e-14 0)
(3 -8.72663e-14 0)
(3 -1.10849e-13 0)
(3 1.84503e-14 0)
(3 -2.95385e-11 0)
(3 3.82825e-08 0)
(3 6.87585e-14 0)
(3 1.12462e-14 0)
(3 -9.1934e-14 0)
(3 1.23615e-14 0)
(3 1.30722e-13 0)
(3 -2.62305e-14 0)
(3 -3.65716e-13 0)
(3 -4.56665e-14 0)
(3 -3.56624e-11 0)
(3 3.04845e-08 0)
(3 2.2788e-14 0)
(3 -6.65871e-14 0)
(3 -4.91734e-14 0)
(3 9.42726e-14 0)
(3 1.44256e-13 0)
(3 2.8119e-14 0)
(3 -1.41436e-13 0)
(3 2.01932e-14 0)
(3 -4.11323e-11 0)
(3 3.80488e-08 0)
(3 -4.49711e-14 0)
(3 -3.31332e-14 0)
(3 9.55382e-14 0)
(3 1.82903e-13 0)
(3 2.36593e-13 0)
(3 1.18014e-13 0)
(3 1.10054e-13 0)
(3 2.28636e-13 0)
(3 -4.69312e-11 0)
(3 3.8047e-08 0)
(3 -1.03793e-13 0)
(3 6.20106e-14 0)
(3 1.00313e-13 0)
(3 1.94222e-13 0)
(3 1.69225e-13 0)
(3 7.46089e-15 0)
(3 1.66283e-13 0)
(3 2.815e-13 0)
(3 -5.19595e-11 0)
(3 4.8194e-08 0)
(3 -1.18141e-13 0)
(3 -3.58705e-14 0)
(3 -2.96107e-14 0)
(3 -7.99608e-14 0)
(3 -6.53938e-14 0)
(3 -1.73644e-13 0)
(3 1.24242e-13 0)
(3 2.77313e-13 0)
(3 -5.53038e-11 0)
(3 5.48571e-08 0)
(3 6.68866e-15 0)
(3 -1.76783e-13 0)
(3 -1.54969e-13 0)
(3 -3.72097e-14 0)
(3 2.91837e-14 0)
(3 -1.03612e-13 0)
(3 9.52927e-15 0)
(3 2.06101e-13 0)
(3 -5.92879e-11 0)
(3 6.55337e-08 0)
(3 -4.06632e-15 0)
(3 -1.62766e-13 0)
(3 -1.19559e-13 0)
(3 1.63342e-13 0)
(3 1.64031e-13 0)
(3 6.77013e-14 0)
(3 -1.6474e-14 0)
(3 1.67145e-13 0)
(3 -6.26412e-11 0)
(3 7.99916e-08 0)
(3 -3.52819e-14 0)
(3 -6.53621e-14 0)
(3 3.77639e-14 0)
(3 6.53022e-14 0)
(3 9.60673e-14 0)
(3 1.65417e-13 0)
(3 -1.49869e-13 0)
(3 2.22657e-13 0)
(3 -6.63039e-11 0)
(3 7.0663e-08 0)
(3 3.14279e-14 0)
(3 -5.42842e-14 0)
(3 -1.35377e-14 0)
(3 -1.1954e-13 0)
(3 -2.50826e-15 0)
(3 4.1039e-14 0)
(3 -2.40264e-13 0)
(3 2.0142e-13 0)
(3 -6.94519e-11 0)
(3 7.74304e-08 0)
(3 -1.14595e-14 0)
(3 4.15142e-14 0)
(3 1.22204e-14 0)
(3 9.13244e-14 0)
(3 -6.4789e-14 0)
(3 -8.69656e-15 0)
(3 -4.21578e-14 0)
(3 3.29973e-13 0)
(3 -7.20534e-11 0)
(3 7.12303e-08 0)
(3 4.51013e-14 0)
(3 7.07366e-14 0)
(3 1.50753e-13 0)
(3 1.12706e-13 0)
(3 -7.60696e-14 0)
(3 -5.90442e-14 0)
(3 2.63471e-14 0)
(3 3.78867e-13 0)
(3 -7.47393e-11 0)
(3 7.91785e-08 0)
(3 2.9305e-14 0)
(3 7.33742e-15 0)
(3 6.46287e-14 0)
(3 4.74717e-14 0)
(3 5.25589e-14 0)
(3 1.41608e-13 0)
(3 1.29129e-13 0)
(3 2.99252e-13 0)
(3 -7.67874e-11 0)
(3 7.90718e-08 0)
(3 -6.32275e-15 0)
(3 -3.40337e-14 0)
(3 -6.28728e-14 0)
(3 1.30486e-13 0)
(3 2.4934e-13 0)
(3 2.49936e-13 0)
(3 1.71177e-13 0)
(3 1.76872e-13 0)
(3 -7.80221e-11 0)
(3 8.40364e-08 0)
(3 6.76577e-14 0)
(3 8.84022e-14 0)
(3 -5.09571e-15 0)
(3 9.93424e-14 0)
(3 1.95599e-13 0)
(3 1.06224e-13 0)
(3 1.56628e-13 0)
(3 3.18461e-13 0)
(3 -7.90859e-11 0)
(3 8.11911e-08 0)
(3 8.17012e-15 0)
(3 1.67573e-13 0)
(3 1.72571e-13 0)
(3 7.29039e-14 0)
(3 3.66009e-14 0)
(3 2.26549e-13 0)
(3 3.12864e-13 0)
(3 4.68412e-13 0)
(3 -8.01158e-11 0)
(3 8.32714e-08 0)
(3 -5.23543e-14 0)
(3 -1.0215e-13 0)
(3 -1.55588e-13 0)
(3 -7.60551e-14 0)
(3 -1.3892e-13 0)
(3 1.16955e-13 0)
(3 2.64563e-13 0)
(3 1.44698e-13 0)
(3 8.09321e-11 0)
(3 -8.32506e-08 0)
(3 -2.46989e-14 0)
(3 -2.37493e-13 0)
(3 -9.19785e-14 0)
(3 -1.0089e-13 0)
(3 -3.70279e-14 0)
(3 7.05718e-14 0)
(3 1.78396e-13 0)
(3 1.15744e-14 0)
(3 7.99319e-11 0)
(3 -8.11579e-08 0)
(3 -1.58719e-14 0)
(3 -2.71064e-13 0)
(3 -1.25197e-13 0)
(3 -1.43439e-13 0)
(3 -1.21463e-13 0)
(3 5.49403e-14 0)
(3 2.35949e-13 0)
(3 5.30579e-14 0)
(3 7.85564e-11 0)
(3 -8.39986e-08 0)
(3 -2.23466e-14 0)
(3 -4.39778e-14 0)
(3 -8.39336e-14 0)
(3 -4.66926e-14 0)
(3 -1.13532e-13 0)
(3 3.48396e-14 0)
(3 9.49605e-14 0)
(3 4.23283e-14 0)
(3 7.69247e-11 0)
(3 -7.90329e-08 0)
(3 -6.17801e-15 0)
(3 9.91964e-14 0)
(3 5.55796e-14 0)
(3 1.16707e-13 0)
(3 3.24186e-14 0)
(3 -1.6749e-15 0)
(3 3.53706e-14 0)
(3 -1.39882e-13 0)
(3 7.4981e-11 0)
(3 -7.91382e-08 0)
(3 4.1054e-14 0)
(3 2.85367e-14 0)
(3 -2.00518e-14 0)
(3 1.43669e-14 0)
(3 7.99139e-14 0)
(3 5.99144e-14 0)
(3 1.14368e-13 0)
(3 -1.53584e-13 0)
(3 7.21595e-11 0)
(3 -7.12036e-08 0)
(3 2.16025e-14 0)
(3 -1.52725e-13 0)
(3 -2.26667e-13 0)
(3 -6.9889e-14 0)
(3 8.24152e-14 0)
(3 4.84109e-15 0)
(3 1.61987e-13 0)
(3 -3.32496e-14 0)
(3 6.96707e-11 0)
(3 -7.74079e-08 0)
(3 3.33394e-14 0)
(3 -1.53266e-13 0)
(3 -1.53537e-13 0)
(3 -2.09314e-14 0)
(3 -1.14343e-13 0)
(3 -1.27717e-13 0)
(3 1.1594e-13 0)
(3 2.46008e-13 0)
(3 6.65214e-11 0)
(3 -7.06514e-08 0)
(3 -6.9468e-14 0)
(3 -6.74707e-14 0)
(3 -4.69754e-14 0)
(3 3.42253e-14 0)
(3 -9.73589e-14 0)
(3 -3.28483e-14 0)
(3 1.93559e-14 0)
(3 1.66363e-13 0)
(3 6.34048e-11 0)
(3 -7.99814e-08 0)
(3 -1.16485e-14 0)
(3 -6.58335e-15 0)
(3 -5.12249e-14 0)
(3 -1.16165e-14 0)
(3 -3.36143e-14 0)
(3 -4.03405e-14 0)
(3 -1.23294e-13 0)
(3 -2.75457e-14 0)
(3 5.96832e-11 0)
(3 -6.55241e-08 0)
(3 3.40145e-14 0)
(3 6.482e-14 0)
(3 1.02315e-14 0)
(3 -3.6078e-14 0)
(3 7.31616e-14 0)
(3 -1.66694e-13 0)
(3 -1.32583e-13 0)
(3 -2.36183e-13 0)
(3 5.54609e-11 0)
(3 -5.4854e-08 0)
(3 2.65247e-14 0)
(3 5.5458e-14 0)
(3 9.50563e-14 0)
(3 1.48268e-13 0)
(3 1.97979e-13 0)
(3 1.22461e-13 0)
(3 -1.5252e-13 0)
(3 -4.25878e-13 0)
(3 5.22055e-11 0)
(3 -4.81865e-08 0)
(3 2.3151e-15 0)
(3 -7.83341e-15 0)
(3 -1.78285e-14 0)
(3 8.51382e-14 0)
(3 1.42539e-13 0)
(3 1.56515e-13 0)
(3 2.20905e-14 0)
(3 -1.36429e-13 0)
(3 4.67595e-11 0)
(3 -3.80433e-08 0)
(3 -2.08538e-14 0)
(3 7.95005e-14 0)
(3 -4.25869e-14 0)
(3 -4.04316e-14 0)
(3 6.69338e-14 0)
(3 -1.73254e-14 0)
(3 1.36679e-13 0)
(3 1.05783e-13 0)
(3 4.09837e-11 0)
(3 -3.80502e-08 0)
(3 3.77777e-14 0)
(3 1.06895e-13 0)
(3 7.81016e-14 0)
(3 5.33144e-14 0)
(3 2.23525e-14 0)
(3 -2.86444e-13 0)
(3 2.45219e-14 0)
(3 -1.13233e-13 0)
(3 3.55769e-11 0)
(3 -3.04671e-08 0)
(3 7.64259e-14 0)
(3 -5.52536e-14 0)
(3 3.353e-14 0)
(3 8.62922e-14 0)
(3 -5.43607e-14 0)
(3 -1.55719e-13 0)
(3 -1.58716e-13 0)
(3 -2.15288e-13 0)
(3 2.96028e-11 0)
(3 -3.82928e-08 0)
(3 4.05087e-14 0)
(3 -2.53387e-14 0)
(3 -3.76126e-14 0)
(3 1.62123e-14 0)
(3 -4.96203e-14 0)
(3 1.39378e-14 0)
(3 -2.33369e-13 0)
(3 -1.99296e-14 0)
(3 2.31804e-11 0)
(3 -2.00662e-08 0)
(3 -4.50936e-14 0)
(3 1.01927e-13 0)
(3 -1.94399e-14 0)
(3 1.84986e-14 0)
(3 4.3186e-15 0)
(3 -1.85975e-13 0)
(3 -2.38792e-13 0)
(3 5.11952e-15 0)
(3 1.6408e-11 0)
(3 -1.32624e-08 0)
(3 -2.32887e-14 0)
(3 1.12271e-13 0)
(3 7.49665e-14 0)
(3 8.63154e-14 0)
(3 3.44906e-14 0)
(3 -1.32803e-13 0)
(3 -3.50344e-15 0)
(3 1.20898e-13 0)
(3 1.07952e-11 0)
(3 2.05606e-08 0)
(3 7.709e-14 0)
(3 8.61323e-14 0)
(3 9.46349e-14 0)
(3 -8.43851e-14 0)
(3 8.54609e-14 0)
(3 -3.09056e-14 0)
(3 1.01301e-13 0)
(3 2.74086e-13 0)
(3 3.84719e-12 0)
(3 3.54588e-08 0)
(3 -1.37644e-07 0)
(3 -1.39945e-07 0)
(3 -1.67327e-07 0)
(3 -1.72255e-07 0)
(3 -2.13056e-07 0)
(3 -2.37872e-07 0)
(3 -2.8888e-07 0)
(3 -3.58591e-07 0)
(3 -4.40624e-07 0)
(3 -5.83291e-07 0)
(3 -1.42371e-07 0)
(3 -1.44887e-07 0)
(3 -1.74435e-07 0)
(3 -1.80295e-07 0)
(3 -2.24911e-07 0)
(3 -2.47564e-07 0)
(3 -3.12699e-07 0)
(3 -3.56467e-07 0)
(3 -5.30891e-07 0)
(3 1.32091e-06 0)
(3 -1.50784e-07 0)
(3 -1.55767e-07 0)
(3 -1.85976e-07 0)
(3 -1.98474e-07 0)
(3 -2.38286e-07 0)
(3 -2.7028e-07 0)
(3 -3.27036e-07 0)
(3 -3.82546e-07 0)
(3 -5.24613e-07 0)
(3.00001 2.36835e-05 0)
(3 -1.48534e-07 0)
(3 -1.579e-07 0)
(3 -1.85643e-07 0)
(3 -2.06605e-07 0)
(3 -2.42924e-07 0)
(3 -2.84277e-07 0)
(3 -3.38185e-07 0)
(3 -4.03828e-07 0)
(3 -5.52689e-07 0)
(3.00007 0.000167491 0)
(3 -1.45042e-07 0)
(3 -1.58514e-07 0)
(3 -1.83664e-07 0)
(3 -2.1012e-07 0)
(3 -2.43392e-07 0)
(3 -2.89e-07 0)
(3 -3.43125e-07 0)
(3 -4.13234e-07 0)
(3 -5.60335e-07 0)
(3.00037 0.000848641 0)
(3 -1.42623e-07 0)
(3 -1.56974e-07 0)
(3 -1.82265e-07 0)
(3 -2.08023e-07 0)
(3 -2.42298e-07 0)
(3 -2.88804e-07 0)
(3 -3.44273e-07 0)
(3 -4.19644e-07 0)
(3 -5.7567e-07 0)
(3.00134 0.00188997 0)
(3 -1.32625e-07 0)
(3 -1.52964e-07 0)
(3 -1.69233e-07 0)
(3 -2.04592e-07 0)
(3 -2.29497e-07 0)
(3 -2.84871e-07 0)
(3 -3.34508e-07 0)
(3 -4.17267e-07 0)
(3 -5.68617e-07 0)
(3.00458 0.00320807 0)
(3 -1.41431e-07 0)
(3 -1.57164e-07 0)
(3 -1.81794e-07 0)
(3 -2.05338e-07 0)
(3 -2.42446e-07 0)
(3 -2.81961e-07 0)
(3 -3.48236e-07 0)
(3 -4.11178e-07 0)
(3 -6.16771e-07 0)
(3.12111 0.0567191 0)
(3 -1.35752e-07 0)
(3 -1.53918e-07 0)
(3 -1.73168e-07 0)
(3 -2.03218e-07 0)
(3 -2.33467e-07 0)
(3 -2.76812e-07 0)
(3 -3.39053e-07 0)
(3 -4.23231e-07 0)
(3 -3.8328e-06 0)
(2.88774 -0.425018 0)
(3 -1.38181e-07 0)
(3 -1.59379e-07 0)
(3 -1.83988e-07 0)
(3 -2.17292e-07 0)
(3 -2.4159e-07 0)
(3 -3.12081e-07 0)
(3 -3.30208e-07 0)
(3 -4.94318e-07 0)
(3.00003 -0.00115969 0)
(1.98098 -0.750504 0)
(3 -1.17379e-07 0)
(3 -1.44705e-07 0)
(3 -1.57087e-07 0)
(3 -1.99463e-07 0)
(3 -2.08153e-07 0)
(3 -2.78739e-07 0)
(3 -3.25088e-07 0)
(3 -4.55525e-07 0)
(3.02688 -0.0420953 0)
(1.73018 -0.820192 0)
(3 -8.79544e-08 0)
(3 -1.14446e-07 0)
(3 -1.30772e-07 0)
(3 -1.58254e-07 0)
(3 -2.13516e-07 0)
(3 -2.41151e-07 0)
(3 -3.94999e-07 0)
(3 -6.53759e-05 0)
(2.65511 -0.525767 0)
(1.61065 -0.885224 0)
(3 -8.79518e-08 0)
(3 -9.45726e-08 0)
(3 -1.29763e-07 0)
(3 -1.28535e-07 0)
(3 -1.90226e-07 0)
(3 -2.2184e-07 0)
(3 -3.27343e-07 0)
(3.011 -0.0322023 0)
(1.78167 -0.846728 0)
(1.53731 -0.898353 0)
(3 -8.62537e-08 0)
(3 -9.89851e-08 0)
(3 -1.08198e-07 0)
(3 -1.28887e-07 0)
(3 -1.38541e-07 0)
(3 -2.55106e-07 0)
(3 -1.62729e-06 0)
(2.54075 -0.549292 0)
(1.61618 -0.917604 0)
(1.54029 -0.895847 0)
(3 -8.27241e-08 0)
(3 -1.09673e-07 0)
(3 -1.06581e-07 0)
(3 -1.32816e-07 0)
(3 -1.45858e-07 0)
(3 -2.17703e-07 0)
(2.95955 -0.0988591 0)
(1.6882 -0.857875 0)
(1.5545 -0.928406 0)
(1.54878 -0.905091 0)
(3 -7.917e-08 0)
(3 -8.15183e-08 0)
(3 -1.10945e-07 0)
(3 -1.1488e-07 0)
(3 -1.75598e-07 0)
(2.99998 -1.93265e-05 0)
(2.10314 -0.737169 0)
(1.56207 -0.945894 0)
(1.59522 -0.941394 0)
(1.59695 -0.926365 0)
(3 -1.09693e-07 0)
(3 -1.09255e-07 0)
(3 -1.00644e-07 0)
(3 -1.35582e-06 0)
(3 -1.75714e-07 0)
(2.74746 -0.381131 0)
(1.5393 -0.994446 0)
(1.6124 -0.976854 0)
(1.65822 -0.968233 0)
(1.66132 -0.960086 0)
(3 -8.95931e-08 0)
(3 -3.08887e-06 0)
(3 7.40304e-07 0)
(3.001 0.000724482 0)
(2.93965 -0.109887 0)
(1.89699 -0.973334 0)
(1.59026 -1.02467 0)
(1.67185 -1.00675 0)
(1.71447 -0.97129 0)
(1.71208 -0.972793 0)
(3 -7.28139e-07 0)
(3.00387 0.00416702 0)
(2.92376 -0.0673597 0)
(2.80658 -0.221636 0)
(1.82147 -1.02006 0)
(1.4583 -1.18026 0)
(1.56892 -1.1108 0)
(1.68597 -1.05914 0)
(1.71641 -1.01098 0)
(1.7314 -0.985387 0)
(2.82685 -0.0854204 0)
(2.71503 -0.118618 0)
(2.46245 -0.322582 0)
(2.34754 -0.475322 0)
(1.8334 -0.742172 0)
(1.66184 -0.931962 0)
(1.71847 -1.00131 0)
(1.77807 -1.05773 0)
(1.75475 -1.03109 0)
(1.73096 -1.00932 0)
(2.76854 -0.439883 0)
(2.12986 -0.724464 0)
(2.205 -0.639151 0)
(2.36991 -0.470904 0)
(2.53916 -0.164139 0)
(2.69605 -0.0703367 0)
(2.7735 0.135424 0)
(2.73554 0.167703 0)
(2.44988 0.535114 0)
(2.09332 0.328149 0)
(2.54428 -0.514044 0)
(2.10158 -0.722706 0)
(2.21521 -0.625708 0)
(2.39766 -0.443445 0)
(2.57394 -0.11065 0)
(2.72838 -0.0205013 0)
(2.77529 0.154341 0)
(2.7428 0.169161 0)
(2.46614 0.520806 0)
(2.07621 0.300619 0)
(2.39311 -0.580302 0)
(2.08925 -0.721697 0)
(2.23826 -0.598716 0)
(2.42323 -0.414441 0)
(2.59139 -0.072891 0)
(2.74386 0.00742362 0)
(2.77025 0.162527 0)
(2.7456 0.169456 0)
(2.47636 0.500404 0)
(2.0547 0.267805 0)
(2.22171 -0.614264 0)
(2.08203 -0.722917 0)
(2.26327 -0.57161 0)
(2.45111 -0.384288 0)
(2.61212 -0.0286658 0)
(2.76506 0.0606871 0)
(2.76787 0.177047 0)
(2.74827 0.168571 0)
(2.48242 0.477749 0)
(2.04188 0.238672 0)
(2.13892 -0.644636 0)
(2.08459 -0.723429 0)
(2.29711 -0.536979 0)
(2.48698 -0.339414 0)
(2.6335 0.0215944 0)
(2.76822 0.0871825 0)
(2.76636 0.183811 0)
(2.75153 0.16141 0)
(2.48439 0.426575 0)
(2.02757 0.20408 0)
(2.05314 -0.693791 0)
(2.08394 -0.707789 0)
(2.33287 -0.490768 0)
(2.51372 -0.303649 0)
(2.6469 0.050542 0)
(2.76821 0.113826 0)
(2.77197 0.177871 0)
(2.75642 0.146939 0)
(2.49616 0.368175 0)
(2.02826 0.180786 0)
(1.99126 -0.73594 0)
(2.08785 -0.688455 0)
(2.35381 -0.438419 0)
(2.5425 -0.250596 0)
(2.67238 0.11531 0)
(2.78077 0.146797 0)
(2.77976 0.181928 0)
(2.75642 0.118896 0)
(2.49311 0.285604 0)
(2.03296 0.156862 0)
(1.94652 -0.767297 0)
(2.10289 -0.656729 0)
(2.37617 -0.378865 0)
(2.56234 -0.212599 0)
(2.68467 0.135466 0)
(2.77603 0.162802 0)
(2.78149 0.178711 0)
(2.7613 0.0921662 0)
(2.49784 0.216998 0)
(2.04184 0.141519 0)
(1.90436 -0.786139 0)
(2.12268 -0.629056 0)
(2.41351 -0.30991 0)
(2.60546 -0.138453 0)
(2.71215 0.195455 0)
(2.78791 0.184322 0)
(2.7842 0.178705 0)
(2.75151 0.0602914 0)
(2.49191 0.149468 0)
(2.04546 0.128028 0)
(1.855 -0.807424 0)
(2.16533 -0.593124 0)
(2.44651 -0.252072 0)
(2.63346 -0.0996753 0)
(2.717 0.206351 0)
(2.78911 0.194303 0)
(2.78647 0.179607 0)
(2.74721 0.0306959 0)
(2.4805 0.0879647 0)
(2.04389 0.118266 0)
(1.86245 -0.806842 0)
(2.23049 -0.560127 0)
(2.51869 -0.164881 0)
(2.70444 -0.00919275 0)
(2.71875 0.255934 0)
(2.79852 0.211839 0)
(2.78857 0.181598 0)
(2.74126 7.33583e-06 0)
(2.46597 0.033914 0)
(2.04012 0.110694 0)
(1.88051 -0.788461 0)
(2.2816 -0.511022 0)
(2.54511 -0.112554 0)
(2.7308 0.0466973 0)
(2.71225 0.253028 0)
(2.79453 0.220279 0)
(2.78498 0.177753 0)
(2.7266 -0.0386868 0)
(2.45918 -0.0118872 0)
(2.03597 0.103515 0)
(1.91158 -0.75326 0)
(2.32271 -0.47029 0)
(2.59519 -0.0119784 0)
(2.76229 0.134637 0)
(2.7275 0.272945 0)
(2.77956 0.228678 0)
(2.7736 0.164021 0)
(2.71084 -0.0769643 0)
(2.45577 -0.0553445 0)
(2.02936 0.101056 0)
(1.96413 -0.724148 0)
(2.38406 -0.412428 0)
(2.62011 0.0425767 0)
(2.77131 0.163386 0)
(2.7548 0.276876 0)
(2.76284 0.23078 0)
(2.75542 0.142575 0)
(2.68701 -0.119643 0)
(2.44041 -0.0909267 0)
(2.01951 0.0979458 0)
(1.99758 -0.692211 0)
(2.45299 -0.329917 0)
(2.6825 0.171828 0)
(2.80894 0.228873 0)
(2.78732 0.274564 0)
(2.75462 0.222221 0)
(2.73078 0.109127 0)
(2.66507 -0.156597 0)
(2.42588 -0.119931 0)
(2.0064 0.0879006 0)
(2.08512 -0.645745 0)
(2.50794 -0.27006 0)
(2.70234 0.217372 0)
(2.81286 0.257463 0)
(2.80206 0.270568 0)
(2.75179 0.200735 0)
(2.71117 0.0644655 0)
(2.64597 -0.193296 0)
(2.4214 -0.147416 0)
(1.98986 0.0818979 0)
(2.14612 -0.583338 0)
(2.61565 -0.0746143 0)
(2.72224 0.324253 0)
(2.82654 0.28303 0)
(2.80936 0.261119 0)
(2.74695 0.165099 0)
(2.69978 0.0259438 0)
(2.64066 -0.214437 0)
(2.42381 -0.165256 0)
(1.97121 0.0783858 0)
(2.22644 -0.473742 0)
(2.69562 -0.0522516 0)
(2.71858 0.341894 0)
(2.84312 0.293121 0)
(2.81859 0.250695 0)
(2.74288 0.135944 0)
(2.69016 -0.0123381 0)
(2.63545 -0.23569 0)
(2.42623 -0.179264 0)
(1.94781 0.0767523 0)
(2.3102 -0.268399 0)
(2.84178 0.216835 0)
(2.78182 0.354866 0)
(2.83478 0.310909 0)
(2.81767 0.240022 0)
(2.73428 0.0963197 0)
(2.68506 -0.0371476 0)
(2.61624 -0.256228 0)
(2.41414 -0.200332 0)
(1.90973 0.0762493 0)
(2.30376 -0.0898924 0)
(2.8227 0.234271 0)
(2.81808 0.350326 0)
(2.83091 0.313878 0)
(2.81188 0.214393 0)
(2.73856 0.0656367 0)
(2.66725 -0.0824205 0)
(2.56327 -0.2496 0)
(2.33453 -0.180385 0)
(1.83644 0.0815118 0)
(3 -3.30606e-09 0)
(3 -4.77964e-09 0)
(3 -3.82653e-08 0)
(3 -8.63081e-09 0)
(2.99889 -0.000496257 0)
(2.86596 -0.059898 0)
(1.74353 -0.0199481 0)
(1.63911 -0.0181431 0)
(1.78355 -0.00724417 0)
(2.11571 0.00788105 0)
(3 -1.09194e-08 0)
(3 -1.80473e-08 0)
(3 -4.13517e-08 0)
(3 -1.36693e-06 0)
(2.99854 -0.00216439 0)
(2.90855 -0.183134 0)
(1.82973 -0.0335841 0)
(1.71225 -0.0195647 0)
(1.82762 -0.00810293 0)
(2.13636 0.0321548 0)
(3 -2.23759e-08 0)
(3 -3.0295e-08 0)
(3 -2.32994e-07 0)
(3 -1.15469e-05 0)
(2.99696 -0.00584709 0)
(2.93317 -0.319372 0)
(1.9947 -0.0630176 0)
(1.87149 -0.011103 0)
(1.93504 0.0213983 0)
(2.1867 0.0550266 0)
(3 -3.6708e-08 0)
(3 -5.36082e-08 0)
(3 -8.56043e-07 0)
(2.99997 -9.25233e-05 0)
(2.99513 -0.0174898 0)
(2.9273 -0.481423 0)
(2.12098 -0.124617 0)
(2.01435 0.00392429 0)
(2.06013 0.0426472 0)
(2.25512 0.0787 0)
(3 -5.52421e-08 0)
(3 -9.06514e-08 0)
(3 -3.59969e-06 0)
(2.9998 -0.000588569 0)
(2.9969 -0.0541408 0)
(2.88334 -0.632061 0)
(2.18645 -0.218895 0)