/*--------------------------------*- C++ -*----------------------------------*\
  =========                 |
  \\      /  F ield         | OpenFOAM: The Open Source CFD Toolbox
   \\    /   O peration     | Website:  https://openfoam.org
    \\  /    A nd           | Version:  8
     \\/     M anipulation  |
\*---------------------------------------------------------------------------*/
FoamFile
{
    version     2.0;
    format      ascii;
    class       volScalarField;
    location    "2.7";
    object      p;
}
// * * * * * * * * * * * * * * * * * * * * * * * * * * * * * * * * * * * * * //

dimensions      [1 -1 -2 0 0 0 0];

internalField   nonuniform List<scalar> 
2600
(
0.975914
0.935585
0.927163
1.02511
1.24985
1.52242
1.76436
1.84768
1.79726
1.65254
0.984931
0.918284
0.92683
1.04814
1.28576
1.5414
1.76828
1.84845
1.80568
1.67155
0.993939
0.908079
0.921628
1.07278
1.31996
1.56706
1.7663
1.82857
1.80008
1.68304
0.992351
0.907215
0.918967
1.07565
1.32842
1.59866
1.78635
1.83805
1.76843
1.65297
0.984638
0.899633
0.919068
1.08826
1.33242
1.60041
1.81882
1.88639
1.7921
1.63962
0.984241
0.896714
0.912818
1.09223
1.36091
1.60068
1.79694
1.86957
1.83392
1.67476
0.991879
0.897659
0.915484
1.09348
1.38002
1.64545
1.79651
1.82909
1.8167
1.68303
1.00161
0.904394
0.928987
1.10838
1.38556
1.64346
1.80833
1.85114
1.79926
1.67085
1.01169
0.909083
0.92402
1.11077
1.37603
1.61799
1.80975
1.90077
1.77938
1.68019
1.01737
0.910841
0.918834
1.08207
1.33575
1.62245
1.83178
1.89355
1.7824
1.68038
1.01842
0.911966
0.917578
1.08462
1.34481
1.63142
1.80691
1.83529
1.82867
1.66269
1.01283
0.912862
0.928384
1.09605
1.36512
1.64836
1.81658
1.81973
1.83817
1.66542
1.00549
0.90918
0.924213
1.08038
1.37749
1.66131
1.80652
1.84673
1.80636
1.67685
0.996989
0.904432
0.913019
1.06355
1.35403
1.65349
1.81573
1.87492
1.79084
1.65777
0.990761
0.904427
0.913183
1.06757
1.3321
1.62308
1.81599
1.86948
1.80205
1.67321
0.991611
0.907298
0.92046
1.0591
1.3077
1.63705
1.82095
1.82643
1.80134
1.68793
0.998828
0.914699
0.919286
1.04639
1.2979
1.61981
1.78933
1.82846
1.79169
1.65755
1.00186
0.917653
0.919916
1.03855
1.27619
1.59769
1.79385
1.85745
1.80129
1.64229
0.997563
0.927291
0.92534
1.01659
1.24368
1.57991
1.78517
1.84969
1.79685
1.65567
0.985594
0.941341
0.930451
0.997594
1.20979
1.56128
1.77515
1.83226
1.78928
1.66352
1.18198
0.957094
0.943656
0.985441
1.17179
1.53474
1.75628
1.81488
1.77547
1.65775
1.38901
0.991839
0.975023
0.982324
1.13102
1.48995
1.72938
1.81358
1.76736
1.64464
1.59709
1.05495
1.00953
0.989198
1.09897
1.43546
1.7131
1.81425
1.76424
1.63635
1.76649
1.14349
1.04403
1.00343
1.08228
1.38521
1.69063
1.80718
1.76352
1.6342
1.91305
1.24322
1.07869
1.02048
1.07299
1.33818
1.66308
1.79472
1.75723
1.63699
2.03181
1.34969
1.11615
1.03015
1.06734
1.28741
1.62507
1.77659
1.74663
1.63264
2.13011
1.459
1.16912
1.03952
1.06493
1.23415
1.57899
1.76128
1.73674
1.62409
2.21453
1.55714
1.23966
1.06618
1.06617
1.18664
1.52949
1.74891
1.73205
1.61577
2.29039
1.64772
1.30512
1.11647
1.0702
1.15358
1.4771
1.73166
1.72878
1.61037
2.3596
1.73525
1.36158
1.16312
1.08429
1.13393
1.4202
1.70574
1.72321
1.60674
2.4194
1.81762
1.42491
1.1987
1.10054
1.11994
1.35931
1.67216
1.71387
1.59988
2.47155
1.88986
1.49545
1.24003
1.11288
1.11755
1.30096
1.63512
1.70355
1.59086
2.51753
1.9547
1.56118
1.29576
1.12624
1.11632
1.24861
1.59663
1.69656
1.58178
2.55879
2.01614
1.61933
1.35345
1.15361
1.11613
1.20551
1.55157
1.68807
1.57319
2.59625
2.07525
1.67753
1.40186
1.19438
1.11858
1.17241
1.49833
1.67579
1.56519
2.63093
2.1308
1.73648
1.44718
1.23271
1.12748
1.14986
1.43873
1.6596
1.55562
2.66299
2.18252
1.79248
1.49609
1.26639
1.13945
1.13475
1.37894
1.63807
1.54421
2.69194
2.23036
1.84335
1.54523
1.30487
1.15075
1.12591
1.32131
1.61192
1.53288
2.71819
2.27403
1.89111
1.59071
1.34738
1.16492
1.12268
1.26855
1.58093
1.52293
2.74222
2.31396
1.93732
1.63453
1.38787
1.18499
1.12336
1.22028
1.54433
1.51303
5.00157
4.7567
4.58207
4.41098
4.24414
4.08435
3.91751
3.73571
3.47797
3.19618
4.65142
4.42157
4.31299
4.19016
4.06766
3.93671
3.78834
3.60667
3.3457
2.98545
4.54206
4.36748
4.27379
4.15757
4.04634
3.92345
3.77723
3.59148
3.32912
2.97678
4.38595
4.25835
4.185
4.08239
3.98444
3.86588
3.72263
3.53741
3.28233
2.93237
4.24488
4.15487
4.10119
4.01027
3.9211
3.80712
3.67123
3.4913
3.24741
2.90141
4.1211
4.05696
4.01431
3.93588
3.85829
3.75111
3.62276
3.44707
3.2152
2.88157
4.02542
3.97372
3.9367
3.86908
3.80036
3.6986
3.57778
3.40772
3.18872
2.87594
3.9363
3.89684
3.86559
3.80796
3.74613
3.64973
3.53638
3.37298
3.16789
2.87953
3.86236
3.83625
3.81027
3.75837
3.6995
3.60709
3.50002
3.3438
3.15223
2.8886
3.80774
3.78714
3.76219
3.7131
3.65655
3.5687
3.46766
3.31937
3.14076
2.90015
3.77324
3.7497
3.72227
3.67382
3.61846
3.53459
3.43891
3.29893
3.13229
2.91236
3.74652
3.71565
3.686
3.63848
3.5845
3.50458
3.41374
3.28228
3.12634
2.92468
3.72169
3.6854
3.65455
3.60781
3.55489
3.47867
3.39222
3.26886
3.12312
2.93761
3.69708
3.65749
3.62584
3.57997
3.5283
3.45581
3.3735
3.25784
3.12182
2.9506
3.6732
3.63174
3.59963
3.55471
3.50446
3.43555
3.35722
3.24901
3.12188
2.96335
3.64996
3.60749
3.57528
3.53144
3.48283
3.41742
3.34294
3.24172
3.12252
2.97531
3.6262
3.58385
3.55227
3.50992
3.46326
3.40129
3.33057
3.23601
3.12413
2.98694
3.60079
3.56033
3.53014
3.48976
3.44542
3.38689
3.3198
3.23128
3.12599
2.9976
3.57318
3.53696
3.50897
3.47099
3.42921
3.37411
3.31064
3.22776
3.12859
3.00788
3.54285
3.51311
3.48839
3.45357
3.41459
3.36273
3.30257
3.22472
3.13129
3.01766
1.00385
1.01216
1.02168
1.03253
1.0452
1.06075
1.07524
1.13543
2.97045
3.99655
1.00385
1.01216
1.02167
1.03253
1.0452
1.06075
1.07525
1.13524
2.96657
3.98325
1.00385
1.01216
1.02167
1.03253
1.0452
1.06075
1.07527
1.13492
2.96274
3.9627
1.00385
1.01216
1.02167
1.03253
1.04519
1.06076
1.0753
1.13426
2.95683
3.94181
1.00385
1.01216
1.02167
1.03254
1.04518
1.06076
1.07533
1.13335
2.94842
3.91945
1.00385
1.01216
1.02167
1.03254
1.04517
1.06076
1.07536
1.13203
2.93726
3.89707
1.00385
1.01216
1.02167
1.03254
1.04516
1.06076
1.0754
1.13002
2.92413
3.87351
1.00385
1.01216
1.02166
1.03255
1.04515
1.06076
1.07546
1.12567
2.90972
3.84971
1.00385
1.01216
1.02166
1.03255
1.04514
1.06075
1.07553
1.12119
2.89396
3.82552
1.00385
1.01216
1.02166
1.03255
1.04513
1.06075
1.07563
1.11737
2.87512
3.79997
1.00385
1.01216
1.02166
1.03256
1.04512
1.06074
1.07576
1.11347
2.8534
3.77458
1.00385
1.01216
1.02165
1.03256
1.04512
1.06072
1.07592
1.10939
2.82975
3.74979
1.00385
1.01217
1.02165
1.03256
1.04511
1.0607
1.0761
1.10588
2.80509
3.72597
1.00385
1.01217
1.02165
1.03257
1.04511
1.06068
1.0763
1.10309
2.77989
3.7033
1.00385
1.01217
1.02165
1.03257
1.04511
1.06065
1.0765
1.1008
2.75393
3.68227
1.00385
1.01217
1.02165
1.03257
1.04511
1.06061
1.07672
1.09903
2.72726
3.66341
1.00385
1.01217
1.02165
1.03257
1.04511
1.06056
1.07693
1.0977
2.69984
3.64664
1.00385
1.01217
1.02165
1.03257
1.04511
1.06051
1.07714
1.09669
2.6717
3.6328
1.00385
1.01217
1.02164
1.03257
1.04512
1.06046
1.07734
1.09595
2.64277
3.62143
1.00385
1.01217
1.02164
1.03257
1.04512
1.0604
1.07754
1.09541
2.6131
3.6133
1.00385
1.01217
1.02164
1.03257
1.04512
1.0604
1.07754
1.09541
2.61307
3.61327
1.00385
1.01217
1.02164
1.03257
1.04512
1.06046
1.07734
1.09595
2.64274
3.62141
1.00385
1.01217
1.02165
1.03257
1.04511
1.06051
1.07714
1.09669
2.67166
3.6328
1.00385
1.01217
1.02165
1.03257
1.04511
1.06056
1.07693
1.0977
2.6998
3.64665
1.00385
1.01217
1.02165
1.03257
1.04511
1.06061
1.07672
1.09903
2.72722
3.66343
1.00385
1.01217
1.02165
1.03257
1.04511
1.06065
1.0765
1.1008
2.75389
3.68231
1.00385
1.01217
1.02165
1.03257
1.04511
1.06068
1.0763
1.10309
2.77985
3.70334
1.00385
1.01217
1.02165
1.03256
1.04511
1.0607
1.0761
1.10587
2.80505
3.72602
1.00385
1.01216
1.02165
1.03256
1.04512
1.06072
1.07592
1.10938
2.82972
3.74985
1.00385
1.01216
1.02166
1.03256
1.04512
1.06074
1.07576
1.11346
2.85336
3.77464
1.00385
1.01216
1.02166
1.03255
1.04513
1.06075
1.07563
1.11736
2.87508
3.80002
1.00385
1.01216
1.02166
1.03255
1.04514
1.06075
1.07553
1.12117
2.89392
3.82556
1.00385
1.01216
1.02166
1.03255
1.04515
1.06076
1.07546
1.12565
2.90967
3.84976
1.00385
1.01216
1.02167
1.03254
1.04516
1.06076
1.0754
1.13
2.92408
3.87355
1.00385
1.01216
1.02167
1.03254
1.04517
1.06076
1.07536
1.13201
2.93721
3.89712
1.00385
1.01216
1.02167
1.03254
1.04518
1.06076
1.07533
1.13334
2.94836
3.91947
1.00385
1.01216
1.02167
1.03253
1.04519
1.06076
1.0753
1.13424
2.95676
3.94185
1.00385
1.01216
1.02167
1.03253
1.0452
1.06075
1.07527
1.1349
2.96262
3.96273
1.00385
1.01216
1.02167
1.03253
1.0452
1.06075
1.07525
1.13521
2.96648
3.98329
1.00385
1.01216
1.02168
1.03253
1.0452
1.06075
1.07524
1.13592
2.97037
3.99658
3.54298
3.51325
3.4885
3.4537
3.41476
3.36295
3.30282
3.225
3.13156
3.01788
3.57328
3.53707
3.50909
3.47115
3.4294
3.37434
3.3109
3.22803
3.12884
3.00806
3.60089
3.56045
3.53028
3.48994
3.44563
3.38713
3.32007
3.23153
3.12621
2.99774
3.6263
3.58398
3.55243
3.51011
3.46348
3.40153
3.33084
3.23625
3.12432
2.987
3.65005
3.60761
3.57543
3.53164
3.48306
3.41767
3.34319
3.24196
3.12266
2.9753
3.67328
3.63186
3.59978
3.5549
3.50469
3.4358
3.35747
3.24923
3.12197
2.96325
3.69715
3.65761
3.62599
3.58016
3.52853
3.45604
3.37373
3.25802
3.12185
2.95041
3.72175
3.68553
3.65471
3.60801
3.55512
3.4789
3.39244
3.26898
3.12309
2.93731
3.74658
3.71578
3.68617
3.63868
3.58472
3.50481
3.41393
3.28236
3.12624
2.92422
3.77331
3.74983
3.72244
3.67402
3.61868
3.5348
3.43908
3.29897
3.1321
2.91172
3.80787
3.78729
3.76237
3.71331
3.65677
3.5689
3.46781
3.31936
3.14045
2.89934
3.86252
3.83642
3.81045
3.75857
3.69972
3.60729
3.50016
3.34375
3.15181
2.88764
3.93654
3.89708
3.86582
3.80819
3.74635
3.64992
3.5365
3.37289
3.16737
2.87846
4.02564
3.97397
3.93695
3.86933
3.80059
3.6988
3.57789
3.4076
3.18815
2.87467
4.12145
4.05726
4.01458
3.93613
3.85853
3.75131
3.62286
3.44695
3.21462
2.88003
4.24518
4.15516
4.10146
4.01053
3.92135
3.80733
3.67135
3.49119
3.24685
2.89959
4.38626
4.25866
4.18529
4.08266
3.9847
3.86611
3.72277
3.53733
3.28181
2.93045
4.54235
4.3678
4.27409
4.15785
4.04661
3.92368
3.7774
3.59144
3.32868
2.975
4.65178
4.42187
4.31328
4.19044
4.06792
3.93695
3.78854
3.60669
3.34531
2.98393
5.00203
4.75708
4.58242
4.41129
4.24442
4.08458
3.91772
3.73576
3.47772
3.19471
2.74209
2.3132
1.93639
1.63491
1.3894
1.18571
1.1228
1.21887
1.54427
1.5125
2.71794
2.27293
1.89018
1.59127
1.3494
1.16479
1.12175
1.26515
1.57953
1.52301
2.69156
2.22899
1.84211
1.54604
1.3077
1.15057
1.1243
1.31713
1.61051
1.53233
2.66251
2.18107
1.79083
1.4976
1.27027
1.13934
1.13164
1.37513
1.63726
1.54255
2.63042
2.12918
1.73498
1.44987
1.23625
1.12642
1.14549
1.43534
1.65968
1.55389
2.59566
2.07369
1.67683
1.40475
1.19751
1.11709
1.16624
1.49348
1.67682
1.56517
2.55805
2.01471
1.61945
1.35615
1.15733
1.11464
1.19801
1.54566
1.68926
1.57531
2.51649
1.95359
1.56077
1.29935
1.12995
1.11465
1.24084
1.59336
1.69809
1.58183
2.47036
1.88831
1.49469
1.24511
1.11537
1.11541
1.29345
1.63507
1.7048
1.58887
2.41792
1.81558
1.42523
1.20419
1.10282
1.11717
1.35002
1.67322
1.71392
1.59637
2.35787
1.73373
1.36337
1.16699
1.08709
1.12852
1.40821
1.70379
1.72536
1.60622
2.28854
1.64746
1.30533
1.11863
1.07526
1.14644
1.46726
1.72594
1.732
1.61484
2.21284
1.55798
1.23695
1.06989
1.07244
1.17835
1.52655
1.74224
1.73529
1.61923
2.1283
1.46012
1.16474
1.04671
1.0719
1.22373
1.58003
1.76014
1.73891
1.62037
2.02884
1.35227
1.10981
1.04089
1.07789
1.27247
1.62232
1.78118
1.7479
1.62495
1.90835
1.24777
1.06978
1.03136
1.09102
1.31846
1.65578
1.79438
1.76007
1.63513
1.76005
1.14913
1.03185
1.01626
1.10498
1.36363
1.68181
1.80201
1.76716
1.64437
1.58955
1.05808
0.997258
1.00538
1.12998
1.41695
1.70678
1.80358
1.76725
1.64698
1.38135
0.988636
0.96839
1.00333
1.16773
1.46951
1.73655
1.81124
1.76595
1.63801
1.17553
0.950561
0.939297
1.00978
1.21089
1.50309
1.75697
1.83719
1.77429
1.63709
3.07122
2.88757
2.64672
2.40285
2.13584
1.86078
1.59305
1.35919
1.09913
0.837165
3.07012
2.8834
2.64337
2.39894
2.13187
1.85711
1.59011
1.35521
1.09577
0.838996
3.06796
2.88008
2.64215
2.39259
2.12512
1.85079
1.58477
1.34812
1.09001
0.842002
3.0646
2.87428
2.63669
2.38341
2.11525
1.8415
1.57692
1.33762
1.08241
0.847023
3.05999
2.86628
2.6289
2.37166
2.10221
1.82916
1.56641
1.32373
1.07341
0.85449
3.05398
2.8562
2.61802
2.35673
2.08583
1.81369
1.55295
1.30616
1.0641
0.864793
3.04662
2.84408
2.60382
2.33883
2.06619
1.79507
1.53655
1.28506
1.05529
0.878565
3.03792
2.82977
2.58624
2.31762
2.04322
1.77339
1.51683
1.26078
1.04845
0.89708
3.02784
2.81315
2.56511
2.29289
2.01669
1.74848
1.49373
1.23346
1.04267
0.922056
3.0164
2.7939
2.54029
2.26431
1.98671
1.72026
1.46671
1.20485
1.03674
0.956317
3.00333
2.77203
2.5114
2.23153
1.95271
1.68876
1.4354
1.17514
1.02866
1.00322
2.98866
2.74711
2.47873
2.19438
1.91492
1.65329
1.4002
1.14723
1.02238
1.05813
2.97208
2.71867
2.44085
2.15216
1.8729
1.61417
1.36032
1.12351
1.02315
1.11809
2.95347
2.68626
2.39818
2.10532
1.82629
1.57029
1.31773
1.10732
1.03269
1.18413
2.93246
2.64926
2.34996
2.0526
1.77579
1.52156
1.27244
1.09855
1.05724
1.2501
2.9088
2.60709
2.29564
1.99455
1.71994
1.46841
1.22992
1.09183
1.10195
1.31564
2.88199
2.55924
2.23452
1.93024
1.66004
1.40948
1.19183
1.09014
1.16933
1.3759
2.85138
2.50487
2.16655
1.85983
1.59438
1.34862
1.16445
1.0944
1.26252
1.4239
2.81614
2.44238
2.09035
1.78354
1.52363
1.28481
1.14267
1.11711
1.36912
1.46207
2.7754
2.37069
2.00525
1.70013
1.44842
1.22608
1.12762
1.1651
1.4754
1.49278
2.77539
2.37126
2.00603
1.70049
1.44746
1.22549
1.12794
1.16545
1.4753
1.49355
2.81603
2.44271
2.09114
1.78396
1.52337
1.28446
1.14252
1.1165
1.36851
1.4626
2.8512
2.50503
2.16697
1.86022
1.5945
1.3488
1.16437
1.09373
1.26103
1.42386
2.88176
2.55917
2.23473
1.93048
1.6603
1.40988
1.19185
1.08974
1.1675
1.37536
2.90856
2.60693
2.29561
1.99469
1.72019
1.46889
1.23037
1.09156
1.10057
1.31477
2.93223
2.64904
2.34983
2.05257
1.77593
1.52197
1.27296
1.0983
1.05625
1.24892
2.95327
2.68602
2.39793
2.10517
1.82632
1.57055
1.31831
1.10729
1.03206
1.18284
2.97193
2.71844
2.44057
2.15192
1.87278
1.61432
1.36078
1.12363
1.0229
1.11695
2.98856
2.74691
2.47846
2.19409
1.91472
1.6533
1.40048
1.14749
1.02227
1.05742
3.00327
2.77187
2.51113
2.23125
1.95248
1.68869
1.43553
1.17532
1.02863
1.00293
3.01638
2.79378
2.54008
2.26404
1.98645
1.72013
1.46672
1.20495
1.03684
0.956351
3.02785
2.81307
2.56494
2.29265
2.01646
1.74832
1.49365
1.23349
1.04281
0.922293
3.03796
2.82973
2.58612
2.31743
2.04301
1.77323
1.51673
1.26071
1.04855
0.897386
3.04666
2.84407
2.60375
2.3387
2.06603
1.79493
1.53644
1.28496
1.05535
0.878862
3.05403
2.85621
2.618
2.35666
2.08572
1.81358
1.55286
1.30603
1.06409
0.865022
3.06003
2.86631
2.62892
2.37164
2.10216
1.82911
1.56635
1.32361
1.07334
0.854632
3.06464
2.87431
2.63674
2.38345
2.11525
1.84149
1.5769
1.33754
1.0823
0.84709
3.06798
2.88013
2.64221
2.39266
2.12517
1.85082
1.58478
1.34808
1.08989
0.842002
3.07013
2.88345
2.64345
2.39903
2.13195
1.85718
1.59016
1.35521
1.09566
0.838951
3.07123
2.88762
2.6468
2.40295
2.13594
1.86087
1.59312
1.35921
1.09903
0.837093
3.51119
3.48733
3.46538
3.43364
3.39745
3.3493
3.29312
3.22134
3.13504
3.03106
3.48393
3.46236
3.44225
3.41327
3.37981
3.33576
3.28411
3.21932
3.1411
3.04836
3.46464
3.44289
3.42393
3.39696
3.3657
3.32525
3.27746
3.2186
3.14722
3.06342
3.45094
3.42825
3.40987
3.38425
3.35471
3.31728
3.27279
3.21891
3.15336
3.07683
3.44116
3.41747
3.39935
3.37467
3.34645
3.31151
3.26972
3.21997
3.15942
3.08894
3.434
3.4096
3.39167
3.36773
3.34053
3.30761
3.26803
3.22161
3.16537
3.09996
3.42851
3.40396
3.38631
3.36299
3.33661
3.30519
3.2675
3.22383
3.17124
3.11012
3.42441
3.40023
3.38293
3.36023
3.33443
3.30407
3.26815
3.22673
3.1771
3.11951
3.4219
3.39805
3.38094
3.35869
3.33344
3.30413
3.2697
3.23007
3.183
3.12843
3.42129
3.39766
3.38059
3.35863
3.33391
3.30537
3.27196
3.23366
3.18872
3.13662
3.42191
3.39843
3.38127
3.3595
3.33511
3.30706
3.27455
3.23737
3.19422
3.14422
3.42348
3.40004
3.38271
3.36103
3.33687
3.30922
3.27745
3.24118
3.19948
3.15119
3.42565
3.40217
3.38464
3.36297
3.33895
3.31159
3.28041
3.24491
3.20436
3.15751
3.42817
3.40459
3.38685
3.36512
3.34118
3.31403
3.28332
3.24843
3.2088
3.16316
3.4308
3.4071
3.38913
3.36732
3.34341
3.31639
3.28602
3.25161
3.2127
3.16803
3.43334
3.40951
3.39134
3.36942
3.34551
3.31855
3.28842
3.25436
3.21601
3.17212
3.43559
3.41163
3.39328
3.37125
3.34732
3.32037
3.29041
3.25657
3.21865
3.17531
3.43739
3.41335
3.39488
3.37276
3.34881
3.32185
3.29198
3.25829
3.22065
3.17775
3.43846
3.41443
3.39589
3.37373
3.34977
3.32282
3.29302
3.25941
3.22196
3.17925
3.43898
3.41513
3.39667
3.37453
3.35059
3.32362
3.29385
3.26024
3.22289
3.18034
1.00385
1.01217
1.02164
1.03258
1.04512
1.06036
1.07778
1.09494
2.57478
3.60618
1.00385
1.01217
1.02164
1.03258
1.04512
1.06032
1.07804
1.09458
2.52836
3.59948
1.00385
1.01217
1.02164
1.03259
1.04511
1.06032
1.07827
1.09438
2.48227
3.59474
1.00385
1.01217
1.02164
1.03259
1.04511
1.06033
1.07848
1.0943
2.43742
3.59134
1.00385
1.01217
1.02163
1.0326
1.0451
1.06034
1.07866
1.09429
2.39469
3.58858
1.00385
1.01217
1.02163
1.0326
1.0451
1.06033
1.07882
1.09433
2.35509
3.58558
1.00385
1.01217
1.02163
1.0326
1.04511
1.06029
1.07896
1.09442
2.31972
3.5813
1.00385
1.01217
1.02163
1.0326
1.04512
1.06023
1.07908
1.09454
2.28911
3.57523
1.00385
1.01217
1.02163
1.0326
1.04514
1.06016
1.07918
1.09466
2.26201
3.5687
1.00385
1.01217
1.02163
1.03259
1.04517
1.06009
1.07926
1.09478
2.23635
3.56327
1.00385
1.01217
1.02163
1.03259
1.04519
1.06002
1.07933
1.09491
2.21267
3.55858
1.00385
1.01218
1.02163
1.03258
1.04522
1.05996
1.07938
1.09502
2.19104
3.55462
1.00384
1.01218
1.02164
1.03257
1.04524
1.0599
1.07944
1.09512
2.17156
3.55132
1.00384
1.01218
1.02164
1.03256
1.04527
1.05985
1.0795
1.0952
2.1543
3.54862
1.00384
1.01217
1.02164
1.03255
1.04529
1.0598
1.07958
1.09528
2.13935
3.54644
1.00384
1.01217
1.02164
1.03255
1.04532
1.05977
1.07966
1.09533
2.12679
3.54473
1.00384
1.01217
1.02164
1.03254
1.04533
1.05973
1.07976
1.09537
2.1167
3.54339
1.00384
1.01217
1.02165
1.03253
1.04535
1.05971
1.07984
1.09539
2.10903
3.54242
1.00384
1.01217
1.02165
1.03253
1.04535
1.05971
1.07988
1.0954
2.10376
3.54159
1.00384
1.01217
1.02165
1.03253
1.04537
1.05968
1.08
1.0954
2.10111
3.54121
1.00384
1.01217
1.02165
1.03253
1.04537
1.05968
1.08
1.0954
2.10111
3.54122
1.00384
1.01217
1.02165
1.03253
1.04535
1.05971
1.07988
1.0954
2.10376
3.54159
1.00384
1.01217
1.02165
1.03253
1.04535
1.05971
1.07984
1.09539
2.10903
3.54243
1.00384
1.01217
1.02164
1.03254
1.04533
1.05973
1.07976
1.09537
2.1167
3.54339
1.00384
1.01217
1.02164
1.03255
1.04532
1.05977
1.07966
1.09533
2.12679
3.54473
1.00384
1.01217
1.02164
1.03255
1.04529
1.0598
1.07958
1.09528
2.13935
3.54645
1.00384
1.01218
1.02164
1.03256
1.04527
1.05985
1.0795
1.0952
2.1543
3.54862
1.00384
1.01218
1.02164
1.03257
1.04524
1.0599
1.07944
1.09512
2.17156
3.55132
1.00385
1.01218
1.02163
1.03258
1.04522
1.05996
1.07938
1.09502
2.19104
3.55462
1.00385
1.01217
1.02163
1.03259
1.04519
1.06002
1.07933
1.09491
2.21268
3.55858
1.00385
1.01217
1.02163
1.03259
1.04517
1.06009
1.07926
1.09478
2.23636
3.56327
1.00385
1.01217
1.02163
1.0326
1.04514
1.06016
1.07918
1.09466
2.26201
3.56871
1.00385
1.01217
1.02163
1.0326
1.04512
1.06023
1.07908
1.09454
2.28912
3.57523
1.00385
1.01217
1.02163
1.0326
1.04511
1.06029
1.07896
1.09442
2.31972
3.5813
1.00385
1.01217
1.02163
1.0326
1.0451
1.06033
1.07882
1.09433
2.35509
3.58557
1.00385
1.01217
1.02163
1.0326
1.0451
1.06034
1.07866
1.09429
2.39468
3.58856
1.00385
1.01217
1.02164
1.03259
1.04511
1.06033
1.07848
1.0943
2.43741
3.59131
1.00385
1.01217
1.02164
1.03259
1.04511
1.06032
1.07827
1.09438
2.48225
3.59472
1.00385
1.01217
1.02164
1.03258
1.04512
1.06032
1.07804
1.09458
2.52834
3.59946
1.00385
1.01217
1.02164
1.03258
1.04512
1.06036
1.07778
1.09494
2.57476
3.60616
3.43898
3.41513
3.39668
3.37455
3.35062
3.32365
3.29389
3.26027
3.22292
3.18037
3.43846
3.41444
3.3959
3.37374
3.34979
3.32284
3.29305
3.25944
3.22199
3.17927
3.4374
3.41336
3.39489
3.37278
3.34882
3.32187
3.29201
3.25831
3.22067
3.17776
3.43559
3.41164
3.3933
3.37127
3.34733
3.32039
3.29042
3.25658
3.21866
3.17531
3.43335
3.40952
3.39135
3.36943
3.34552
3.31855
3.28843
3.25435
3.216
3.17209
3.43081
3.40711
3.38914
3.36733
3.34342
3.31638
3.28601
3.25158
3.21267
3.16798
3.42818
3.4046
3.38685
3.36512
3.34118
3.31401
3.28329
3.24839
3.20874
3.1631
3.42566
3.40218
3.38464
3.36296
3.33893
3.31156
3.28036
3.24485
3.20429
3.15744
3.42348
3.40004
3.3827
3.36101
3.33683
3.30917
3.27738
3.24111
3.1994
3.15112
3.42191
3.39842
3.38125
3.35947
3.33507
3.307
3.27448
3.2373
3.19416
3.14417
3.42128
3.39764
3.38056
3.35859
3.33386
3.3053
3.2719
3.2336
3.18867
3.1366
3.42189
3.39802
3.38091
3.35864
3.33339
3.30407
3.26965
3.23002
3.18298
3.12845
3.42439
3.40019
3.38289
3.36018
3.33438
3.30402
3.26811
3.22671
3.17712
3.11957
3.42847
3.40391
3.38626
3.36294
3.33656
3.30515
3.26748
3.22385
3.17129
3.11023
3.43395
3.40954
3.39162
3.36768
3.34049
3.30759
3.26804
3.22166
3.16547
3.10011
3.4411
3.4174
3.3993
3.37463
3.34643
3.31152
3.26978
3.22006
3.15956
3.08914
3.45088
3.42819
3.40983
3.38424
3.35473
3.31733
3.27288
3.21905
3.15357
3.07709
3.46459
3.44286
3.42392
3.39698
3.36576
3.32534
3.27761
3.21879
3.14748
3.0637
3.48391
3.46237
3.44228
3.41334
3.37991
3.33591
3.28431
3.21957
3.14138
3.04863
3.51122
3.48738
3.46545
3.43375
3.3976
3.34948
3.29335
3.22161
3.13532
3.0313
)
;

boundaryField
{
    inlet
    {
        type            fixedValue;
        value           uniform 1;
    }
    outlet
    {
        type            zeroGradient;
    }
    triangle
    {
        type            zeroGradient;
    }
    top
    {
        type            symmetryPlane;
    }
    bottom
    {
        type            symmetryPlane;
    }
    defaultFaces
    {
        type            empty;
    }
}


// ************************************************************************* //
