/*--------------------------------*- C++ -*----------------------------------*\
  =========                 |
  \\      /  F ield         | OpenFOAM: The Open Source CFD Toolbox
   \\    /   O peration     | Website:  https://openfoam.org
    \\  /    A nd           | Version:  8
     \\/     M anipulation  |
\*---------------------------------------------------------------------------*/
FoamFile
{
    version     2.0;
    format      ascii;
    class       volScalarField;
    location    "2.7";
    object      T;
}
// * * * * * * * * * * * * * * * * * * * * * * * * * * * * * * * * * * * * * //

dimensions      [0 0 0 1 0 0 0];

internalField   nonuniform List<scalar> 
2600
(
1.30483
1.23109
1.13431
1.09408
1.11934
1.16255
1.20715
1.21498
1.20387
1.17361
1.35382
1.28918
1.18934
1.13109
1.14789
1.17645
1.21222
1.21794
1.20841
1.18092
1.37348
1.32115
1.24327
1.18034
1.18571
1.19925
1.22073
1.22076
1.2143
1.191
1.3755
1.33182
1.28542
1.2345
1.22926
1.2353
1.24217
1.23684
1.22106
1.19949
1.37137
1.33168
1.31537
1.30073
1.28803
1.28207
1.2809
1.27335
1.25133
1.22271
1.36923
1.3325
1.33352
1.36079
1.36889
1.3491
1.32897
1.31553
1.30352
1.27127
1.37182
1.33532
1.34775
1.40152
1.44164
1.43504
1.39787
1.36753
1.3574
1.32402
1.37615
1.3404
1.35884
1.42185
1.47777
1.48982
1.46379
1.43353
1.40876
1.36524
1.38063
1.34324
1.35715
1.42332
1.4841
1.50554
1.50062
1.48633
1.44003
1.39305
1.38289
1.34434
1.35519
1.41236
1.47367
1.51078
1.51763
1.50279
1.45557
1.40282
1.38313
1.34493
1.35469
1.4132
1.47566
1.5125
1.51212
1.49057
1.46552
1.39736
1.38081
1.34497
1.35861
1.41749
1.47928
1.51284
1.50844
1.47454
1.45105
1.38488
1.37748
1.34231
1.35554
1.40818
1.46737
1.49486
1.48336
1.44758
1.40625
1.35735
1.37394
1.33769
1.34461
1.38229
1.4119
1.43682
1.43127
1.39624
1.34693
1.30734
1.37219
1.33488
1.3306
1.33903
1.33354
1.35218
1.35809
1.32966
1.29315
1.26184
1.37454
1.3342
1.3137
1.27738
1.26052
1.28733
1.29548
1.26912
1.25029
1.22666
1.37881
1.33484
1.28653
1.21574
1.20854
1.23609
1.24939
1.23804
1.22274
1.19658
1.37769
1.32652
1.24708
1.16386
1.16699
1.20248
1.22954
1.22734
1.212
1.18091
1.36007
1.29578
1.19483
1.11726
1.13248
1.18282
1.21714
1.21788
1.20546
1.17775
1.30921
1.23595
1.1408
1.08206
1.10637
1.17026
1.20955
1.21181
1.20189
1.1763
1.26497
1.16733
1.098
1.05638
1.0858
1.16099
1.20439
1.20867
1.19946
1.17406
1.23476
1.12745
1.07367
1.03977
1.06955
1.1513
1.20066
1.20939
1.19888
1.17184
1.23419
1.11359
1.06228
1.03349
1.05936
1.14062
1.19997
1.21101
1.19952
1.17097
1.23978
1.11047
1.05857
1.03307
1.05451
1.13023
1.19752
1.21134
1.20073
1.17127
1.25337
1.1161
1.05845
1.03748
1.05231
1.11941
1.19273
1.20988
1.2003
1.17252
1.2696
1.13175
1.0646
1.04172
1.05137
1.10688
1.18448
1.20604
1.19797
1.17186
1.28587
1.1536
1.0792
1.04612
1.05095
1.09342
1.17367
1.2021
1.19481
1.16956
1.30144
1.17503
1.09921
1.05504
1.05102
1.08135
1.1613
1.19877
1.19234
1.16658
1.31621
1.19517
1.11711
1.06897
1.05195
1.07262
1.14729
1.19523
1.18996
1.16409
1.32966
1.2144
1.13191
1.08079
1.05658
1.06667
1.13173
1.19102
1.18705
1.1623
1.34065
1.23183
1.14744
1.08955
1.06169
1.06115
1.11582
1.18569
1.18417
1.16037
1.34922
1.24624
1.16356
1.09969
1.06508
1.05811
1.10164
1.17909
1.18218
1.15835
1.35572
1.25817
1.1775
1.11307
1.06743
1.05666
1.08913
1.17085
1.1813
1.15638
1.36075
1.26855
1.18898
1.12624
1.07252
1.05674
1.07827
1.1596
1.17991
1.15449
1.3649
1.27788
1.19989
1.13661
1.08139
1.05805
1.06921
1.14552
1.17735
1.1527
1.36867
1.28625
1.21056
1.14592
1.09011
1.06121
1.06201
1.13017
1.17396
1.15067
1.37228
1.29387
1.22042
1.15584
1.09788
1.06484
1.05616
1.11581
1.16992
1.14847
1.37568
1.3009
1.22922
1.1657
1.10691
1.06698
1.0533
1.10209
1.16534
1.14645
1.37889
1.30735
1.23743
1.17472
1.11679
1.0695
1.05252
1.08917
1.15986
1.14467
1.38192
1.31331
1.2454
1.18337
1.12599
1.0738
1.05319
1.07699
1.15291
1.14253
1.68957
1.66587
1.64869
1.63052
1.61133
1.5918
1.57082
1.54729
1.51313
1.48672
1.65033
1.62627
1.61428
1.6
1.58507
1.56865
1.54978
1.52623
1.49143
1.44594
1.63176
1.61207
1.59933
1.58438
1.57048
1.55535
1.53726
1.51365
1.47922
1.43051
1.60859
1.59307
1.58171
1.56746
1.55452
1.53959
1.52181
1.49842
1.46522
1.4165
1.58403
1.5726
1.56468
1.5527
1.54114
1.52682
1.5099
1.48725
1.45564
1.40863
1.55921
1.55312
1.54882
1.53997
1.53071
1.51771
1.50189
1.47978
1.44975
1.40554
1.5499
1.54417
1.54028
1.53275
1.52473
1.5125
1.49755
1.47601
1.44765
1.40607
1.54717
1.54189
1.53767
1.53037
1.52248
1.51032
1.49582
1.47469
1.44766
1.4087
1.54545
1.54151
1.53746
1.53018
1.52194
1.50953
1.49519
1.47441
1.44848
1.41247
1.54242
1.53918
1.53522
1.52818
1.52006
1.50793
1.49404
1.4739
1.44923
1.41586
1.5375
1.53418
1.53017
1.52348
1.51578
1.50437
1.49127
1.47223
1.44904
1.41805
1.53122
1.52722
1.52316
1.51683
1.5096
1.499
1.48681
1.46911
1.44763
1.41896
1.52516
1.5205
1.5163
1.51011
1.50311
1.49312
1.48168
1.46523
1.44538
1.4191
1.51986
1.51476
1.51039
1.50423
1.49734
1.48779
1.47689
1.4615
1.44305
1.41899
1.51537
1.51002
1.50554
1.49943
1.49262
1.48343
1.47295
1.45847
1.44118
1.41899
1.51152
1.50603
1.5015
1.49547
1.48879
1.47995
1.46987
1.4562
1.43989
1.41926
1.50801
1.5025
1.49801
1.49211
1.48562
1.47714
1.46746
1.45457
1.43916
1.4199
1.50456
1.49924
1.49488
1.48918
1.48293
1.47482
1.46554
1.45336
1.43876
1.4207
1.501
1.49615
1.49203
1.48659
1.4806
1.47287
1.46399
1.45247
1.43865
1.42162
1.49723
1.49313
1.48938
1.48429
1.47861
1.47124
1.46272
1.45179
1.43867
1.42259
1.0011
1.00346
1.00614
1.00919
1.0127
1.01701
1.02088
1.03915
1.42682
1.57134
1.0011
1.00346
1.00614
1.00919
1.0127
1.01701
1.02088
1.03916
1.42647
1.56823
1.0011
1.00346
1.00614
1.00919
1.0127
1.01701
1.02089
1.03917
1.42712
1.56285
1.0011
1.00346
1.00614
1.00919
1.0127
1.01701
1.02089
1.03908
1.42841
1.55802
1.0011
1.00346
1.00614
1.00919
1.0127
1.01701
1.0209
1.03881
1.4297
1.55577
1.0011
1.00346
1.00614
1.00919
1.01269
1.01701
1.02091
1.03827
1.43029
1.55619
1.0011
1.00346
1.00614
1.00919
1.01269
1.01701
1.02092
1.0374
1.42908
1.55632
1.0011
1.00346
1.00614
1.00919
1.01269
1.01701
1.02094
1.0358
1.42587
1.55499
1.0011
1.00346
1.00614
1.00919
1.01269
1.01701
1.02097
1.03405
1.42124
1.55131
1.0011
1.00346
1.00614
1.00919
1.01268
1.017
1.021
1.03258
1.416
1.54543
1.0011
1.00346
1.00614
1.00919
1.01268
1.017
1.02105
1.03126
1.41095
1.53863
1.0011
1.00346
1.00614
1.00919
1.01268
1.01699
1.02111
1.03004
1.40649
1.53202
1.0011
1.00346
1.00614
1.0092
1.01268
1.01698
1.02117
1.02905
1.4026
1.52611
1.0011
1.00346
1.00614
1.0092
1.01268
1.01697
1.02123
1.02831
1.39907
1.52108
1.0011
1.00346
1.00614
1.0092
1.01268
1.01696
1.02129
1.02772
1.39563
1.51694
1.0011
1.00346
1.00614
1.0092
1.01268
1.01695
1.02134
1.02726
1.3921
1.51362
1.0011
1.00346
1.00614
1.0092
1.01268
1.01693
1.0214
1.02692
1.38835
1.51096
1.0011
1.00346
1.00613
1.0092
1.01268
1.01692
1.02146
1.02666
1.38428
1.50891
1.0011
1.00346
1.00613
1.0092
1.01268
1.0169
1.02151
1.02647
1.37984
1.50732
1.0011
1.00346
1.00613
1.0092
1.01268
1.01689
1.02157
1.02633
1.375
1.50624
1.0011
1.00346
1.00613
1.0092
1.01268
1.01689
1.02157
1.02633
1.375
1.50623
1.0011
1.00346
1.00613
1.0092
1.01268
1.0169
1.02151
1.02647
1.37984
1.50732
1.0011
1.00346
1.00613
1.0092
1.01268
1.01692
1.02146
1.02666
1.38428
1.50891
1.0011
1.00346
1.00614
1.0092
1.01268
1.01693
1.0214
1.02692
1.38834
1.51096
1.0011
1.00346
1.00614
1.0092
1.01268
1.01695
1.02134
1.02726
1.3921
1.51362
1.0011
1.00346
1.00614
1.0092
1.01268
1.01696
1.02129
1.02772
1.39563
1.51694
1.0011
1.00346
1.00614
1.0092
1.01268
1.01697
1.02123
1.02831
1.39907
1.52108
1.0011
1.00346
1.00614
1.0092
1.01268
1.01698
1.02117
1.02905
1.40259
1.52612
1.0011
1.00346
1.00614
1.00919
1.01268
1.01699
1.02111
1.03003
1.40648
1.53203
1.0011
1.00346
1.00614
1.00919
1.01268
1.017
1.02105
1.03126
1.41094
1.53865
1.0011
1.00346
1.00614
1.00919
1.01268
1.017
1.021
1.03258
1.41599
1.54544
1.0011
1.00346
1.00614
1.00919
1.01269
1.01701
1.02097
1.03405
1.42123
1.55132
1.0011
1.00346
1.00614
1.00919
1.01269
1.01701
1.02094
1.03579
1.42586
1.55499
1.0011
1.00346
1.00614
1.00919
1.01269
1.01701
1.02092
1.03739
1.42907
1.55632
1.0011
1.00346
1.00614
1.00919
1.01269
1.01701
1.02091
1.03827
1.43028
1.55618
1.0011
1.00346
1.00614
1.00919
1.0127
1.01701
1.0209
1.0388
1.42967
1.55574
1.0011
1.00346
1.00614
1.00919
1.0127
1.01701
1.02089
1.03907
1.42835
1.55798
1.0011
1.00346
1.00614
1.00919
1.0127
1.01701
1.02089
1.03916
1.42701
1.5628
1.0011
1.00346
1.00614
1.00919
1.0127
1.01701
1.02088
1.03912
1.42634
1.5682
1.0011
1.00346
1.00614
1.00919
1.0127
1.01701
1.02088
1.03924
1.42674
1.57133
1.49724
1.49314
1.48939
1.4843
1.47863
1.47126
1.46275
1.45182
1.4387
1.42262
1.50101
1.49617
1.49205
1.48661
1.48063
1.4729
1.46402
1.45251
1.43868
1.42165
1.50457
1.49925
1.49489
1.4892
1.48295
1.47485
1.46557
1.45339
1.43879
1.42072
1.50802
1.50251
1.49802
1.49214
1.48565
1.47718
1.4675
1.45461
1.43918
1.41991
1.51153
1.50604
1.50152
1.49549
1.48882
1.47998
1.4699
1.45623
1.4399
1.41926
1.51538
1.51004
1.50556
1.49945
1.49265
1.48346
1.47298
1.4585
1.44119
1.41898
1.51986
1.51477
1.5104
1.50426
1.49736
1.48782
1.47692
1.46152
1.44306
1.41896
1.52517
1.52052
1.51631
1.51013
1.50314
1.49315
1.48171
1.46525
1.44538
1.41906
1.53123
1.52724
1.52318
1.51686
1.50963
1.49902
1.48683
1.46912
1.44762
1.4189
1.53751
1.53419
1.53019
1.5235
1.5158
1.50439
1.49129
1.47223
1.449
1.41795
1.54242
1.53919
1.53523
1.52819
1.52007
1.50795
1.49405
1.47389
1.44918
1.41574
1.54545
1.54151
1.53746
1.53019
1.52195
1.50954
1.49519
1.47439
1.44842
1.41234
1.54718
1.5419
1.53769
1.53039
1.5225
1.51033
1.49582
1.47467
1.44759
1.40855
1.54992
1.54419
1.54031
1.53278
1.52475
1.51251
1.49756
1.47599
1.44757
1.40589
1.5593
1.55319
1.54887
1.54001
1.53074
1.51774
1.5019
1.47976
1.44967
1.40533
1.58409
1.57266
1.56472
1.55273
1.54117
1.52684
1.50991
1.48723
1.45557
1.4084
1.60861
1.59309
1.58173
1.56749
1.55455
1.53962
1.52183
1.49841
1.46515
1.41628
1.63176
1.61208
1.59934
1.5844
1.5705
1.55538
1.53728
1.51364
1.47916
1.43032
1.65035
1.6263
1.6143
1.60003
1.5851
1.56868
1.54981
1.52624
1.4914
1.44577
1.68962
1.66592
1.64873
1.63056
1.61137
1.59183
1.57085
1.54731
1.51313
1.48651
1.3819
1.31319
1.24523
1.18345
1.12633
1.07398
1.05307
1.07665
1.15292
1.1424
1.37885
1.30717
1.23726
1.17484
1.11725
1.06945
1.0523
1.08835
1.15959
1.14467
1.37562
1.30067
1.22899
1.16587
1.10756
1.06692
1.05291
1.10113
1.16509
1.14631
1.3722
1.29363
1.22012
1.15617
1.0988
1.06489
1.05524
1.11503
1.16981
1.14809
1.36859
1.28597
1.21028
1.14653
1.09094
1.06105
1.06079
1.12945
1.17403
1.15028
1.36481
1.27761
1.19977
1.13728
1.0821
1.05779
1.0676
1.14454
1.17762
1.15268
1.36064
1.2683
1.18905
1.12689
1.0733
1.05644
1.07639
1.15853
1.18023
1.15492
1.35555
1.25796
1.17747
1.11395
1.06825
1.05619
1.08723
1.17048
1.18168
1.15637
1.34903
1.24595
1.16348
1.10092
1.0659
1.0573
1.09987
1.17945
1.1825
1.15792
1.3404
1.23142
1.14765
1.09084
1.06272
1.06005
1.11358
1.18619
1.18429
1.15963
1.32935
1.21406
1.13253
1.08156
1.0577
1.0651
1.12878
1.19087
1.18753
1.16218
1.31586
1.19503
1.11739
1.06924
1.05353
1.07078
1.14494
1.19443
1.19071
1.16512
1.30107
1.17507
1.09872
1.05584
1.05272
1.07924
1.16066
1.19773
1.19332
1.16747
1.28544
1.15362
1.07823
1.04799
1.05272
1.0907
1.17394
1.20208
1.19556
1.16882
1.26896
1.13191
1.06311
1.04454
1.05411
1.10286
1.1839
1.20711
1.19839
1.17032
1.25244
1.1163
1.05624
1.04055
1.05716
1.11394
1.19123
1.20967
1.20086
1.1724
1.23856
1.11052
1.05555
1.03735
1.0607
1.12396
1.19595
1.21013
1.20128
1.17342
1.23281
1.11316
1.05817
1.04006
1.0675
1.13476
1.19917
1.20913
1.2
1.17286
1.23316
1.1257
1.06939
1.04877
1.07945
1.14521
1.20252
1.20917
1.19877
1.1703
1.26314
1.16361
1.09287
1.067
1.09717
1.15347
1.20474
1.21273
1.19951
1.1699
1.42528
1.39737
1.3597
1.31923
1.27197
1.21917
1.1627
1.10776
1.03922
0.960491
1.42517
1.39683
1.35927
1.31866
1.27131
1.21849
1.16209
1.10683
1.03833
0.961055
1.42499
1.39647
1.35924
1.31776
1.27022
1.21734
1.16099
1.10516
1.0368
0.961974
1.42474
1.39583
1.35859
1.31644
1.26862
1.21564
1.15937
1.10269
1.03479
0.963533
1.42442
1.39498
1.35762
1.31471
1.26647
1.21337
1.15718
1.0994
1.03241
0.96588
1.42399
1.39388
1.35623
1.31248
1.26373
1.21047
1.15434
1.0952
1.02992
0.969138
1.42342
1.39251
1.35434
1.30974
1.26036
1.20692
1.15082
1.09011
1.02754
0.973511
1.42266
1.39078
1.35187
1.30639
1.25633
1.20269
1.14651
1.0842
1.02566
0.979455
1.42165
1.38863
1.34878
1.30236
1.25156
1.19776
1.14137
1.07751
1.02394
0.987632
1.42036
1.38601
1.34501
1.2976
1.24608
1.19208
1.13527
1.07052
1.02179
0.999078
1.41875
1.3829
1.34051
1.29204
1.23978
1.18566
1.12811
1.06322
1.01881
1.01438
1.4168
1.37924
1.33533
1.28567
1.23271
1.17837
1.11998
1.0562
1.01733
1.0307
1.41449
1.37497
1.32925
1.27837
1.2248
1.17025
1.11069
1.05018
1.01774
1.04809
1.41181
1.37003
1.32235
1.27021
1.21596
1.16107
1.10066
1.04614
1.0207
1.06642
1.4087
1.36434
1.3145
1.26096
1.20629
1.15073
1.08991
1.04383
1.02796
1.08353
1.40516
1.35786
1.30562
1.25068
1.19544
1.13924
1.07987
1.04103
1.04154
1.09897
1.40118
1.35053
1.29557
1.23914
1.18358
1.12617
1.07098
1.03991
1.05992
1.11246
1.39675
1.34225
1.28432
1.22628
1.17028
1.11226
1.06493
1.04106
1.08451
1.12278
1.39182
1.33278
1.27156
1.21207
1.15553
1.09728
1.06024
1.04746
1.11229
1.13088
1.3863
1.32191
1.25711
1.19616
1.13937
1.08342
1.05536
1.062
1.13806
1.13754
1.3863
1.322
1.25725
1.19624
1.13916
1.08328
1.05541
1.06209
1.13802
1.13772
1.39181
1.33283
1.2717
1.21215
1.15548
1.0972
1.06017
1.04731
1.11212
1.13102
1.39673
1.34227
1.28439
1.22636
1.17031
1.11231
1.0649
1.04089
1.08414
1.12278
1.40115
1.35052
1.2956
1.23918
1.18364
1.12626
1.07098
1.03981
1.05944
1.11236
1.40512
1.35783
1.30561
1.25071
1.19549
1.13934
1.07998
1.04094
1.04116
1.09878
1.40866
1.36431
1.31448
1.26096
1.20631
1.15082
1.09004
1.04374
1.02769
1.08323
1.41178
1.36999
1.32231
1.27018
1.21597
1.16113
1.10079
1.04613
1.02052
1.06606
1.41447
1.37493
1.32921
1.27833
1.22478
1.17029
1.1108
1.05022
1.01766
1.04775
1.41679
1.37921
1.33529
1.28562
1.23268
1.17837
1.12004
1.05628
1.01728
1.03049
1.41874
1.38287
1.34047
1.29199
1.23974
1.18565
1.12814
1.06328
1.01878
1.01429
1.42036
1.38599
1.34498
1.29755
1.24603
1.19205
1.13527
1.07055
1.02181
0.999095
1.42165
1.38862
1.34875
1.30232
1.25152
1.19773
1.14135
1.07752
1.02397
0.987709
1.42266
1.39077
1.35186
1.30636
1.25629
1.20266
1.14648
1.08418
1.02569
0.979552
1.42342
1.3925
1.35433
1.30972
1.26033
1.20689
1.15079
1.09009
1.02756
0.973605
1.42399
1.39388
1.35623
1.31247
1.26371
1.21045
1.15432
1.09517
1.02991
0.969211
1.42442
1.39498
1.35762
1.31471
1.26647
1.21336
1.15716
1.09937
1.03239
0.965926
1.42474
1.39584
1.3586
1.31644
1.26862
1.21564
1.15936
1.10267
1.03477
0.963555
1.42499
1.39648
1.35925
1.31777
1.27023
1.21734
1.16099
1.10515
1.03677
0.961974
1.42517
1.39684
1.35928
1.31867
1.27133
1.2185
1.1621
1.10683
1.0383
0.961041
1.42528
1.39738
1.35972
1.31925
1.27199
1.21918
1.16271
1.10777
1.0392
0.960468
1.49337
1.48995
1.48653
1.48179
1.47642
1.46946
1.46139
1.45119
1.43893
1.4241
1.49012
1.48695
1.48375
1.47934
1.47429
1.46782
1.46028
1.45095
1.43967
1.42628
1.48786
1.48467
1.48162
1.47747
1.4727
1.46667
1.45961
1.45101
1.4406
1.42837
1.48623
1.48295
1.48
1.47604
1.4715
1.46588
1.45925
1.45127
1.44164
1.43038
1.48502
1.48164
1.47874
1.47493
1.4706
1.46532
1.45907
1.45166
1.4427
1.43226
1.48403
1.48059
1.47775
1.47407
1.4699
1.46492
1.45898
1.45204
1.44369
1.43396
1.48316
1.47972
1.47694
1.47337
1.46934
1.46458
1.45891
1.45238
1.44455
1.43545
1.48234
1.47897
1.47626
1.4728
1.46887
1.46427
1.45889
1.4527
1.44531
1.43674
1.48161
1.4783
1.47565
1.47227
1.46845
1.46404
1.4589
1.45298
1.44598
1.43786
1.48102
1.47776
1.47515
1.47186
1.46815
1.46388
1.45891
1.4532
1.44653
1.43879
1.48052
1.4773
1.4747
1.47146
1.46783
1.46367
1.45885
1.45333
1.44694
1.43953
1.48011
1.4769
1.4743
1.47109
1.46751
1.46342
1.45874
1.45338
1.44722
1.44009
1.47978
1.47657
1.47395
1.47076
1.46721
1.46317
1.45858
1.45335
1.44737
1.44047
1.47952
1.47631
1.47367
1.47047
1.46694
1.46294
1.45842
1.45329
1.44745
1.44073
1.47934
1.47612
1.47345
1.47025
1.46672
1.46274
1.45827
1.45321
1.44748
1.44091
1.47923
1.476
1.47331
1.47009
1.46656
1.46259
1.45816
1.45315
1.4475
1.44105
1.47919
1.47594
1.47323
1.47
1.46648
1.46252
1.45811
1.45313
1.44754
1.44116
1.4792
1.47595
1.47323
1.46999
1.46647
1.46251
1.45812
1.45315
1.44759
1.44127
1.47925
1.47599
1.47326
1.47001
1.46648
1.46252
1.45813
1.45318
1.44765
1.44135
1.4793
1.47606
1.47333
1.47008
1.46655
1.46258
1.45819
1.45324
1.44773
1.44145
1.0011
1.00346
1.00613
1.0092
1.01269
1.01688
1.02163
1.02621
1.36837
1.50536
1.0011
1.00346
1.00613
1.0092
1.01268
1.01687
1.0217
1.02612
1.36004
1.5046
1.0011
1.00346
1.00613
1.0092
1.01268
1.01686
1.02177
1.02607
1.35152
1.50411
1.0011
1.00346
1.00613
1.0092
1.01268
1.01687
1.02182
1.02605
1.34302
1.50373
1.0011
1.00346
1.00613
1.0092
1.01268
1.01687
1.02188
1.02605
1.33476
1.50336
1.0011
1.00346
1.00613
1.0092
1.01268
1.01687
1.02192
1.02606
1.32697
1.50288
1.0011
1.00346
1.00613
1.0092
1.01268
1.01686
1.02196
1.02609
1.31985
1.50214
1.0011
1.00346
1.00613
1.0092
1.01269
1.01684
1.02199
1.02612
1.31352
1.50108
1.0011
1.00346
1.00613
1.0092
1.01269
1.01682
1.02202
1.02615
1.30782
1.49985
1.0011
1.00346
1.00613
1.0092
1.0127
1.0168
1.02204
1.02618
1.30243
1.49865
1.0011
1.00346
1.00613
1.0092
1.0127
1.01678
1.02206
1.02622
1.29745
1.49749
1.0011
1.00346
1.00613
1.0092
1.01271
1.01677
1.02207
1.02625
1.29289
1.4964
1.0011
1.00346
1.00613
1.0092
1.01272
1.01675
1.02209
1.02627
1.28878
1.4954
1.0011
1.00346
1.00613
1.00919
1.01273
1.01674
1.0221
1.0263
1.28513
1.4945
1.0011
1.00346
1.00613
1.00919
1.01273
1.01672
1.02212
1.02632
1.28197
1.49373
1.0011
1.00346
1.00613
1.00919
1.01274
1.01671
1.02215
1.02633
1.27932
1.4931
1.0011
1.00346
1.00613
1.00919
1.01274
1.01671
1.02217
1.02634
1.27719
1.49262
1.0011
1.00346
1.00614
1.00919
1.01275
1.0167
1.0222
1.02635
1.27557
1.49229
1.0011
1.00346
1.00614
1.00918
1.01275
1.0167
1.02221
1.02635
1.27453
1.49211
1.0011
1.00346
1.00614
1.00918
1.01275
1.01669
1.02224
1.02635
1.27407
1.49206
1.0011
1.00346
1.00614
1.00918
1.01275
1.01669
1.02224
1.02635
1.27407
1.49206
1.0011
1.00346
1.00614
1.00918
1.01275
1.0167
1.02221
1.02635
1.27453
1.49211
1.0011
1.00346
1.00614
1.00919
1.01275
1.0167
1.0222
1.02635
1.27557
1.4923
1.0011
1.00346
1.00613
1.00919
1.01274
1.01671
1.02217
1.02634
1.27719
1.49262
1.0011
1.00346
1.00613
1.00919
1.01274
1.01671
1.02215
1.02633
1.27932
1.4931
1.0011
1.00346
1.00613
1.00919
1.01273
1.01672
1.02212
1.02632
1.28197
1.49373
1.0011
1.00346
1.00613
1.00919
1.01273
1.01674
1.0221
1.0263
1.28513
1.4945
1.0011
1.00346
1.00613
1.0092
1.01272
1.01675
1.02209
1.02627
1.28878
1.4954
1.0011
1.00346
1.00613
1.0092
1.01271
1.01677
1.02207
1.02625
1.29289
1.4964
1.0011
1.00346
1.00613
1.0092
1.0127
1.01678
1.02206
1.02622
1.29745
1.49749
1.0011
1.00346
1.00613
1.0092
1.0127
1.0168
1.02204
1.02618
1.30243
1.49865
1.0011
1.00346
1.00613
1.0092
1.01269
1.01682
1.02202
1.02615
1.30782
1.49985
1.0011
1.00346
1.00613
1.0092
1.01269
1.01684
1.02199
1.02612
1.31352
1.50108
1.0011
1.00346
1.00613
1.0092
1.01268
1.01686
1.02196
1.02609
1.31985
1.50214
1.0011
1.00346
1.00613
1.0092
1.01268
1.01687
1.02192
1.02606
1.32697
1.50287
1.0011
1.00346
1.00613
1.0092
1.01268
1.01687
1.02188
1.02605
1.33476
1.50336
1.0011
1.00346
1.00613
1.0092
1.01268
1.01687
1.02182
1.02605
1.34302
1.50373
1.0011
1.00346
1.00613
1.0092
1.01268
1.01686
1.02177
1.02607
1.35152
1.5041
1.0011
1.00346
1.00613
1.0092
1.01268
1.01687
1.0217
1.02612
1.36004
1.5046
1.0011
1.00346
1.00613
1.0092
1.01269
1.01688
1.02163
1.02621
1.36837
1.50535
1.4793
1.47606
1.47333
1.47009
1.46656
1.46259
1.4582
1.45325
1.44773
1.44146
1.47925
1.47599
1.47326
1.47001
1.46648
1.46252
1.45813
1.45318
1.44765
1.44135
1.4792
1.47595
1.47323
1.46999
1.46647
1.46251
1.45812
1.45315
1.4476
1.44127
1.47919
1.47594
1.47323
1.47
1.46648
1.46252
1.45811
1.45313
1.44754
1.44116
1.47923
1.476
1.47331
1.47009
1.46656
1.46259
1.45816
1.45315
1.4475
1.44104
1.47934
1.47612
1.47345
1.47025
1.46672
1.46274
1.45827
1.4532
1.44747
1.4409
1.47952
1.47631
1.47367
1.47047
1.46694
1.46294
1.45841
1.45328
1.44744
1.44073
1.47978
1.47657
1.47395
1.47076
1.4672
1.46317
1.45858
1.45335
1.44736
1.44046
1.48011
1.4769
1.4743
1.47109
1.46751
1.46342
1.45873
1.45337
1.44721
1.44008
1.48052
1.4773
1.4747
1.47146
1.46783
1.46366
1.45884
1.45333
1.44693
1.43953
1.48102
1.47776
1.47514
1.47185
1.46815
1.46388
1.4589
1.4532
1.44652
1.43879
1.48161
1.47829
1.47564
1.47227
1.46844
1.46404
1.45889
1.45298
1.44598
1.43786
1.48234
1.47897
1.47626
1.47279
1.46886
1.46427
1.45889
1.4527
1.44531
1.43675
1.48315
1.47972
1.47693
1.47336
1.46934
1.46457
1.45891
1.45238
1.44456
1.43547
1.48403
1.48058
1.47774
1.47406
1.46989
1.46492
1.45898
1.45205
1.4437
1.43398
1.48501
1.48163
1.47873
1.47493
1.47059
1.46532
1.45908
1.45167
1.44272
1.43229
1.48623
1.48295
1.47999
1.47603
1.4715
1.46588
1.45926
1.45129
1.44166
1.43041
1.48785
1.48467
1.48162
1.47747
1.4727
1.46668
1.45962
1.45103
1.44064
1.42841
1.49012
1.48695
1.48375
1.47935
1.4743
1.46784
1.4603
1.45098
1.4397
1.42632
1.49338
1.48995
1.48653
1.4818
1.47644
1.46949
1.46142
1.45122
1.43896
1.42414
)
;

boundaryField
{
    inlet
    {
        type            fixedValue;
        value           uniform 1;
    }
    outlet
    {
        type            inletOutlet;
        inletValue      uniform 1;
        value           nonuniform List<scalar> 
100
(
1.13758
1.13087
1.12264
1.11222
1.09864
1.0831
1.06593
1.04763
1.03038
1.01419
0.998994
0.987607
0.979449
0.973501
0.969106
0.96582
0.963448
0.961866
0.960932
0.960359
1.17382
1.17146
1.1708
1.17129
1.1725
1.17175
1.16932
1.16647
1.16405
1.16225
1.16025
1.1582
1.15623
1.15439
1.15257
1.15052
1.1483
1.14631
1.14454
1.14239
1.17279
1.18048
1.19095
1.20064
1.22229
1.2704
1.32365
1.3654
1.39375
1.40286
1.39702
1.3839
1.3573
1.3076
1.26245
1.2263
1.19584
1.18089
1.17825
1.17622
1.14224
1.14455
1.14621
1.14794
1.15008
1.15249
1.15479
1.15635
1.1578
1.15949
1.16199
1.16502
1.16751
1.16875
1.17013
1.17202
1.17326
1.17302
1.17046
1.16965
0.960381
0.960946
0.961866
0.963427
0.965774
0.969033
0.973407
0.979351
0.987527
0.998972
1.01427
1.03059
1.04797
1.0663
1.0834
1.09883
1.11232
1.12264
1.13074
1.13738
)
;
    }
    triangle
    {
        type            zeroGradient;
    }
    top
    {
        type            symmetryPlane;
    }
    bottom
    {
        type            symmetryPlane;
    }
    defaultFaces
    {
        type            empty;
    }
}


// ************************************************************************* //
