/*--------------------------------*- C++ -*----------------------------------*\
  =========                 |
  \\      /  F ield         | OpenFOAM: The Open Source CFD Toolbox
   \\    /   O peration     | Website:  https://openfoam.org
    \\  /    A nd           | Version:  8
     \\/     M anipulation  |
\*---------------------------------------------------------------------------*/
FoamFile
{
    version     2.0;
    format      ascii;
    class       volVectorField;
    location    "2.7";
    object      U;
}
// * * * * * * * * * * * * * * * * * * * * * * * * * * * * * * * * * * * * * //

dimensions      [0 1 -1 0 0 0 0];

internalField   nonuniform List<vector> 
2600
(
(0.738356 0.0560792 0)
(1.30231 0.172514 0)
(1.55776 0.306094 0)
(1.62498 0.347256 0)
(1.58747 0.270837 0)
(1.50004 0.174519 0)
(1.38845 0.0981587 0)
(1.36695 0.055586 0)
(1.39141 0.0241619 0)
(1.43081 0.0019315 0)
(0.249039 -0.124717 0)
(0.915058 0.122491 0)
(1.40383 0.274906 0)
(1.57547 0.326522 0)
(1.57318 0.241209 0)
(1.50191 0.160372 0)
(1.38777 0.0960062 0)
(1.36443 0.0552948 0)
(1.38851 0.0200825 0)
(1.42875 -0.00492526 0)
(0.0300227 -0.119019 0)
(0.50815 0.0536097 0)
(1.13808 0.224468 0)
(1.47067 0.286062 0)
(1.53036 0.212989 0)
(1.49183 0.147092 0)
(1.38804 0.100257 0)
(1.36272 0.0656321 0)
(1.38604 0.0237629 0)
(1.4234 -0.010808 0)
(-0.0560548 -0.14776 0)
(0.203895 0.00913057 0)
(0.796927 0.169869 0)
(1.27956 0.250361 0)
(1.44164 0.184561 0)
(1.4604 0.128808 0)
(1.37932 0.0973027 0)
(1.35255 0.0647251 0)
(1.37611 0.0409498 0)
(1.4089 0.00544764 0)
(-0.10843 -0.1442 0)
(0.0032877 -0.0385297 0)
(0.442353 0.096418 0)
(0.986219 0.198732 0)
(1.26725 0.172684 0)
(1.37922 0.121303 0)
(1.34748 0.075498 0)
(1.32023 0.0362774 0)
(1.3389 0.0356954 0)
(1.36944 0.0191287 0)
(-0.147689 -0.138608 0)
(-0.146726 -0.0518002 0)
(0.105674 0.0263178 0)
(0.597621 0.103769 0)
(0.969052 0.0984266 0)
(1.1977 0.116769 0)
(1.24957 0.0942093 0)
(1.23416 0.0450304 0)
(1.25732 0.00404838 0)
(1.29125 0.00283384 0)
(-0.180319 -0.121894 0)
(-0.269031 -0.0550083 0)
(-0.187368 0.00054607 0)
(0.156758 0.0625413 0)
(0.551967 0.0799371 0)
(0.883176 0.0832238 0)
(1.04644 0.0794437 0)
(1.07409 0.0635267 0)
(1.1211 0.0243548 0)
(1.18299 -0.00312694 0)
(-0.202398 -0.0909309 0)
(-0.369537 -0.0423322 0)
(-0.399153 0.0124275 0)
(-0.214224 0.05292 0)
(0.136889 0.0507212 0)
(0.504877 0.0493032 0)
(0.759391 0.0623307 0)
(0.862846 0.0408899 0)
(0.967053 0.0317005 0)
(1.07417 -0.00761141 0)
(-0.219518 -0.0549146 0)
(-0.434957 -0.0272179 0)
(-0.513871 0.0160163 0)
(-0.432653 0.0614632 0)
(-0.133824 0.0381581 0)
(0.212223 0.0130014 0)
(0.506084 0.0378662 0)
(0.691423 0.0449023 0)
(0.859208 0.0175542 0)
(1.00419 0.00226937 0)
(-0.229121 -0.0174663 0)
(-0.461457 -0.00514453 0)
(-0.551919 0.020417 0)
(-0.502206 0.0362226 0)
(-0.219896 -0.0140398 0)
(0.0997683 -0.00206043 0)
(0.382972 0.04174 0)
(0.616525 0.0219209 0)
(0.822275 0.00809817 0)
(0.981996 0.00587227 0)
(-0.229962 0.0185212 0)
(-0.459819 0.0180027 0)
(-0.549099 0.0175038 0)
(-0.495917 0.00603328 0)
(-0.202049 -0.0606535 0)
(0.0982886 -0.0327826 0)
(0.367116 0.0075277 0)
(0.613946 -0.0086222 0)
(0.826901 -0.0148329 0)
(0.984127 0.000443765 0)
(-0.217452 0.0539278 0)
(-0.43134 0.0368843 0)
(-0.508487 0.00618891 0)
(-0.396525 -0.0193094 0)
(-0.0429041 -0.0787585 0)
(0.204703 -0.0611559 0)
(0.429225 -0.0347852 0)
(0.674037 -0.0160331 0)
(0.884378 -0.0274114 0)
(1.01169 -0.00370071 0)
(-0.20462 0.0879822 0)
(-0.365084 0.0491188 0)
(-0.390656 0.0118945 0)
(-0.144283 -0.0404319 0)
(0.30808 -0.12209 0)
(0.485325 -0.0683517 0)
(0.6275 -0.0214426 0)
(0.841523 -0.0327841 0)
(1.01118 -0.0237191 0)
(1.08394 -0.0248393 0)
(-0.181796 0.116909 0)
(-0.266889 0.060341 0)
(-0.179412 0.0214318 0)
(0.241136 -0.0420821 0)
(0.747984 -0.108379 0)
(0.847618 -0.101432 0)
(0.912177 -0.0764137 0)
(1.06234 -0.0444416 0)
(1.16731 -0.0340126 0)
(1.19347 -0.0124244 0)
(-0.148942 0.134382 0)
(-0.147312 0.0577231 0)
(0.106281 -0.00947969 0)
(0.66355 -0.123572 0)
(1.119 -0.165754 0)
(1.1509 -0.103969 0)
(1.16186 -0.0462081 0)
(1.24291 -0.0370218 0)
(1.28827 -0.0347766 0)
(1.29888 -0.00692073 0)
(-0.109772 0.142208 0)
(-0.00163222 0.0460024 0)
(0.436001 -0.0762831 0)
(1.03254 -0.199943 0)
(1.35599 -0.205631 0)
(1.32805 -0.101979 0)
(1.31329 -0.063559 0)
(1.33936 -0.0712943 0)
(1.35528 -0.0339929 0)
(1.37061 0.00832036 0)
(-0.0584894 0.148357 0)
(0.193829 -0.000127702 0)
(0.787544 -0.155191 0)
(1.31039 -0.268668 0)
(1.48802 -0.230834 0)
(1.4075 -0.116595 0)
(1.38132 -0.0815184 0)
(1.37294 -0.0625101 0)
(1.38419 -0.0384594 0)
(1.40738 -0.00944451 0)
(0.0270378 0.121878 0)
(0.493265 -0.0474535 0)
(1.13337 -0.21363 0)
(1.49474 -0.305248 0)
(1.55762 -0.255763 0)
(1.43909 -0.126109 0)
(1.4019 -0.0749019 0)
(1.37826 -0.0497151 0)
(1.39167 -0.030214 0)
(1.42267 -0.0135142 0)
(0.245096 0.121246 0)
(0.899528 -0.116752 0)
(1.40606 -0.26744 0)
(1.59324 -0.347711 0)
(1.58919 -0.278804 0)
(1.44996 -0.140973 0)
(1.40523 -0.078614 0)
(1.37888 -0.0544344 0)
(1.39308 -0.0315788 0)
(1.42607 -0.00344377 0)
(0.732114 -0.0558411 0)
(1.29142 -0.167242 0)
(1.56573 -0.293756 0)
(1.63923 -0.366057 0)
(1.59923 -0.303376 0)
(1.45006 -0.157924 0)
(1.40357 -0.0862096 0)
(1.37952 -0.0608927 0)
(1.39434 -0.0337996 0)
(1.42778 0.00141456 0)
(1.30811 0.000132247 0)
(1.53714 -0.197487 0)
(1.63919 -0.311515 0)
(1.65556 -0.38413 0)
(1.60678 -0.323175 0)
(1.45309 -0.170675 0)
(1.40265 -0.0943017 0)
(1.38285 -0.0682689 0)
(1.39845 -0.0367721 0)
(1.4309 0.000699585 0)
(1.44065 0.113644 0)
(1.62971 -0.185395 0)
(1.67137 -0.309359 0)
(1.66367 -0.389237 0)
(1.61504 -0.340601 0)
(1.47262 -0.190827 0)
(1.41109 -0.108355 0)
(1.38811 -0.0687969 0)
(1.40387 -0.0379312 0)
(1.43558 -0.00252311 0)
(1.43856 0.156141 0)
(1.64243 -0.167957 0)
(1.6744 -0.311854 0)
(1.66139 -0.393389 0)
(1.62255 -0.36301 0)
(1.48905 -0.208194 0)
(1.42759 -0.115965 0)
(1.39557 -0.0671129 0)
(1.40967 -0.0362203 0)
(1.43933 -0.00436684 0)
(1.39582 0.186839 0)
(1.61612 -0.130509 0)
(1.66843 -0.303005 0)
(1.65503 -0.39219 0)
(1.62866 -0.387048 0)
(1.50984 -0.235843 0)
(1.4492 -0.121575 0)
(1.40376 -0.0684861 0)
(1.41562 -0.034281 0)
(1.44254 -0.00234303 0)
(1.35853 0.197618 0)
(1.58361 -0.105195 0)
(1.65481 -0.287274 0)
(1.64818 -0.392256 0)
(1.63264 -0.402984 0)
(1.5325 -0.266801 0)
(1.47196 -0.134096 0)
(1.40982 -0.0723551 0)
(1.42034 -0.034333 0)
(1.4453 0.000737628 0)
(1.32593 0.201017 0)
(1.54874 -0.0712655 0)
(1.63849 -0.263845 0)
(1.64423 -0.380908 0)
(1.63633 -0.409068 0)
(1.56013 -0.299131 0)
(1.49198 -0.152311 0)
(1.40995 -0.0766789 0)
(1.42236 -0.0355736 0)
(1.44749 0.00222483 0)
(1.29633 0.202361 0)
(1.52116 -0.0522617 0)
(1.61748 -0.239574 0)
(1.63812 -0.365343 0)
(1.63561 -0.409463 0)
(1.58058 -0.325521 0)
(1.50698 -0.172457 0)
(1.40549 -0.0789127 0)
(1.4219 -0.0369558 0)
(1.44869 0.00102366 0)
(1.2718 0.199915 0)
(1.4921 -0.0251224 0)
(1.599 -0.223732 0)
(1.63533 -0.35436 0)
(1.63335 -0.407133 0)
(1.59704 -0.349883 0)
(1.52028 -0.192336 0)
(1.40056 -0.0807376 0)
(1.42118 -0.0368986 0)
(1.44861 0.00029675 0)
(1.25083 0.197323 0)
(1.46599 -0.00390175 0)
(1.58159 -0.202657 0)
(1.62844 -0.350499 0)
(1.63142 -0.405755 0)
(1.60767 -0.369819 0)
(1.53049 -0.209774 0)
(1.40048 -0.0847204 0)
(1.42054 -0.0375956 0)
(1.44891 0.00161437 0)
(1.2331 0.193998 0)
(1.43931 0.0147978 0)
(1.56122 -0.17306 0)
(1.61896 -0.33734 0)
(1.63096 -0.408043 0)
(1.61448 -0.386671 0)
(1.54034 -0.231934 0)
(1.4071 -0.0904377 0)
(1.42073 -0.0387753 0)
(1.45025 0.00333014 0)
(1.21739 0.190899 0)
(1.41715 0.0256788 0)
(1.5399 -0.149656 0)
(1.60854 -0.310792 0)
(1.62871 -0.408014 0)
(1.6162 -0.39763 0)
(1.55157 -0.260277 0)
(1.41968 -0.100863 0)
(1.42309 -0.0408183 0)
(1.45293 0.00438756 0)
(1.2035 0.186581 0)
(1.39544 0.0366713 0)
(1.52053 -0.133685 0)
(1.59272 -0.283376 0)
(1.62638 -0.399559 0)
(1.61548 -0.400494 0)
(1.56611 -0.289985 0)
(1.4323 -0.110976 0)
(1.42817 -0.0441985 0)
(1.45737 0.00441535 0)
(1.1914 0.181649 0)
(1.37533 0.0456025 0)
(1.50273 -0.118837 0)
(1.57882 -0.266887 0)
(1.62115 -0.38271 0)
(1.61219 -0.401422 0)
(1.57893 -0.313692 0)
(1.45169 -0.125298 0)
(1.43532 -0.0461382 0)
(1.4624 0.00514739 0)
(1.18088 0.176882 0)
(1.35643 0.0529444 0)
(1.48404 -0.100394 0)
(1.56512 -0.251521 0)
(1.61041 -0.366915 0)
(1.61152 -0.400583 0)
(1.5895 -0.333674 0)
(1.4687 -0.138201 0)
(1.44343 -0.0477211 0)
(1.4682 0.00649699 0)
(1.17123 0.172202 0)
(1.33939 0.0582095 0)
(1.46569 -0.0845154 0)
(1.55111 -0.231789 0)
(1.59977 -0.356438 0)
(1.61134 -0.398723 0)
(1.59757 -0.349542 0)
(1.49387 -0.159275 0)
(1.45235 -0.0509546 0)
(1.47312 0.00868964 0)
(1.16251 0.167947 0)
(1.32335 0.063225 0)
(1.44814 -0.071693 0)
(1.53442 -0.210031 0)
(1.58983 -0.341071 0)
(1.61059 -0.398033 0)
(1.60416 -0.361581 0)
(1.51461 -0.180905 0)
(1.4598 -0.0555393 0)
(1.47644 0.00965367 0)
(1.15421 0.163512 0)
(1.30813 0.067584 0)
(1.43145 -0.0606491 0)
(1.51882 -0.194009 0)
(1.57831 -0.318713 0)
(1.60922 -0.395116 0)
(1.60967 -0.369574 0)
(1.53645 -0.206892 0)
(1.46581 -0.0611317 0)
(1.47758 0.0105572 0)
(1.14676 0.159229 0)
(1.2938 0.0708301 0)
(1.41506 -0.0503627 0)
(1.50368 -0.179666 0)
(1.56559 -0.29854 0)
(1.60721 -0.386792 0)
(1.61468 -0.374386 0)
(1.55279 -0.229169 0)
(1.47126 -0.0672666 0)
(1.47804 0.0107793 0)
(1.1399 0.154912 0)
(1.28035 0.072873 0)
(1.39889 -0.0410328 0)
(1.48964 -0.166045 0)
(1.5546 -0.28252 0)
(1.60663 -0.378513 0)
(1.61472 -0.374858 0)
(1.56771 -0.25175 0)
(1.47934 -0.0750418 0)
(1.48082 0.0115614 0)
(1.13267 0.150492 0)
(1.26777 0.0742822 0)
(1.38445 -0.0334291 0)
(1.47568 -0.151631 0)
(1.54439 -0.26657 0)
(1.60237 -0.365339 0)
(1.61442 -0.374991 0)
(1.58074 -0.27183 0)
(1.49331 -0.0838113 0)
(1.48682 0.0117281 0)
(0.386552 0.116823 0)
(0.466687 0.157443 0)
(0.512819 0.219529 0)
(0.562655 0.26512 0)
(0.605881 0.303353 0)
(0.648523 0.33446 0)
(0.693398 0.363783 0)
(0.748944 0.391965 0)
(0.825769 0.429535 0)
(0.9668 0.466831 0)
(0.417321 0.147929 0)
(0.478423 0.17431 0)
(0.510944 0.222916 0)
(0.556648 0.263886 0)
(0.598596 0.301758 0)
(0.642952 0.332908 0)
(0.690461 0.362643 0)
(0.748896 0.391558 0)
(0.828598 0.429115 0)
(0.965473 0.455686 0)
(0.47291 0.137917 0)
(0.520059 0.157609 0)
(0.53796 0.19742 0)
(0.573641 0.235653 0)
(0.608285 0.275136 0)
(0.651616 0.308515 0)
(0.700949 0.341353 0)
(0.762566 0.371374 0)
(0.846723 0.408897 0)
(0.989148 0.42215 0)
(0.526012 0.142479 0)
(0.562195 0.167893 0)
(0.572089 0.205018 0)
(0.603432 0.234283 0)
(0.631416 0.266273 0)
(0.669391 0.294001 0)
(0.713062 0.323957 0)
(0.771084 0.35131 0)
(0.854494 0.385172 0)
(0.995447 0.389759 0)
(0.570351 0.140845 0)
(0.59727 0.164036 0)
(0.604764 0.198041 0)
(0.63393 0.225352 0)
(0.657585 0.257005 0)
(0.693637 0.283618 0)
(0.735564 0.312574 0)
(0.793466 0.336817 0)
(0.877445 0.367437 0)
(1.01445 0.364708 0)
(0.608126 0.146512 0)
(0.629407 0.166965 0)
(0.636245 0.197476 0)
(0.662879 0.222097 0)
(0.683641 0.251098 0)
(0.718317 0.274448 0)
(0.758524 0.301396 0)
(0.815241 0.322105 0)
(0.896553 0.348144 0)
(1.0258 0.342795 0)
(0.647373 0.146946 0)
(0.662791 0.165575 0)
(0.666701 0.192256 0)
(0.688701 0.214686 0)
(0.706542 0.241532 0)
(0.739637 0.262625 0)
(0.778013 0.287928 0)
(0.833319 0.306025 0)
(0.910555 0.327902 0)
(1.03102 0.322154 0)
(0.684099 0.157978 0)
(0.694574 0.174265 0)
(0.697244 0.196211 0)
(0.715927 0.2141 0)
(0.732208 0.237002 0)
(0.763512 0.254399 0)
(0.799689 0.276942 0)
(0.852596 0.29195 0)
(0.924802 0.309888 0)
(1.03506 0.303293 0)
(0.715183 0.166105 0)
(0.722099 0.178952 0)
(0.724759 0.196464 0)
(0.741441 0.211086 0)
(0.757037 0.231198 0)
(0.786746 0.246103 0)
(0.820981 0.266279 0)
(0.871459 0.279054 0)
(0.938494 0.293021 0)
(1.03821 0.28648 0)
(0.737572 0.173141 0)
(0.744174 0.182636 0)
(0.748581 0.196653 0)
(0.764662 0.20844 0)
(0.78018 0.225705 0)
(0.808316 0.238074 0)
(0.840665 0.255764 0)
(0.888345 0.266427 0)
(0.950435 0.277521 0)
(1.04022 0.27126 0)
(0.75605 0.175055 0)
(0.764297 0.182132 0)
(0.77023 0.193972 0)
(0.785888 0.204209 0)
(0.801333 0.219463 0)
(0.827965 0.230054 0)
(0.85851 0.245535 0)
(0.903234 0.25454 0)
(0.960061 0.26261 0)
(1.0408 0.257134 0)
(0.774292 0.175703 0)
(0.78447 0.181405 0)
(0.791161 0.191673 0)
(0.806187 0.200441 0)
(0.821364 0.213723 0)
(0.846434 0.222785 0)
(0.875221 0.236152 0)
(0.916983 0.243837 0)
(0.969153 0.249853 0)
(1.0419 0.244548 0)
(0.791843 0.174685 0)
(0.803385 0.17932 0)
(0.810499 0.188339 0)
(0.824945 0.196007 0)
(0.839785 0.207724 0)
(0.86335 0.215686 0)
(0.890523 0.227355 0)
(0.929347 0.233921 0)
(0.977645 0.238662 0)
(1.04346 0.233363 0)
(0.807494 0.172147 0)
(0.819954 0.176082 0)
(0.827503 0.184268 0)
(0.84155 0.191092 0)
(0.856078 0.201497 0)
(0.878247 0.208538 0)
(0.903885 0.218682 0)
(0.940038 0.22445 0)
(0.98458 0.22794 0)
(1.04437 0.223117 0)
(0.82117 0.168101 0)
(0.834238 0.171632 0)
(0.842188 0.179296 0)
(0.85595 0.18558 0)
(0.870187 0.195006 0)
(0.891146 0.201436 0)
(0.915418 0.210359 0)
(0.949117 0.215491 0)
(0.990255 0.218133 0)
(1.04452 0.213745 0)
(0.833409 0.163001 0)
(0.846833 0.166389 0)
(0.855028 0.173726 0)
(0.868476 0.179657 0)
(0.88233 0.18829 0)
(0.902129 0.194217 0)
(0.925041 0.202071 0)
(0.956422 0.206728 0)
(0.994526 0.208774 0)
(1.04438 0.205075 0)
(0.844771 0.157005 0)
(0.858209 0.160564 0)
(0.866435 0.167806 0)
(0.879526 0.173622 0)
(0.892985 0.181727 0)
(0.911821 0.187399 0)
(0.933603 0.194457 0)
(0.96293 0.198796 0)
(0.998278 0.20033 0)
(1.04367 0.196936 0)
(0.855989 0.150675 0)
(0.86872 0.154505 0)
(0.876566 0.1616 0)
(0.888971 0.167262 0)
(0.901674 0.174791 0)
(0.919333 0.180123 0)
(0.939916 0.186486 0)
(0.967516 0.190729 0)
(1.00085 0.192219 0)
(1.04302 0.189469 0)
(0.86725 0.144596 0)
(0.878594 0.148935 0)
(0.886034 0.156057 0)
(0.897827 0.161718 0)
(0.909948 0.168832 0)
(0.926565 0.173851 0)
(0.94589 0.179434 0)
(0.971503 0.183264 0)
(1.00258 0.184518 0)
(1.04186 0.182335 0)
(0.876288 0.137618 0)
(0.884998 0.142058 0)
(0.89169 0.149032 0)
(0.902884 0.154745 0)
(0.914793 0.16166 0)
(0.930986 0.166764 0)
(0.949692 0.172124 0)
(0.973964 0.175909 0)
(1.00316 0.177141 0)
(1.03999 0.175547 0)
(1.94966 -3.02176e-07 0)
(1.93836 1.00115e-06 0)
(1.92577 -2.87449e-06 0)
(1.91178 5.41517e-06 0)
(1.89618 -1.27805e-05 0)
(1.87756 2.27899e-05 0)
(1.86084 -2.70418e-05 0)
(1.83254 0.00031715 0)
(0.932816 0.0063047 0)
(0.460823 0.0160077 0)
(1.94966 -8.66482e-07 0)
(1.93836 2.86787e-06 0)
(1.92578 -8.16801e-06 0)
(1.91178 1.55414e-05 0)
(1.89618 -3.62733e-05 0)
(1.87756 6.79362e-05 0)
(1.86085 -8.54025e-05 0)
(1.83221 0.00118399 0)
(0.939073 0.0176035 0)
(0.488642 0.0419996 0)
(1.94966 -1.42535e-06 0)
(1.93836 4.72215e-06 0)
(1.92578 -1.33737e-05 0)
(1.91178 2.54925e-05 0)
(1.89619 -5.91026e-05 0)
(1.87757 0.000111473 0)
(1.86083 -0.000145325 0)
(1.83131 0.00200847 0)
(0.945107 0.0274126 0)
(0.524518 0.0631356 0)
(1.94966 -1.97034e-06 0)
(1.93836 6.52896e-06 0)
(1.92578 -1.83478e-05 0)
(1.91178 3.50627e-05 0)
(1.8962 -8.05985e-05 0)
(1.87758 0.000153314 0)
(1.86083 -0.000206404 0)
(1.83048 0.00312687 0)
(0.948797 0.0375846 0)
(0.560473 0.0813097 0)
(1.94966 -2.49433e-06 0)
(1.93835 8.26892e-06 0)
(1.92578 -2.3015e-05 0)
(1.91178 4.40955e-05 0)
(1.89621 -0.00010036 0)
(1.8776 0.000193064 0)
(1.86082 -0.000269265 0)
(1.83039 0.00443204 0)
(0.955965 0.0471061 0)
(0.597244 0.0931316 0)
(1.94966 -2.9926e-06 0)
(1.93835 9.92646e-06 0)
(1.92578 -2.73251e-05 0)
(1.91178 5.25031e-05 0)
(1.89622 -0.000118131 0)
(1.87762 0.000230524 0)
(1.86082 -0.000333182 0)
(1.83162 0.00573577 0)
(0.965004 0.0555757 0)
(0.63219 0.105282 0)
(1.94967 -3.46138e-06 0)
(1.93835 1.14893e-05 0)
(1.92578 -3.12482e-05 0)
(1.91178 6.02159e-05 0)
(1.89623 -0.000133714 0)
(1.87764 0.000264936 0)
(1.86081 -0.000396589 0)
(1.83388 0.00641879 0)
(0.974266 0.0634309 0)
(0.664546 0.11347 0)
(1.94967 -3.89787e-06 0)
(1.93835 1.29482e-05 0)
(1.92579 -3.47763e-05 0)
(1.91178 6.72268e-05 0)
(1.89624 -0.000147208 0)
(1.87767 0.000298075 0)
(1.86076 -0.000461861 0)
(1.83642 0.00715445 0)
(0.9836 0.0704455 0)
(0.693458 0.120568 0)
(1.94967 -4.30021e-06 0)
(1.93835 1.42969e-05 0)
(1.92579 -3.79154e-05 0)
(1.91178 7.35445e-05 0)
(1.89624 -0.000158556 0)
(1.87771 0.000328463 0)
(1.86069 -0.000521272 0)
(1.83915 0.00698556 0)
(0.993224 0.0765909 0)
(0.720079 0.12494 0)
(1.94967 -4.66731e-06 0)
(1.93835 1.55315e-05 0)
(1.92579 -4.06803e-05 0)
(1.91178 7.92056e-05 0)
(1.89625 -0.000167938 0)
(1.87775 0.00035675 0)
(1.86057 -0.000571142 0)
(1.84157 0.00580098 0)
(1.00393 0.0822394 0)
(0.743986 0.128792 0)
(1.94967 -4.99869e-06 0)
(1.93835 1.66504e-05 0)
(1.92579 -4.30935e-05 0)
(1.91178 8.42821e-05 0)
(1.89626 -0.000175583 0)
(1.87781 0.00038289 0)
(1.86041 -0.000617993 0)
(1.84318 0.00444627 0)
(1.01612 0.0874814 0)
(0.764281 0.131742 0)
(1.94967 -5.2943e-06 0)
(1.93835 1.76528e-05 0)
(1.9258 -4.51737e-05 0)
(1.91178 8.88158e-05 0)
(1.89626 -0.000181553 0)
(1.87788 0.00040599 0)
(1.8602 -0.000665578 0)
(1.84377 0.00345994 0)
(1.02959 0.0916795 0)
(0.780554 0.134256 0)
(1.94967 -5.55447e-06 0)
(1.93835 1.85391e-05 0)
(1.9258 -4.69417e-05 0)
(1.91178 9.28809e-05 0)
(1.89626 -0.000186303 0)
(1.87796 0.000425893 0)
(1.85996 -0.00070148 0)
(1.84363 0.00249168 0)
(1.04313 0.094862 0)
(0.793661 0.13601 0)
(1.94967 -5.77979e-06 0)
(1.93835 1.93106e-05 0)
(1.9258 -4.84125e-05 0)
(1.91179 9.65039e-05 0)
(1.89626 -0.000190025 0)
(1.87804 0.000442115 0)
(1.85969 -0.000716417 0)
(1.8432 0.00149452 0)
(1.05594 0.0971894 0)
(0.804639 0.137172 0)
(1.94967 -5.97118e-06 0)
(1.93835 1.99686e-05 0)
(1.9258 -4.95986e-05 0)
(1.91179 9.97048e-05 0)
(1.89625 -0.000193082 0)
(1.87814 0.000456353 0)
(1.85941 -0.00071742 0)
(1.84272 0.000776658 0)
(1.06785 0.0988564 0)
(0.814283 0.137618 0)
(1.94967 -6.12982e-06 0)
(1.93835 2.05151e-05 0)
(1.9258 -5.05086e-05 0)
(1.91179 0.000102452 0)
(1.89624 -0.000195008 0)
(1.87823 0.000468785 0)
(1.85912 -0.00069999 0)
(1.84233 0.000203669 0)
(1.07908 0.100035 0)
(0.823149 0.137495 0)
(1.94967 -6.25721e-06 0)
(1.93835 2.09519e-05 0)
(1.9258 -5.11427e-05 0)
(1.91179 0.000104736 0)
(1.89623 -0.00019711 0)
(1.87833 0.000479253 0)
(1.85883 -0.000667179 0)
(1.84204 -0.000271189 0)
(1.09001 0.100723 0)
(0.831677 0.136527 0)
(1.94967 -6.35516e-06 0)
(1.93835 2.12805e-05 0)
(1.9258 -5.14745e-05 0)
(1.91179 0.000106407 0)
(1.89623 -0.000197831 0)
(1.87842 0.000488426 0)
(1.85856 -0.000623748 0)
(1.84185 -0.000622969 0)
(1.10098 0.101139 0)
(0.840362 0.135371 0)
(1.94967 -6.42593e-06 0)
(1.93835 2.15038e-05 0)
(1.92581 -5.14846e-05 0)
(1.91179 0.000107357 0)
(1.89622 -0.00019664 0)
(1.8785 0.000494715 0)
(1.8583 -0.00057284 0)
(1.8417 -0.000876674 0)
(1.11216 0.101232 0)
(0.8491 0.133163 0)
(1.94967 -6.47178e-06 0)
(1.93835 2.16277e-05 0)
(1.92581 -5.12203e-05 0)
(1.91179 0.000107597 0)
(1.89621 -0.00019331 0)
(1.87856 0.000495779 0)
(1.85806 -0.000515409 0)
(1.84159 -0.00108852 0)
(1.12352 0.101046 0)
(0.857654 0.131426 0)
(1.94967 6.47177e-06 0)
(1.93835 -2.16276e-05 0)
(1.92581 5.12202e-05 0)
(1.91179 -0.000107596 0)
(1.89621 0.00019331 0)
(1.87856 -0.000495779 0)
(1.85806 0.00051543 0)
(1.84159 0.00108862 0)
(1.12352 -0.101038 0)
(0.857655 -0.131423 0)
(1.94967 6.42591e-06 0)
(1.93835 -2.15036e-05 0)
(1.92581 5.14843e-05 0)
(1.91179 -0.000107357 0)
(1.89622 0.00019664 0)
(1.8785 -0.000494714 0)
(1.8583 0.000572842 0)
(1.8417 0.00087684 0)
(1.11217 -0.101223 0)
(0.849099 -0.13316 0)
(1.94967 6.35512e-06 0)
(1.93835 -2.12803e-05 0)
(1.9258 5.14742e-05 0)
(1.91179 -0.000106407 0)
(1.89623 0.000197831 0)
(1.87842 -0.000488424 0)
(1.85856 0.000623729 0)
(1.84185 0.000623214 0)
(1.10099 -0.101129 0)
(0.84036 -0.135372 0)
(1.94967 6.25716e-06 0)
(1.93835 -2.09517e-05 0)
(1.9258 5.11423e-05 0)
(1.91179 -0.000104734 0)
(1.89623 0.00019711 0)
(1.87833 -0.00047925 0)
(1.85883 0.000667139 0)
(1.84204 0.000271611 0)
(1.09002 -0.100713 0)
(0.831674 -0.136527 0)
(1.94967 6.12976e-06 0)
(1.93835 -2.05148e-05 0)
(1.9258 5.0508e-05 0)
(1.91179 -0.00010245 0)
(1.89624 0.000195008 0)
(1.87823 -0.00046878 0)
(1.85912 0.00069993 0)
(1.84233 -0.000202977 0)
(1.07909 -0.100024 0)
(0.823146 -0.137497 0)
(1.94967 5.9711e-06 0)
(1.93835 -1.99682e-05 0)
(1.9258 4.95977e-05 0)
(1.91179 -9.97028e-05 0)
(1.89625 0.000193081 0)
(1.87814 -0.000456347 0)
(1.85941 0.000717342 0)
(1.84272 -0.000775598 0)
(1.06786 -0.098845 0)
(0.814281 -0.137619 0)
(1.94967 5.77969e-06 0)
(1.93835 -1.93101e-05 0)
(1.9258 4.84114e-05 0)
(1.91179 -9.65014e-05 0)
(1.89626 0.000190023 0)
(1.87804 -0.000442109 0)
(1.85969 0.000716321 0)
(1.8432 -0.00149288 0)
(1.05595 -0.0971775 0)
(0.804638 -0.137174 0)
(1.94967 5.55434e-06 0)
(1.93835 -1.85385e-05 0)
(1.9258 4.69404e-05 0)
(1.91178 -9.28778e-05 0)
(1.89626 0.0001863 0)
(1.87796 -0.000425885 0)
(1.85996 0.000701376 0)
(1.84363 -0.00248929 0)
(1.04314 -0.09485 0)
(0.793661 -0.136011 0)
(1.94967 5.29415e-06 0)
(1.93835 -1.7652e-05 0)
(1.9258 4.5172e-05 0)
(1.91178 -8.8812e-05 0)
(1.89626 0.000181549 0)
(1.87788 -0.000405983 0)
(1.8602 0.000665482 0)
(1.84377 -0.00345698 0)
(1.0296 -0.0916677 0)
(0.78055 -0.134257 0)
(1.94967 4.99851e-06 0)
(1.93835 -1.66496e-05 0)
(1.92579 4.30914e-05 0)
(1.91178 -8.42775e-05 0)
(1.89626 0.000175577 0)
(1.87781 -0.000382883 0)
(1.8604 0.000617896 0)
(1.84318 -0.00444214 0)
(1.01613 -0.0874694 0)
(0.764268 -0.131742 0)
(1.94967 4.6671e-06 0)
(1.93835 -1.55306e-05 0)
(1.92579 4.06779e-05 0)
(1.91178 -7.92002e-05 0)
(1.89625 0.00016793 0)
(1.87775 -0.000356743 0)
(1.86057 0.000571039 0)
(1.84158 -0.00579449 0)
(1.00395 -0.0822289 0)
(0.743963 -0.128792 0)
(1.94967 4.29997e-06 0)
(1.93835 -1.42958e-05 0)
(1.92579 3.79125e-05 0)
(1.91178 -7.35383e-05 0)
(1.89624 0.000158547 0)
(1.87771 -0.000328459 0)
(1.86068 0.000521194 0)
(1.83916 -0.00697943 0)
(0.993238 -0.0765816 0)
(0.720052 -0.124944 0)
(1.94967 3.89759e-06 0)
(1.93835 -1.2947e-05 0)
(1.92579 3.4773e-05 0)
(1.91178 -6.722e-05 0)
(1.89624 0.000147197 0)
(1.87767 -0.000298074 0)
(1.86076 0.000461827 0)
(1.83643 -0.00715182 0)
(0.983614 -0.0704387 0)
(0.69343 -0.120561 0)
(1.94967 3.46107e-06 0)
(1.93835 -1.1488e-05 0)
(1.92578 3.12445e-05 0)
(1.91178 -6.02085e-05 0)
(1.89623 0.000133702 0)
(1.87764 -0.000264939 0)
(1.86081 0.00039659 0)
(1.83389 -0.00641588 0)
(0.974283 -0.063422 0)
(0.664512 -0.113485 0)
(1.94966 2.99227e-06 0)
(1.93835 -9.92509e-06 0)
(1.92578 2.73211e-05 0)
(1.91178 -5.24953e-05 0)
(1.89622 0.000118118 0)
(1.87762 -0.000230529 0)
(1.86082 0.00033324 0)
(1.83163 -0.00573415 0)
(0.965015 -0.0555749 0)
(0.632167 -0.105261 0)
(1.94966 2.49397e-06 0)
(1.93835 -8.26746e-06 0)
(1.92578 2.30107e-05 0)
(1.91178 -4.40871e-05 0)
(1.89621 0.000100345 0)
(1.8776 -0.000193066 0)
(1.86082 0.000269398 0)
(1.8304 -0.00443042 0)
(0.955978 -0.0471079 0)
(0.597234 -0.0931704 0)
(1.94966 1.96996e-06 0)
(1.93836 -6.52744e-06 0)
(1.92578 1.83432e-05 0)
(1.91178 -3.50544e-05 0)
(1.8962 8.05845e-05 0)
(1.87758 -0.000153323 0)
(1.86083 0.000206582 0)
(1.83049 -0.00312306 0)
(0.948864 -0.0375789 0)
(0.560541 -0.0812702 0)
(1.94966 1.42496e-06 0)
(1.93836 -4.72058e-06 0)
(1.92578 1.33689e-05 0)
(1.91178 -2.5484e-05 0)
(1.89619 5.90852e-05 0)
(1.87757 -0.00011143 0)
(1.86084 0.000145402 0)
(1.83136 -0.00200421 0)
(0.945132 -0.0274572 0)
(0.524606 -0.0631716 0)
(1.94966 8.66078e-07 0)
(1.93836 -2.86629e-06 0)
(1.92578 8.16315e-06 0)
(1.91178 -1.5533e-05 0)
(1.89618 3.62561e-05 0)
(1.87756 -6.79359e-05 0)
(1.86085 8.60763e-05 0)
(1.83236 -0.00118618 0)
(0.939346 -0.0176077 0)
(0.488823 -0.041931 0)
(1.94966 3.01766e-07 0)
(1.93836 -9.99535e-07 0)
(1.92577 2.86957e-06 0)
(1.91178 -5.40703e-06 0)
(1.89618 1.27738e-05 0)
(1.87756 -2.27808e-05 0)
(1.86085 2.65025e-05 0)
(1.83279 -0.000366601 0)
(0.933083 -0.00638015 0)
(0.460889 -0.0159876 0)
(0.876295 -0.137643 0)
(0.884996 -0.142079 0)
(0.891675 -0.149052 0)
(0.902861 -0.154771 0)
(0.914763 -0.161692 0)
(0.930946 -0.1668 0)
(0.949639 -0.172163 0)
(0.973901 -0.175952 0)
(1.0031 -0.177183 0)
(1.03994 -0.17558 0)
(0.867241 -0.144618 0)
(0.878588 -0.148959 0)
(0.886026 -0.156084 0)
(0.897811 -0.161749 0)
(0.909918 -0.168867 0)
(0.926524 -0.173887 0)
(0.945835 -0.179472 0)
(0.971441 -0.183302 0)
(1.00252 -0.184555 0)
(1.04181 -0.182358 0)
(0.855975 -0.150707 0)
(0.868704 -0.154535 0)
(0.876545 -0.161628 0)
(0.888942 -0.167291 0)
(0.901634 -0.174823 0)
(0.919283 -0.180155 0)
(0.939857 -0.186521 0)
(0.967456 -0.190763 0)
(1.00079 -0.192246 0)
(1.04298 -0.189482 0)
(0.844749 -0.15704 0)
(0.858181 -0.160595 0)
(0.866401 -0.167835 0)
(0.879485 -0.173651 0)
(0.892935 -0.181759 0)
(0.911765 -0.18743 0)
(0.933541 -0.19449 0)
(0.962868 -0.198825 0)
(0.998222 -0.200346 0)
(1.04364 -0.196935 0)
(0.833383 -0.163037 0)
(0.846797 -0.166422 0)
(0.854985 -0.173757 0)
(0.868425 -0.179687 0)
(0.88227 -0.18832 0)
(0.902063 -0.194245 0)
(0.924972 -0.202098 0)
(0.956358 -0.206752 0)
(0.994479 -0.208781 0)
(1.04437 -0.205059 0)
(0.82114 -0.168134 0)
(0.834195 -0.171665 0)
(0.842137 -0.179326 0)
(0.85589 -0.185609 0)
(0.870118 -0.195036 0)
(0.891074 -0.201463 0)
(0.915345 -0.210383 0)
(0.949056 -0.215514 0)
(0.990216 -0.21813 0)
(1.04453 -0.213715 0)
(0.807461 -0.172175 0)
(0.819906 -0.176112 0)
(0.827445 -0.184296 0)
(0.841483 -0.191118 0)
(0.856003 -0.201524 0)
(0.878169 -0.208562 0)
(0.903808 -0.218703 0)
(0.939978 -0.224467 0)
(0.984553 -0.22793 0)
(1.0444 -0.223078 0)
(0.791808 -0.174706 0)
(0.803332 -0.179344 0)
(0.810436 -0.188362 0)
(0.824874 -0.196031 0)
(0.839706 -0.207749 0)
(0.863269 -0.215708 0)
(0.890447 -0.227374 0)
(0.929293 -0.233933 0)
(0.977636 -0.238645 0)
(1.04351 -0.233307 0)
(0.774259 -0.175717 0)
(0.784418 -0.181424 0)
(0.7911 -0.191694 0)
(0.806117 -0.200463 0)
(0.821287 -0.213746 0)
(0.846356 -0.222806 0)
(0.875152 -0.236169 0)
(0.916938 -0.243843 0)
(0.969171 -0.249844 0)
(1.04199 -0.244465 0)
(0.75603 -0.175063 0)
(0.764257 -0.182149 0)
(0.770177 -0.193991 0)
(0.785825 -0.204231 0)
(0.801263 -0.219487 0)
(0.827894 -0.230074 0)
(0.858449 -0.24555 0)
(0.903207 -0.25455 0)
(0.960096 -0.26258 0)
(1.04096 -0.257026 0)
(0.737558 -0.173136 0)
(0.744144 -0.182642 0)
(0.748536 -0.196665 0)
(0.764606 -0.208458 0)
(0.780116 -0.225727 0)
(0.808253 -0.238095 0)
(0.840617 -0.255781 0)
(0.888332 -0.266434 0)
(0.950514 -0.277494 0)
(1.04046 -0.271136 0)
(0.715156 -0.166086 0)
(0.722065 -0.178947 0)
(0.724714 -0.196471 0)
(0.741388 -0.211103 0)
(0.75698 -0.231219 0)
(0.786691 -0.246122 0)
(0.820941 -0.266294 0)
(0.871463 -0.279064 0)
(0.9386 -0.292981 0)
(1.03852 -0.286354 0)
(0.684054 -0.157946 0)
(0.694531 -0.174244 0)
(0.697197 -0.196204 0)
(0.715877 -0.214107 0)
(0.732156 -0.237017 0)
(0.763463 -0.254416 0)
(0.79966 -0.276957 0)
(0.852615 -0.29196 0)
(0.924947 -0.309855 0)
(1.0354 -0.303177 0)
(0.647321 -0.146958 0)
(0.662742 -0.165584 0)
(0.666656 -0.192265 0)
(0.688658 -0.2147 0)
(0.706498 -0.241549 0)
(0.739596 -0.262645 0)
(0.777993 -0.287944 0)
(0.833351 -0.306042 0)
(0.910736 -0.327884 0)
(1.03142 -0.322012 0)
(0.608113 -0.1465 0)
(0.629388 -0.166968 0)
(0.63622 -0.197487 0)
(0.662847 -0.222112 0)
(0.683607 -0.251114 0)
(0.718283 -0.274467 0)
(0.758511 -0.301411 0)
(0.815277 -0.322128 0)
(0.896753 -0.348147 0)
(1.02629 -0.34264 0)
(0.57035 -0.140857 0)
(0.59727 -0.164048 0)
(0.604761 -0.198054 0)
(0.633917 -0.225371 0)
(0.657568 -0.257024 0)
(0.693618 -0.28364 0)
(0.735562 -0.312591 0)
(0.793508 -0.336849 0)
(0.877667 -0.367471 0)
(1.01503 -0.364559 0)
(0.526036 -0.14248 0)
(0.562215 -0.167904 0)
(0.572109 -0.205034 0)
(0.603445 -0.234305 0)
(0.631423 -0.266295 0)
(0.66939 -0.294026 0)
(0.713073 -0.323978 0)
(0.771128 -0.351351 0)
(0.854706 -0.385225 0)
(0.996062 -0.389696 0)
(0.472957 -0.13797 0)
(0.520094 -0.157647 0)
(0.537994 -0.197448 0)
(0.57367 -0.235681 0)
(0.60831 -0.275164 0)
(0.651638 -0.308547 0)
(0.700982 -0.341378 0)
(0.762623 -0.371414 0)
(0.846912 -0.408956 0)
(0.989733 -0.422202 0)
(0.417372 -0.147948 0)
(0.478469 -0.174328 0)
(0.51098 -0.222939 0)
(0.556682 -0.263913 0)
(0.598628 -0.301785 0)
(0.642978 -0.332936 0)
(0.690493 -0.362664 0)
(0.74895 -0.391594 0)
(0.828774 -0.429179 0)
(0.965973 -0.455802 0)
(0.386578 -0.116798 0)
(0.46673 -0.157442 0)
(0.512862 -0.219545 0)
(0.562697 -0.265144 0)
(0.60592 -0.303378 0)
(0.648553 -0.334486 0)
(0.693431 -0.363801 0)
(0.748991 -0.391997 0)
(0.825914 -0.429559 0)
(0.967295 -0.466969 0)
(1.13268 -0.150443 0)
(1.26797 -0.0739692 0)
(1.38432 0.0336348 0)
(1.4755 0.151771 0)
(1.54412 0.265429 0)
(1.60303 0.365103 0)
(1.61443 0.3756 0)
(1.58031 0.273202 0)
(1.4939 0.0846088 0)
(1.48722 -0.0120453 0)
(1.13995 -0.154833 0)
(1.28053 -0.0725492 0)
(1.3991 0.0417523 0)
(1.48904 0.165593 0)
(1.55434 0.281097 0)
(1.60715 0.377665 0)
(1.61499 0.375631 0)
(1.56702 0.253383 0)
(1.47939 0.0754603 0)
(1.48119 -0.012052 0)
(1.14683 -0.15912 0)
(1.29411 -0.0702999 0)
(1.4149 0.0508009 0)
(1.50316 0.179344 0)
(1.56527 0.296814 0)
(1.60795 0.387025 0)
(1.61526 0.375505 0)
(1.55267 0.232538 0)
(1.47119 0.0685368 0)
(1.47827 -0.0108573 0)
(1.15431 -0.163383 0)
(1.30847 -0.0670119 0)
(1.4315 0.0614776 0)
(1.51783 0.192976 0)
(1.57812 0.316932 0)
(1.61001 0.395478 0)
(1.61035 0.371425 0)
(1.53553 0.20841 0)
(1.46519 0.0614408 0)
(1.47756 -0.00978842 0)
(1.16265 -0.167805 0)
(1.32374 -0.0626643 0)
(1.44796 0.0721066 0)
(1.53379 0.209857 0)
(1.58945 0.337907 0)
(1.61154 0.398719 0)
(1.60519 0.363955 0)
(1.51496 0.184424 0)
(1.45915 0.0555911 0)
(1.47659 -0.00918016 0)
(1.1714 -0.172052 0)
(1.33988 -0.0576384 0)
(1.46574 0.0853448 0)
(1.54952 0.230288 0)
(1.59982 0.353368 0)
(1.61253 0.399583 0)
(1.59917 0.353339 0)
(1.49075 0.161296 0)
(1.4513 0.050453 0)
(1.47351 -0.00910238 0)
(1.18109 -0.17671 0)
(1.35685 -0.0525569 0)
(1.48384 0.100951 0)
(1.56344 0.249713 0)
(1.61066 0.36438 0)
(1.6128 0.401706 0)
(1.59129 0.338053 0)
(1.46849 0.142974 0)
(1.44264 0.0470609 0)
(1.46843 -0.00810558 0)
(1.19162 -0.18144 0)
(1.37603 -0.0447476 0)
(1.50237 0.119014 0)
(1.57665 0.263889 0)
(1.62178 0.380703 0)
(1.61367 0.402531 0)
(1.58135 0.318134 0)
(1.4479 0.127465 0)
(1.43412 0.0453733 0)
(1.46299 -0.00565394 0)
(1.20375 -0.186257 0)
(1.39582 -0.0362549 0)
(1.52011 0.133551 0)
(1.59096 0.282107 0)
(1.62648 0.396412 0)
(1.61748 0.401862 0)
(1.56893 0.293963 0)
(1.42882 0.112572 0)
(1.42683 0.0436764 0)