/*--------------------------------*- C++ -*----------------------------------*\
  =========                 |
  \\      /  F ield         | OpenFOAM: The Open Source CFD Toolbox
   \\    /   O peration     | Website:  https://openfoam.org
    \\  /    A nd           | Version:  8
     \\/     M anipulation  |
\*---------------------------------------------------------------------------*/
FoamFile
{
    version     2.0;
    format      ascii;
    class       volScalarField;
    location    "2.5";
    object      rho;
}
// * * * * * * * * * * * * * * * * * * * * * * * * * * * * * * * * * * * * * //

dimensions      [1 -3 0 0 0 0 0];

internalField   nonuniform List<scalar> 
2600
(
1.02214
1.03326
1.10638
1.24546
1.4651
1.76267
1.95587
2.03092
1.99193
1.90164
0.993705
0.967075
1.04285
1.22367
1.46659
1.76141
1.94295
2.02862
1.989
1.89471
0.974531
0.932138
0.989065
1.19687
1.46114
1.75356
1.92359
2.00635
1.97225
1.86527
0.972906
0.923301
0.95852
1.15294
1.43959
1.74051
1.92217
1.96866
1.95815
1.84467
0.978449
0.920255
0.944989
1.11376
1.38947
1.67412
1.88264
1.94552
1.92845
1.82008
0.987774
0.920764
0.930931
1.07487
1.33087
1.5802
1.7691
1.88464
1.84583
1.75631
0.992801
0.918331
0.91421
1.03165
1.25725
1.51077
1.69571
1.77863
1.75962
1.69195
0.992962
0.916228
0.910715
1.01514
1.2162
1.4578
1.63601
1.70543
1.69978
1.63486
0.989718
0.916042
0.916249
1.02741
1.22162
1.43658
1.61157
1.65172
1.67735
1.60747
0.988116
0.914422
0.918667
1.03569
1.22509
1.41957
1.58867
1.62868
1.65383
1.59825
0.987955
0.91398
0.918112
1.03392
1.22294
1.41693
1.57222
1.65997
1.62716
1.58631
0.989269
0.914757
0.913731
1.02957
1.22431
1.42817
1.58136
1.6787
1.63723
1.59896
0.992196
0.915239
0.912311
1.01943
1.21452
1.45261
1.63996
1.72217
1.69458
1.6339
0.991605
0.916919
0.915146
1.03853
1.25061
1.50529
1.71335
1.79172
1.77225
1.67546
0.986243
0.918911
0.932191
1.07952
1.32548
1.57951
1.79909
1.85883
1.86262
1.75054
0.976866
0.9181
0.945661
1.12066
1.38958
1.66158
1.88064
1.96838
1.92306
1.80578
0.970974
0.920892
0.958629
1.15757
1.44023
1.72377
1.9215
2.00647
1.93644
1.84871
0.972258
0.929563
0.990269
1.20381
1.47159
1.74295
1.93864
1.99513
1.96298
1.88566
0.991444
0.965605
1.04552
1.23429
1.47931
1.74851
1.95285
2.00174
1.99321
1.89135
1.01944
1.03288
1.10981
1.25541
1.47675
1.74717
1.95521
2.01993
1.99707
1.88885
1.2681
1.11957
1.16947
1.27558
1.46592
1.73466
1.94802
2.0235
1.9881
1.88825
1.53141
1.20097
1.23122
1.29788
1.45088
1.70636
1.9285
2.01259
1.96825
1.88906
1.75631
1.28922
1.27859
1.31386
1.43065
1.67068
1.90054
1.98566
1.96006
1.88622
1.9281
1.39974
1.31896
1.32533
1.40649
1.63274
1.87794
1.96995
1.95695
1.87863
2.06147
1.51838
1.36376
1.3322
1.38709
1.5902
1.85689
1.9634
1.95113
1.86836
2.16018
1.62448
1.41638
1.33927
1.37606
1.54742
1.83176
1.95693
1.94206
1.85806
2.23831
1.71402
1.47408
1.35749
1.37528
1.50891
1.80065
1.94408
1.92987
1.85083
2.30255
1.792
1.52423
1.39069
1.38555
1.47818
1.76104
1.92706
1.92194
1.84502
2.35591
1.86737
1.57147
1.4201
1.39235
1.45483
1.71853
1.91405
1.9199
1.8391
2.40165
1.93654
1.62824
1.44775
1.39664
1.43748
1.67695
1.90561
1.92026
1.83362
2.44243
1.99667
1.68895
1.48847
1.39865
1.42737
1.63288
1.88945
1.91831
1.82902
2.47999
2.05047
1.74301
1.54087
1.40923
1.42649
1.58572
1.86232
1.91297
1.82492
2.51413
2.10255
1.7935
1.58829
1.43574
1.42787
1.54214
1.82508
1.90834
1.82079
2.546
2.15284
1.84568
1.62845
1.46996
1.43171
1.50749
1.78466
1.9028
1.81692
2.57597
2.20082
1.89832
1.67033
1.49912
1.43755
1.48197
1.74398
1.89443
1.81033
2.60378
2.24571
1.94708
1.71592
1.52806
1.44229
1.46432
1.70097
1.88246
1.80323
2.62893
2.28696
1.99131
1.75917
1.56432
1.44746
1.45331
1.65391
1.86555
1.79555
2.65126
2.3241
2.0327
1.79799
1.60241
1.46059
1.44742
1.60646
1.84424
1.7876
2.67107
2.35733
2.07216
1.8355
1.6371
1.47799
1.44602
1.5642
1.81906
1.77977
2.6887
2.38806
2.10979
1.87286
1.67042
1.49587
1.44666
1.5265
1.79013
1.77133
3.97002
3.83535
3.74101
3.64894
3.55915
3.47169
3.37686
3.27035
3.11398
2.91371
3.79375
3.66511
3.60572
3.53876
3.47126
3.39693
3.30972
3.20018
3.03797
2.79654
3.74821
3.65426
3.60685
3.5446
3.48247
3.41159
3.32514
3.21261
3.04755
2.81798
3.67893
3.60889
3.57175
3.51689
3.46232
3.39364
3.30808
3.19411
3.03123
2.80074
3.61716
3.56492
3.53618
3.48647
3.43581
3.36867
3.2858
3.17312
3.01578
2.78448
3.56448
3.52295
3.49709
3.45086
3.40419
3.33909
3.2594
3.14837
2.99765
2.77188
3.51477
3.48068
3.45661
3.41368
3.37011
3.30665
3.23033
3.12192
2.97878
2.76733
3.45554
3.42917
3.40864
3.37135
3.33194
3.27165
3.19971
3.09536
2.96095
2.76694
3.39959
3.38105
3.36482
3.33242
3.29603
3.23875
3.17104
3.07154
2.94614
2.7691
3.35822
3.34417
3.32929
3.29907
3.26433
3.2099
3.14607
3.05181
2.93521
2.77423
3.33484
3.31977
3.30347
3.27356
3.23929
3.18695
3.12621
3.03705
2.92832
2.78191
3.32274
3.303
3.28462
3.25457
3.22037
3.16981
3.11161
3.02746
2.9255
2.79156
3.31451
3.29001
3.26991
3.23974
3.2057
3.15697
3.1012
3.02179
2.92622
2.80309
3.3052
3.27736
3.25627
3.22629
3.19282
3.14623
3.09302
3.01829
2.92895
2.81534
3.29369
3.26399
3.2426
3.21315
3.18069
3.13641
3.08584
3.01587
2.93241
2.82718
3.27962
3.24949
3.22841
3.1999
3.16884
3.12701
3.07917
3.01388
2.93586
2.83817
3.26321
3.2344
3.21438
3.18719
3.15771
3.11827
3.07302
3.01216
2.93913
2.84822
3.2434
3.21826
3.20026
3.17496
3.14736
3.11031
3.06758
3.01076
2.94221
2.85731
3.22288
3.20243
3.18641
3.16316
3.13747
3.10281
3.06257
3.00954
2.94508
2.86568
3.20593
3.1889
3.17417
3.15277
3.12871
3.09621
3.05823
3.00856
2.94789
2.87352
1.40423
1.41336
1.42387
1.43592
1.45013
1.4678
1.48401
1.64355
2.99768
3.45982
1.40423
1.41336
1.42387
1.43592
1.45013
1.4678
1.48402
1.64303
2.99461
3.45355
1.40423
1.41336
1.42387
1.43593
1.45012
1.46781
1.48404
1.64204
2.98874
3.44531
1.40423
1.41336
1.42387
1.43593
1.45012
1.46782
1.48406
1.64047
2.97899
3.43476
1.40423
1.41336
1.42387
1.43593
1.4501
1.46783
1.48408
1.63847
2.9674
3.42045
1.40423
1.41336
1.42386
1.43593
1.45009
1.46784
1.48409
1.63612
2.95523
3.40134
1.40423
1.41336
1.42386
1.43594
1.45008
1.46785
1.48409
1.63336
2.94279
3.38002
1.40423
1.41336
1.42386
1.43594
1.45007
1.46787
1.48409
1.63018
2.93149
3.36104
1.40422
1.41336
1.42386
1.43594
1.45006
1.46787
1.48409
1.62661
2.92123
3.34702
1.40422
1.41336
1.42385
1.43595
1.45005
1.46788
1.48408
1.62277
2.91043
3.33655
1.40422
1.41336
1.42385
1.43595
1.45005
1.46788
1.48409
1.6184
2.89812
3.32873
1.40422
1.41336
1.42385
1.43596
1.45004
1.46788
1.48411
1.61307
2.88451
3.32175
1.40422
1.41336
1.42385
1.43596
1.45003
1.46787
1.48416
1.60563
2.8704
3.31497
1.40422
1.41336
1.42385
1.43596
1.45003
1.46786
1.48424
1.59676
2.85652
3.30805
1.40422
1.41336
1.42384
1.43596
1.45003
1.46785
1.48434
1.58616
2.84297
3.30101
1.40422
1.41337
1.42384
1.43597
1.45002
1.46783
1.48446
1.57467
2.83006
3.294
1.40422
1.41337
1.42384
1.43597
1.45002
1.4678
1.48459
1.56318
2.8175
3.2872
1.40422
1.41337
1.42384
1.43597
1.45002
1.46778
1.48474
1.55273
2.80496
3.28104
1.40422
1.41337
1.42384
1.43597
1.45002
1.46775
1.48489
1.54383
2.7915
3.27576
1.40422
1.41337
1.42384
1.43598
1.45001
1.46772
1.48508
1.53623
2.77614
3.27093
1.40422
1.41337
1.42384
1.43598
1.45001
1.46772
1.48508
1.53623
2.77614
3.27093
1.40422
1.41337
1.42384
1.43597
1.45002
1.46775
1.48489
1.54383
2.7915
3.27576
1.40422
1.41337
1.42384
1.43597
1.45002
1.46778
1.48474
1.55273
2.80496
3.28105
1.40422
1.41337
1.42384
1.43597
1.45002
1.4678
1.48459
1.56318
2.8175
3.2872
1.40422
1.41337
1.42384
1.43597
1.45002
1.46783
1.48446
1.57467
2.83006
3.294
1.40422
1.41336
1.42384
1.43596
1.45003
1.46785
1.48434
1.58617
2.84297
3.30101
1.40422
1.41336
1.42385
1.43596
1.45003
1.46786
1.48424
1.59676
2.85652
3.30805
1.40422
1.41336
1.42385
1.43596
1.45003
1.46787
1.48416
1.60563
2.8704
3.31496
1.40422
1.41336
1.42385
1.43596
1.45004
1.46788
1.48411
1.61307
2.88451
3.32174
1.40422
1.41336
1.42385
1.43595
1.45005
1.46788
1.48409
1.6184
2.89812
3.32872
1.40422
1.41336
1.42385
1.43595
1.45005
1.46788
1.48408
1.62278
2.91043
3.33654
1.40422
1.41336
1.42386
1.43594
1.45006
1.46787
1.48409
1.62661
2.92124
3.34701
1.40423
1.41336
1.42386
1.43594
1.45007
1.46787
1.48409
1.63018
2.9315
3.36104
1.40423
1.41336
1.42386
1.43594
1.45008
1.46785
1.48409
1.63336
2.94281
3.38002
1.40423
1.41336
1.42386
1.43593
1.45009
1.46784
1.48409
1.63611
2.95525
3.40134
1.40423
1.41336
1.42387
1.43593
1.4501
1.46783
1.48408
1.63847
2.96741
3.42045
1.40423
1.41336
1.42387
1.43593
1.45012
1.46782
1.48406
1.64049
2.97902
3.43476
1.40423
1.41336
1.42387
1.43593
1.45012
1.46781
1.48404
1.64203
2.9888
3.44532
1.40423
1.41336
1.42387
1.43592
1.45013
1.4678
1.48402
1.64305
2.99468
3.45358
1.40423
1.41336
1.42387
1.43592
1.45013
1.4678
1.48401
1.64455
2.99767
3.45984
3.20593
3.18889
3.17416
3.15275
3.12868
3.09617
3.05817
3.00849
2.94781
2.87347
3.22287
3.20242
3.18639
3.16313
3.13744
3.10276
3.0625
3.00946
2.94501
2.86564
3.24338
3.21823
3.20023
3.17493
3.14732
3.11026
3.06751
3.01069
2.94215
2.85728
3.2632
3.23438
3.21435
3.18715
3.15767
3.11821
3.07295
3.01209
2.93908
2.8482
3.27961
3.24947
3.22838
3.19986
3.16879
3.12695
3.0791
3.01382
2.93582
2.83817
3.29368
3.26397
3.24257
3.21311
3.18063
3.13635
3.08578
3.01582
2.93238
2.8272
3.30519
3.27733
3.25623
3.22625
3.19277
3.14617
3.09296
3.01824
2.92895
2.81539
3.3145
3.28999
3.26988
3.2397
3.20565
3.15691
3.10115
3.02176
2.92623
2.80318
3.32273
3.30297
3.28458
3.25452
3.22032
3.16976
3.11157
3.02744
2.92553
2.79169
3.33483
3.31974
3.30343
3.27352
3.23924
3.1869
3.12617
3.03704
2.92836
2.78208
3.35819
3.34413
3.32924
3.29902
3.26428
3.20985
3.14603
3.05182
2.93529
2.77444
3.39955
3.38101
3.36477
3.33237
3.29598
3.23871
3.17101
3.07156
2.94625
2.76935
3.45549
3.42912
3.40859
3.3713
3.33189
3.27161
3.19969
3.09539
2.96108
2.76723
3.51473
3.48064
3.45656
3.41363
3.37006
3.30661
3.23032
3.12196
2.97893
2.76768
3.56445
3.52292
3.49705
3.45082
3.40415
3.33906
3.25939
3.14841
2.99781
2.77232
3.61715
3.5649
3.53615
3.48644
3.43578
3.36865
3.28579
3.17316
3.01594
2.78498
3.67892
3.60887
3.57172
3.51685
3.46228
3.39361
3.30807
3.19415
3.03139
2.80124
3.74819
3.65424
3.60682
3.54457
3.48244
3.41156
3.32512
3.21265
3.0477
2.81846
3.79374
3.66509
3.60569
3.53873
3.47123
3.3969
3.3097
3.2002
3.03812
2.79698
3.96998
3.83531
3.74098
3.64892
3.55912
3.47166
3.37684
3.27037
3.1141
2.91409
2.68873
2.38827
2.11011
1.87281
1.66983
1.49569
1.44679
1.52613
1.78943
1.77194
2.67113
2.35756
2.07239
1.83524
1.63629
1.47783
1.44628
1.56415
1.81839
1.77984
2.65137
2.32446
2.03294
1.79746
1.60118
1.46058
1.44808
1.60674
1.84465
1.7874
2.62909
2.2875
1.99159
1.75851
1.56268
1.44796
1.45445
1.65487
1.86678
1.79585
2.60399
2.24639
1.94746
1.71488
1.52668
1.44297
1.46597
1.70298
1.88324
1.80414
2.5762
2.2015
1.89869
1.66891
1.49811
1.4382
1.48451
1.74655
1.89416
1.81089
2.54623
2.15344
1.84593
1.6269
1.46859
1.43274
1.5108
1.78616
1.90197
1.81656
2.51441
2.10305
1.79369
1.58651
1.43334
1.42932
1.54566
1.8244
1.90786
1.82057
2.48034
2.05102
1.74295
1.53822
1.40864
1.42785
1.59028
1.86099
1.91415
1.82515
2.4429
1.9974
1.6887
1.4851
1.39951
1.42929
1.63916
1.89089
1.91881
1.83071
2.4022
1.93732
1.62782
1.4446
1.39676
1.44082
1.68247
1.90972
1.91894
1.83511
2.35644
1.86805
1.57112
1.41758
1.39138
1.4586
1.71985
1.9172
1.91929
1.83825
2.30314
1.7922
1.52427
1.38826
1.38283
1.48244
1.76071
1.92492
1.92286
1.84284
2.23903
1.71357
1.47457
1.35398
1.37226
1.5166
1.80463
1.93745
1.93126
1.8519
2.16113
1.62317
1.41808
1.33466
1.37144
1.55739
1.83788
1.95522
1.94055
1.86423
2.06264
1.51689
1.36651
1.32718
1.38107
1.5982
1.85951
1.96983
1.9479
1.87272
1.92942
1.39882
1.32218
1.31936
1.39718
1.64001
1.87593
1.97909
1.95365
1.87396
1.7581
1.28885
1.28128
1.30612
1.4185
1.68141
1.89389
1.98591
1.96152
1.87669
1.5335
1.20129
1.23217
1.28925
1.43868
1.7223
1.92976
1.99499
1.97357
1.88377
1.27
1.11967
1.16816
1.26689
1.45472
1.75178
1.95422
2.01646
1.98695
1.89781
2.92802
2.81106
2.64987
2.47832
2.2834
2.07293
1.85712
1.66028
1.42859
1.17735
2.92712
2.80898
2.64833
2.47561
2.28025
2.0699
1.85463
1.65684
1.42571
1.17946
2.92552
2.80552
2.64617
2.47102
2.2749
2.06467
1.85007
1.65062
1.42062
1.18296
2.92288
2.80044
2.6421
2.46397
2.267
2.05694
1.84332
1.64138
1.41402
1.18843
2.91924
2.79454
2.63597
2.45506
2.25679
2.04687
1.83438
1.62914
1.40607
1.19633
2.9146
2.78703
2.62745
2.44368
2.24393
2.03423
1.8229
1.61335
1.39749
1.20687
2.90895
2.77803
2.61648
2.43005
2.22856
2.01905
1.80885
1.59434
1.38933
1.22055
2.90238
2.76753
2.60307
2.41378
2.21051
2.00126
1.7919
1.57231
1.38274
1.23854
2.89493
2.7555
2.58715
2.39482
2.18961
1.98074
1.77189
1.54723
1.3769
1.2622
2.88659
2.74164
2.56856
2.37281
2.16592
1.95739
1.74857
1.52077
1.37117
1.29386
2.87728
2.72581
2.54695
2.34753
2.13896
1.93127
1.72164
1.49334
1.36355
1.33636
2.86685
2.70757
2.52223
2.31854
2.10879
1.90178
1.69127
1.46727
1.35676
1.38572
2.85509
2.68661
2.49364
2.28555
2.07487
1.86898
1.65701
1.44553
1.35721
1.43802
2.84176
2.66257
2.46112
2.24837
2.03702
1.83201
1.61999
1.43048
1.36545
1.49384
2.82663
2.63519
2.42442
2.20686
1.99537
1.79071
1.58056
1.42325
1.38704
1.54926
2.80949
2.60416
2.38323
2.1609
1.94939
1.74489
1.54291
1.4201
1.4244
1.60456
2.7901
2.56903
2.33703
2.11002
1.89977
1.69409
1.50829
1.41908
1.4796
1.65586
2.76807
2.52937
2.28573
2.05425
1.84481
1.64075
1.48383
1.4219
1.55787
1.69757
2.74267
2.48445
2.22904
1.99314
1.78541
1.58417
1.46342
1.44091
1.64628
1.72919
2.71304
2.43203
2.16445
1.92685
1.72074
1.53178
1.45101
1.48143
1.73431
1.7565
2.71304
2.43176
2.16414
1.92671
1.72114
1.53189
1.45091
1.48211
1.73513
1.75582
2.74269
2.48432
2.22878
1.9931
1.78545
1.58434
1.46351
1.44176
1.64791
1.7295
2.76812
2.52933
2.28568
2.05411
1.84479
1.64065
1.48382
1.42226
1.55958
1.69775
2.79016
2.56904
2.33697
2.10999
1.89965
1.69392
1.50824
1.41934
1.481
1.65644
2.80955
2.60421
2.38325
2.16088
1.9493
1.74472
1.54269
1.4202
1.42529
1.6052
2.82668
2.63524
2.42448
2.20688
1.99534
1.79052
1.58031
1.42338
1.38757
1.55
2.8418
2.66263
2.46118
2.24846
2.037
1.83189
1.61977
1.43045
1.36569
1.49445
2.85512
2.68666
2.49372
2.28561
2.07492
1.86893
1.65684
1.44541
1.35726
1.43841
2.86687
2.70761
2.5223
2.31864
2.10885
1.90176
1.69118
1.46717
1.35675
1.3859
2.87728
2.72584
2.54701
2.34761
2.13904
1.93132
1.7216
1.49323
1.36351
1.33639
2.88659
2.74166
2.56861
2.37289
2.16601
1.95745
1.74859
1.52078
1.37113
1.29379
2.89492
2.75551
2.58718
2.39488
2.18969
1.98081
1.77193
1.54725
1.37685
1.26207
2.90236
2.76753
2.60309
2.41382
2.21058
2.00133
1.79196
1.57239
1.38272
1.23838
2.90893
2.77803
2.61649
2.43008
2.22861
2.0191
1.80891
1.59443
1.38934
1.22041
2.91459
2.78702
2.62745
2.44369
2.24395
2.03426
1.82294
1.61344
1.39753
1.20675
2.91923
2.79453
2.63596
2.45506
2.2568
2.04689
1.8344
1.62921
1.40613
1.19624
2.92288
2.80043
2.64209
2.46396
2.267
2.05693
1.84332
1.64142
1.41407
1.18837
2.92552
2.80551
2.64616
2.471
2.27488
2.06466
1.85006
1.65064
1.42068
1.18294
2.92712
2.80897
2.64831
2.47559
2.28023
2.06988
1.85462
1.65685
1.42575
1.17947
2.92803
2.81105
2.64986
2.47829
2.28337
2.0729
1.85711
1.66028
1.42862
1.17737
3.18951
3.17419
3.16058
3.14111
3.11878
3.08878
3.05346
3.00783
2.95196
2.88408
3.17401
3.15929
3.14686
3.12919
3.10869
3.08144
3.04915
3.00808
2.95789
2.89748
3.16216
3.14762
3.13622
3.11993
3.10098
3.07615
3.04639
3.00921
2.96378
2.90917
3.15316
3.13872
3.12813
3.11294
3.09527
3.0725
3.04485
3.01096
2.96942
2.91961
3.14645
3.13206
3.1221
3.10776
3.09112
3.06996
3.04416
3.01292
2.97469
2.92892
3.14178
3.12734
3.11778
3.10403
3.0881
3.06822
3.04409
3.015
2.97952
2.9372
3.13888
3.12426
3.11489
3.10155
3.08614
3.06727
3.04438
3.01708
2.98391
2.94457
3.13731
3.12246
3.11314
3.10013
3.0851
3.06691
3.04495
3.01913
2.98794
2.95116
3.13674
3.12158
3.11217
3.09934
3.08459
3.06693
3.04582
3.02122
2.99172
2.95712
3.13685
3.12135
3.1118
3.09904
3.08449
3.06736
3.04706
3.02348
2.99544
2.96265
3.13708
3.12145
3.1118
3.09914
3.08485
3.06823
3.04863
3.02596
2.99918
2.96792
3.13715
3.12173
3.11218
3.09971
3.08571
3.06948
3.05049
3.02859
3.0029
2.97291
3.13732
3.12234
3.11294
3.10068
3.08696
3.07107
3.05264
3.0314
3.00664
2.97772
3.13847
3.12376
3.11433
3.10213
3.08856
3.07289
3.05486
3.03411
3.01008
2.98205
3.14002
3.12545
3.11594
3.10379
3.09032
3.07483
3.05712
3.03676
3.01331
2.98596
3.14168
3.12719
3.11761
3.10548
3.09209
3.07671
3.05921
3.03909
3.01604
2.98925
3.14318
3.12875
3.11912
3.10698
3.09365
3.07833
3.06098
3.04102
3.01829
2.99186
3.14441
3.13003
3.12034
3.10818
3.09488
3.07959
3.06237
3.04254
3.02004
2.99388
3.14507
3.13077
3.12103
3.10885
3.09557
3.08032
3.0632
3.04348
3.02117
2.99516
3.14532
3.13119
3.12151
3.10936
3.09611
3.08086
3.06379
3.04411
3.0219
2.99597
1.40422
1.41337
1.42384
1.43598
1.45001
1.46768
1.48536
1.52813
2.75452
3.26556
1.40422
1.41337
1.42383
1.43598
1.45001
1.46763
1.48573
1.5209
2.72689
3.25992
1.40422
1.41337
1.42383
1.43598
1.45001
1.46757
1.48611
1.51594
2.69756
3.25522
1.40422
1.41337
1.42383
1.43599
1.45002
1.46751
1.4865
1.51259
2.6674
3.2514
1.40422
1.41337
1.42383
1.43599
1.45002
1.46746
1.48687
1.51039
2.63731
3.24827
1.40422
1.41337
1.42383
1.43599
1.45002
1.46742
1.48721
1.50899
2.60792
3.24589
1.40422
1.41337
1.42383
1.43599
1.45002
1.46741
1.48751
1.50812
2.5796
3.24429
1.40422
1.41337
1.42383
1.43599
1.45001
1.46742
1.48778
1.5076
2.55257
3.24329
1.40422
1.41337
1.42383
1.436
1.45002
1.46744
1.48803
1.50732
2.5271
3.24279
1.40422
1.41337
1.42383
1.436
1.45002
1.46742
1.48826
1.50721
2.50365
3.24263
1.40422
1.41337
1.42383
1.43599
1.45003
1.46736
1.48848
1.5072
2.48293
3.24209
1.40422
1.41337
1.42382
1.43599
1.45005
1.46728
1.4887
1.50727
2.46594
3.24034
1.40422
1.41338
1.42382
1.43599
1.45007
1.46717
1.48892
1.50738
2.45251
3.23772
1.40422
1.41338
1.42382
1.43599
1.4501
1.46706
1.48912
1.50751
2.44053
3.23583
1.40422
1.41338
1.42382
1.43599
1.45012
1.46696
1.48933
1.50764
2.43009
3.23443
1.40422
1.41338
1.42382
1.43599
1.45015
1.46686
1.48953
1.50775
2.42123
3.23343
1.40422
1.41338
1.42382
1.43599
1.45017
1.46677
1.48973
1.50783
2.41402
3.23266
1.40422
1.41338
1.42382
1.43599
1.45018
1.4667
1.48991
1.50788
2.40847
3.2321
1.40422
1.41338
1.42381
1.43599
1.45019
1.46666
1.49003
1.50791
2.40453
3.23152
1.40422
1.41338
1.42381
1.43599
1.4502
1.46662
1.49022
1.50791
2.40239
3.23117
1.40422
1.41338
1.42381
1.43599
1.4502
1.46662
1.49022
1.50791
2.40239
3.23117
1.40422
1.41338
1.42381
1.43599
1.45019
1.46666
1.49003
1.50791
2.40453
3.23152
1.40422
1.41338
1.42382
1.43599
1.45018
1.4667
1.48991
1.50788
2.40847
3.2321
1.40422
1.41338
1.42382
1.43599
1.45017
1.46677
1.48973
1.50783
2.41402
3.23266
1.40422
1.41338
1.42382
1.43599
1.45015
1.46686
1.48953
1.50775
2.42123
3.23343
1.40422
1.41338
1.42382
1.43599
1.45012
1.46696
1.48933
1.50764
2.43009
3.23443
1.40422
1.41338
1.42382
1.43599
1.4501
1.46706
1.48912
1.50751
2.44053
3.23583
1.40422
1.41338
1.42382
1.43599
1.45007
1.46717
1.48892
1.50738
2.45251
3.23772
1.40422
1.41337
1.42382
1.43599
1.45005
1.46728
1.4887
1.50727
2.46594
3.24034
1.40422
1.41337
1.42383
1.43599
1.45003
1.46736
1.48848
1.5072
2.48293
3.24209
1.40422
1.41337
1.42383
1.436
1.45002
1.46742
1.48826
1.50721
2.50365
3.24263
1.40422
1.41337
1.42383
1.436
1.45002
1.46744
1.48803
1.50732
2.5271
3.24279
1.40422
1.41337
1.42383
1.43599
1.45001
1.46742
1.48778
1.5076
2.55256
3.24329
1.40422
1.41337
1.42383
1.43599
1.45002
1.46741
1.48751
1.50812
2.5796
3.24429
1.40422
1.41337
1.42383
1.43599
1.45002
1.46742
1.48721
1.50899
2.60792
3.24589
1.40422
1.41337
1.42383
1.43599
1.45002
1.46746
1.48687
1.51039
2.63731
3.24827
1.40422
1.41337
1.42383
1.43599
1.45002
1.46751
1.4865
1.51259
2.6674
3.2514
1.40422
1.41337
1.42383
1.43598
1.45001
1.46757
1.48611
1.51594
2.69756
3.25523
1.40422
1.41337
1.42383
1.43598
1.45001
1.46763
1.48573
1.5209
2.72689
3.25993
1.40422
1.41337
1.42384
1.43598
1.45001
1.46768
1.48536
1.52813
2.75452
3.26557
3.14532
3.13119
3.12151
3.10935
3.0961
3.08086
3.06378
3.0441
3.02189
2.99596
3.14507
3.13077
3.12102
3.10885
3.09557
3.08032
3.06319
3.04347
3.02116
2.99515
3.14441
3.13003
3.12033
3.10818
3.09487
3.07959
3.06236
3.04253
3.02003
2.99387
3.14318
3.12875
3.11911
3.10698
3.09365
3.07832
3.06097
3.04102
3.01828
2.99186
3.14168
3.12718
3.11761
3.10547
3.09209
3.07671
3.05921
3.03909
3.01604
2.98925
3.14002
3.12544
3.11594
3.10378
3.09032
3.07483
3.05712
3.03676
3.01331
2.98597
3.13846
3.12376
3.11433
3.10213
3.08855
3.07289
3.05486
3.03412
3.0101
2.98206
3.13732
3.12234
3.11294
3.10068
3.08696
3.07108
3.05265
3.03141
3.00666
2.97774
3.13715
3.12173
3.11218
3.09972
3.08572
3.06949
3.0505
3.0286
3.00291
2.97293
3.13708
3.12145
3.1118
3.09915
3.08486
3.06824
3.04865
3.02598
2.9992
2.96794
3.13686
3.12136
3.1118
3.09905
3.0845
3.06737
3.04707
3.0235
2.99546
2.96267
3.13674
3.12158
3.11218
3.09935
3.0846
3.06695
3.04584
3.02124
2.99174
2.95712
3.13732
3.12247
3.11315
3.10014
3.08512
3.06693
3.04497
3.01914
2.98795
2.95115
3.13889
3.12427
3.1149
3.10157
3.08615
3.06729
3.04439
3.01709
2.98391
2.94455
3.14179
3.12735
3.1178
3.10404
3.08811
3.06823
3.0441
3.015
2.97951
2.93717
3.14647
3.13207
3.12212
3.10778
3.09113
3.06997
3.04416
3.01291
2.97466
2.92888
3.15318
3.13873
3.12814
3.11294
3.09527
3.0725
3.04484
3.01093
2.96938
2.91955
3.16217
3.14763
3.13623
3.11994
3.10098
3.07614
3.04637
3.00918
2.96373
2.9091
3.17402
3.15929
3.14686
3.12918
3.10868
3.08142
3.04911
3.00802
2.95782
2.89741
3.18951
3.17419
3.16057
3.1411
3.11876
3.08874
3.05341
3.00776
2.95188
2.88401
)
;

boundaryField
{
    inlet
    {
        type            calculated;
        value           uniform 1.40001;
    }
    outlet
    {
        type            calculated;
        value           nonuniform List<scalar> 
100
(
1.75597
1.72965
1.69791
1.6566
1.60536
1.55015
1.4946
1.43855
1.38605
1.33653
1.29393
1.26221
1.23852
1.22054
1.20688
1.19637
1.18851
1.18308
1.17961
1.17751
1.88832
1.88903
1.8864
1.87894
1.86873
1.85832
1.85099
1.84517
1.83927
1.83382
1.82916
1.82501
1.82087
1.81703
1.81044
1.80335
1.79567
1.78773
1.7799
1.77147
1.90188
1.89411
1.86465
1.84523
1.82064
1.75613
1.69239
1.63482
1.60684
1.59837
1.58666
1.59983
1.63386
1.67508
1.75067
1.80617
1.8483
1.8858
1.89205
1.88918
1.77206
1.77995
1.78753
1.79602
1.80427
1.81095
1.81658
1.82074
1.82533
1.83091
1.83516
1.83826
1.84307
1.85239
1.86455
1.8728
1.87376
1.87696
1.88435
1.89843
1.17748
1.1796
1.1831
1.18856
1.19646
1.20701
1.22069
1.23868
1.26234
1.294
1.3365
1.38586
1.43816
1.49398
1.54942
1.60472
1.65601
1.69773
1.72935
1.75666
)
;
    }
    triangle
    {
        type            calculated;
        value           nonuniform List<scalar> 
40
(
3.97002
3.83535
3.74101
3.64894
3.55915
3.47169
3.37686
3.27035
3.11398
2.91371
1.02214
0.993705
0.974531
0.972906
0.978449
0.987774
0.992801
0.992962
0.989718
0.988116
0.987955
0.989269
0.992196
0.991605
0.986243
0.976866
0.970974
0.972258
0.991444
1.01944
3.96998
3.83531
3.74098
3.64892
3.55912
3.47166
3.37684
3.27037
3.1141
2.91409
)
;
    }
    top
    {
        type            symmetryPlane;
    }
    bottom
    {
        type            symmetryPlane;
    }
    defaultFaces
    {
        type            empty;
    }
}


// ************************************************************************* //
