/*--------------------------------*- C++ -*----------------------------------*\
  =========                 |
  \\      /  F ield         | OpenFOAM: The Open Source CFD Toolbox
   \\    /   O peration     | Website:  https://openfoam.org
    \\  /    A nd           | Version:  8
     \\/     M anipulation  |
\*---------------------------------------------------------------------------*/
FoamFile
{
    version     2.0;
    format      ascii;
    class       volScalarField;
    location    "2.5";
    object      T;
}
// * * * * * * * * * * * * * * * * * * * * * * * * * * * * * * * * * * * * * //

dimensions      [0 0 0 1 0 0 0];

internalField   nonuniform List<scalar> 
2600
(
1.27781
1.20536
1.10682
1.05161
1.07189
1.12762
1.16813
1.178
1.16828
1.14908
1.3332
1.26426
1.1588
1.08519
1.09749
1.14128
1.17358
1.18204
1.17145
1.15374
1.34339
1.2938
1.21022
1.13135
1.13299
1.16289
1.18494
1.18745
1.17664
1.15836
1.34512
1.30246
1.25086
1.1843
1.17734
1.20036
1.21394
1.20041
1.19352
1.17598
1.34593
1.30418
1.28173
1.24951
1.23197
1.24757
1.25534
1.23742
1.22533
1.20957
1.34757
1.30742
1.30261
1.31215
1.30583
1.31257
1.3038
1.29221
1.26675
1.2517
1.34876
1.3099
1.31142
1.34812
1.37305
1.39406
1.38116
1.35279
1.32373
1.30239
1.34902
1.31157
1.31744
1.36537
1.41611
1.45055
1.4446
1.41446
1.38358
1.34462
1.34785
1.31311
1.32284
1.37641
1.43653
1.47101
1.47816
1.44828
1.427
1.37238
1.34735
1.31268
1.32402
1.37894
1.43914
1.46938
1.48376
1.46124
1.44002
1.38379
1.3473
1.31221
1.32378
1.37836
1.43832
1.4688
1.47682
1.47158
1.43121
1.37976
1.34772
1.3119
1.32108
1.37826
1.4391
1.46809
1.46323
1.45316
1.4144
1.37121
1.34885
1.31075
1.31873
1.37003
1.42097
1.44671
1.4357
1.41095
1.38397
1.34923
1.34835
1.30949
1.3139
1.35787
1.38371
1.38834
1.37232
1.34617
1.33132
1.30438
1.34654
1.30729
1.30602
1.32384
1.32056
1.30896
1.29873
1.27745
1.27574
1.25748
1.34455
1.30353
1.28435
1.2625
1.24462
1.24159
1.24275
1.24175
1.2278
1.21141
1.34335
1.30122
1.25159
1.19376
1.18445
1.19486
1.20407
1.2106
1.19271
1.17936
1.34122
1.29164
1.20974
1.13859
1.14042
1.1599
1.18148
1.18606
1.17864
1.16367
1.33089
1.26193
1.15803
1.09184
1.10393
1.13792
1.17167
1.17752
1.17492
1.15209
1.27572
1.20373
1.10626
1.0572
1.07687
1.12356
1.16603
1.17737
1.17057
1.14509
1.22732
1.13572
1.06321
1.03309
1.05726
1.1126
1.16279
1.17685
1.16734
1.14265
1.19831
1.09245
1.03876
1.01771
1.04385
1.10344
1.16041
1.17581
1.1644
1.14246
1.19728
1.07608
1.02681
1.00907
1.03442
1.09587
1.15723
1.17291
1.16501
1.14296
1.20236
1.0732
1.02307
1.00517
1.02663
1.08812
1.15428
1.17256
1.16758
1.14375
1.21487
1.08158
1.0228
1.00554
1.02156
1.07815
1.14987
1.1737
1.16942
1.14445
1.23037
1.09857
1.03182
1.00898
1.0195
1.06709
1.14278
1.17419
1.16979
1.14506
1.24662
1.11862
1.04882
1.01707
1.01994
1.05655
1.13359
1.17086
1.1681
1.14573
1.26227
1.13873
1.06527
1.02896
1.02274
1.04803
1.1222
1.16321
1.16627
1.14594
1.27655
1.15914
1.08046
1.03769
1.02516
1.0411
1.10943
1.15519
1.1648
1.14501
1.28906
1.17807
1.09761
1.04523
1.02688
1.03513
1.09609
1.14882
1.1623
1.14268
1.29958
1.19418
1.11482
1.05634
1.02779
1.02989
1.08197
1.14256
1.15838
1.13951
1.30811
1.20779
1.12916
1.07038
1.03101
1.02698
1.0681
1.13595
1.154
1.13611
1.31468
1.21986
1.14153
1.08251
1.03721
1.02568
1.05608
1.12777
1.15049
1.13274
1.31988
1.23047
1.15347
1.09219
1.04409
1.02675
1.04623
1.11804
1.1474
1.12969
1.32426
1.2398
1.16486
1.10192
1.05013
1.0289
1.03851
1.10703
1.14419
1.12638
1.32817
1.24808
1.17494
1.11238
1.05685
1.03086
1.03232
1.09488
1.14066
1.1234
1.33176
1.25551
1.18386
1.12219
1.066
1.03281
1.02753
1.08213
1.13642
1.12067
1.3351
1.26221
1.19225
1.131
1.07585
1.03577
1.02546
1.06929
1.13132
1.1182
1.33824
1.26835
1.20043
1.13967
1.0848
1.03961
1.02514
1.05769
1.12516
1.11603
1.34121
1.27426
1.20846
1.14843
1.09332
1.04384
1.02563
1.04731
1.11775
1.11403
1.62734
1.60529
1.58968
1.57326
1.55591
1.53803
1.51837
1.49587
1.4628
1.43888
1.5927
1.57029
1.55921
1.54612
1.53231
1.51688
1.49883
1.47609
1.44235
1.39951
1.57632
1.55851
1.547
1.5332
1.52
1.50548
1.4881
1.46534
1.43187
1.38561
1.55751
1.54349
1.53297
1.51949
1.50687
1.49226
1.4749
1.45208
1.4196
1.37284
1.53971
1.52853
1.52012
1.50805
1.49628
1.48191
1.46499
1.44257
1.4115
1.36594
1.52134
1.51292
1.50683
1.49711
1.48726
1.47402
1.45807
1.43615
1.40656
1.36331
1.50741
1.50182
1.49759
1.48964
1.48113
1.46872
1.4537
1.43244
1.40445
1.36385
1.50285
1.49736
1.49303
1.4856
1.47758
1.46556
1.45119
1.43054
1.40403
1.36626
1.49991
1.49538
1.49115
1.48384
1.47576
1.46376
1.44975
1.42964
1.40441
1.36959
1.49674
1.49295
1.48874
1.48156
1.47352
1.46174
1.44819
1.42877
1.40481
1.3726
1.49276
1.48902
1.48475
1.47779
1.46996
1.45866
1.44572
1.42723
1.4047
1.37476
1.48809
1.48376
1.47934
1.47263
1.46509
1.45437
1.44213
1.42479
1.40374
1.37596
1.48337
1.4783
1.47369
1.4671
1.45975
1.44957
1.43798
1.42174
1.40213
1.37654
1.47884
1.47319
1.46842
1.4619
1.45469
1.44497
1.43393
1.41866
1.40042
1.37685
1.47458
1.46859
1.46375
1.45732
1.45027
1.44094
1.43038
1.41602
1.39891
1.37712
1.4704
1.46434
1.45954
1.45326
1.44644
1.43754
1.42743
1.41392
1.39781
1.37755
1.4662
1.46037
1.45576
1.44972
1.44317
1.43468
1.42502
1.41231
1.3971
1.37819
1.46164
1.45647
1.45223
1.44654
1.44033
1.43228
1.42307
1.41108
1.39672
1.379
1.45714
1.45281
1.44895
1.44364
1.43779
1.43017
1.42142
1.41014
1.39657
1.37994
1.45346
1.44973
1.44612
1.44116
1.43562
1.42842
1.42009
1.40945
1.3966
1.38096
1.0012
1.0038
1.00678
1.01018
1.01416
1.01911
1.02351
1.07863
1.42776
1.52823
1.0012
1.0038
1.00678
1.01018
1.01416
1.01911
1.02351
1.07867
1.42767
1.52532
1.0012
1.0038
1.00678
1.01018
1.01416
1.01911
1.02352
1.07869
1.42849
1.52042
1.0012
1.0038
1.00678
1.01018
1.01415
1.01912
1.02352
1.07863
1.43001
1.51544
1.0012
1.0038
1.00678
1.01018
1.01415
1.01912
1.02352
1.07838
1.43154
1.51204
1.0012
1.0038
1.00678
1.01018
1.01415
1.01912
1.02352
1.07785
1.43232
1.51062
1.0012
1.0038
1.00678
1.01018
1.01414
1.01913
1.02352
1.07701
1.43201
1.51012
1.0012
1.0038
1.00678
1.01019
1.01414
1.01913
1.02352
1.07589
1.4302
1.50855
1.0012
1.0038
1.00678
1.01019
1.01414
1.01913
1.02352
1.07446
1.42683
1.50534
1.0012
1.0038
1.00678
1.01019
1.01414
1.01914
1.02352
1.0727
1.42255
1.5004
1.0012
1.0038
1.00677
1.01019
1.01413
1.01914
1.02352
1.07051
1.41797
1.4947
1.0012
1.0038
1.00677
1.01019
1.01413
1.01913
1.02353
1.06783
1.41348
1.48913
1.0012
1.0038
1.00677
1.01019
1.01413
1.01913
1.02354
1.06448
1.40926
1.48422
1.0012
1.0038
1.00677
1.01019
1.01413
1.01913
1.02357
1.06075
1.40546
1.48007
1.0012
1.0038
1.00677
1.01019
1.01413
1.01912
1.02359
1.05662
1.40205
1.47661
1.0012
1.0038
1.00677
1.01019
1.01413
1.01912
1.02363
1.05228
1.39901
1.4737
1.0012
1.0038
1.00677
1.01019
1.01413
1.01911
1.02366
1.04793
1.39606
1.47122
1.0012
1.0038
1.00677
1.01019
1.01413
1.0191
1.02371
1.04382
1.39291
1.46912
1.0012
1.0038
1.00677
1.01019
1.01413
1.01909
1.02377
1.04032
1.38933
1.46736
1.0012
1.0038
1.00677
1.01019
1.01413
1.01908
1.02384
1.03777
1.38544
1.46586
1.0012
1.0038
1.00677
1.01019
1.01413
1.01908
1.02384
1.03777
1.38544
1.46586
1.0012
1.0038
1.00677
1.01019
1.01413
1.01909
1.02377
1.04032
1.38933
1.46736
1.0012
1.0038
1.00677
1.01019
1.01413
1.0191
1.02371
1.04382
1.39291
1.46912
1.0012
1.0038
1.00677
1.01019
1.01413
1.01911
1.02366
1.04793
1.39606
1.47122
1.0012
1.0038
1.00677
1.01019
1.01413
1.01912
1.02363
1.05228
1.39901
1.4737
1.0012
1.0038
1.00677
1.01019
1.01413
1.01912
1.02359
1.05662
1.40205
1.47661
1.0012
1.0038
1.00677
1.01019
1.01413
1.01913
1.02357
1.06075
1.40546
1.48007
1.0012
1.0038
1.00677
1.01019
1.01413
1.01913
1.02354
1.06448
1.40927
1.48422
1.0012
1.0038
1.00677
1.01019
1.01413
1.01913
1.02353
1.06783
1.41348
1.48913
1.0012
1.0038
1.00677
1.01019
1.01413
1.01914
1.02352
1.07052
1.41797
1.4947
1.0012
1.0038
1.00678
1.01019
1.01414
1.01914
1.02352
1.07271
1.42255
1.5004
1.0012
1.0038
1.00678
1.01019
1.01414
1.01913
1.02352
1.07446
1.42683
1.50533
1.0012
1.0038
1.00678
1.01019
1.01414
1.01913
1.02352
1.07589
1.43021
1.50855
1.0012
1.0038
1.00678
1.01018
1.01414
1.01913
1.02352
1.07701
1.43202
1.51012
1.0012
1.0038
1.00678
1.01018
1.01415
1.01912
1.02352
1.07785
1.43233
1.51062
1.0012
1.0038
1.00678
1.01018
1.01415
1.01912
1.02352
1.07839
1.43155
1.51204
1.0012
1.0038
1.00678
1.01018
1.01415
1.01912
1.02352
1.07864
1.43001
1.51544
1.0012
1.0038
1.00678
1.01018
1.01416
1.01911
1.02352
1.07869
1.42846
1.52041
1.0012
1.0038
1.00678
1.01018
1.01416
1.01911
1.02351
1.07861
1.42761
1.52532
1.0012
1.0038
1.00678
1.01018
1.01416
1.01911
1.02351
1.07882
1.4277
1.52822
1.45346
1.44973
1.44612
1.44116
1.43562
1.42841
1.42008
1.40943
1.39659
1.38095
1.45714
1.45281
1.44895
1.44363
1.43778
1.43016
1.42141
1.41013
1.39656
1.37993
1.46164
1.45647
1.45223
1.44653
1.44032
1.43226
1.42305
1.41107
1.39671
1.37899
1.46619
1.46037
1.45576
1.44971
1.44316
1.43467
1.42501
1.41229
1.3971
1.37819
1.4704
1.46434
1.45954
1.45326
1.44643
1.43753
1.42742
1.41391
1.3978
1.37755
1.47457
1.46859
1.46374
1.45731
1.45026
1.44093
1.43037
1.41601
1.39891
1.37713
1.47884
1.47319
1.46841
1.4619
1.45468
1.44496
1.43392
1.41866
1.40042
1.37686
1.48337
1.4783
1.47368
1.4671
1.45974
1.44956
1.43797
1.42173
1.40213
1.37656
1.48808
1.48376
1.47934
1.47263
1.46508
1.45436
1.44213
1.42478
1.40374
1.37599
1.49276
1.48902
1.48474
1.47778
1.46995
1.45865
1.44571
1.42724
1.40471
1.3748
1.49674
1.49295
1.48874
1.48155
1.47351
1.46174
1.44819
1.42877
1.40483
1.37264
1.49991
1.49538
1.49114
1.48384
1.47576
1.46375
1.44975
1.42964
1.40443
1.36964
1.50284
1.49736
1.49303
1.4856
1.47758
1.46556
1.45119
1.43055
1.40406
1.36632
1.50741
1.50181
1.49759
1.48964
1.48112
1.46872
1.4537
1.43244
1.40447
1.36392
1.52133
1.51291
1.50683
1.4971
1.48725
1.47401
1.45807
1.43616
1.40659
1.36339
1.5397
1.52852
1.52011
1.50804
1.49627
1.4819
1.46499
1.44257
1.41153
1.36603
1.5575
1.54348
1.53297
1.51949
1.50686
1.49225
1.47489
1.45209
1.41963
1.37292
1.57632
1.55851
1.547
1.5332
1.52
1.50547
1.4881
1.46535
1.43189
1.38569
1.5927
1.5703
1.55921
1.54612
1.53231
1.51687
1.49883
1.4761
1.44237
1.39959
1.62734
1.6053
1.58968
1.57326
1.5559
1.53803
1.51837
1.49587
1.46281
1.43898
1.34122
1.2743
1.20853
1.14842
1.09317
1.04379
1.02566
1.04719
1.11759
1.11418
1.33826
1.2684
1.20048
1.1396
1.0846
1.03957
1.0252
1.05765
1.12498
1.11604
1.33512
1.26229
1.1923
1.13087
1.07554
1.03576
1.02564
1.06932
1.13139
1.11813
1.33179
1.25562
1.18392
1.12202
1.06558
1.03291
1.02789
1.0823
1.13666
1.12073
1.32821
1.24823
1.17502
1.11211
1.0565
1.03101
1.03281
1.09533
1.14076
1.12359
1.32431
1.23996
1.16493
1.10155
1.04991
1.02902
1.03922
1.10763
1.14403
1.12645
1.31993
1.2306
1.1535
1.09178
1.04379
1.02701
1.04714
1.11831
1.14709
1.12955
1.31474
1.21997
1.14153
1.08205
1.03655
1.02618
1.05706
1.12745
1.15025
1.13267
1.30819
1.20791
1.12908
1.06971
1.03064
1.02755
1.06938
1.13553
1.15413
1.13616
1.29969
1.19434
1.11466
1.05551
1.02785
1.03053
1.08381
1.14286
1.15841
1.13997
1.28919
1.17825
1.09738
1.04452
1.02674
1.03609
1.0977
1.14982
1.16185
1.14291
1.2767
1.15931
1.08025
1.03716
1.02478
1.04211
1.10974
1.15615
1.16437
1.14429
1.26245
1.13883
1.06522
1.02832
1.02212
1.04923
1.12186
1.16284
1.16631
1.14497
1.24687
1.11862
1.04891
1.01609
1.01929
1.05884
1.13429
1.16911
1.16848
1.14583
1.23075
1.09848
1.03214
1.0078
1.01828
1.07015
1.14406
1.17407
1.16959
1.1463
1.21538
1.08164
1.02323
1.00405
1.01995
1.08082
1.15028
1.1757
1.16896
1.14545
1.20296
1.07351
1.0237
1.00279
1.02408
1.09074
1.15334
1.17468
1.1671
1.14295
1.19796
1.07644
1.02781
1.00581
1.03111
1.09946
1.155
1.1728
1.16547
1.14162
1.19916
1.09302
1.03988
1.01349
1.0402
1.10811
1.15999
1.17186
1.16532
1.14205
1.22839
1.13669
1.06414
1.02827
1.05322
1.11722
1.16436
1.17452
1.16653
1.14523
1.38836
1.36059
1.32343
1.28339
1.23743
1.18657
1.13243
1.08011
1.01376
0.937135
1.3882
1.36019
1.32312
1.28282
1.23675
1.18588
1.13183
1.07921
1.01298
0.937776
1.38795
1.35953
1.32269
1.28186
1.23558
1.1847
1.13074
1.07762
1.01165
0.938865
1.38754
1.35856
1.32186
1.28036
1.23385
1.18294
1.12914
1.07528
1.00999
0.940629
1.38694
1.35743
1.32059
1.27844
1.23158
1.18064
1.12701
1.07219
1.00802
0.943238
1.38612
1.35593
1.31879
1.27596
1.22869
1.17771
1.12423
1.06819
1.00593
0.946766
1.38503
1.35406
1.31641
1.27293
1.22519
1.17415
1.12079
1.06332
1.004
0.951382
1.38364
1.35177
1.31344
1.26926
1.22103
1.16994
1.11657
1.05766
1.00251
0.957532
1.38193
1.34905
1.30984
1.26494
1.21616
1.16503
1.1115
1.05123
1.00109
0.965824
1.37993
1.34588
1.30565
1.25994
1.21064
1.15941
1.10551
1.04454
0.999265
0.977274
1.37766
1.34228
1.30083
1.25425
1.20439
1.15311
1.09851
1.03763
0.996631
0.992366
1.37517
1.33826
1.29547
1.24785
1.19745
1.14598
1.09059
1.03093
0.995313
1.00827
1.37251
1.33383
1.28945
1.2407
1.18972
1.13805
1.08161
1.02531
0.995833
1.0251
1.36967
1.32896
1.28277
1.23274
1.18114
1.12907
1.07187
1.02142
0.998826
1.04267
1.36666
1.32358
1.27532
1.22388
1.17169
1.11895
1.06147
1.01938
1.00574
1.05915
1.36343
1.31754
1.26693
1.21399
1.16115
1.10759
1.05163
1.01756
1.01757
1.07396
1.35985
1.31066
1.25736
1.20285
1.14959
1.0948
1.04264
1.01655
1.03361
1.08665
1.35578
1.30275
1.24653
1.19038
1.13651
1.08116
1.03638
1.01719
1.05556
1.09662
1.35105
1.29368
1.23435
1.17644
1.12205
1.06652
1.03115
1.02252
1.07975
1.10438
1.34558
1.28308
1.22035
1.16108
1.10599
1.05298
1.02731
1.03452
1.10297
1.11091
1.34558
1.28302
1.22028
1.16105
1.10608
1.05301
1.0273
1.03472
1.10315
1.11073
1.35106
1.29365
1.23429
1.17643
1.12206
1.06656
1.0312
1.02275
1.08017
1.10446
1.35579
1.30274
1.24652
1.19035
1.13651
1.08113
1.0364
1.01725
1.05604
1.09666
1.35986
1.31066
1.25735
1.20284
1.14956
1.09475
1.04265
1.01655
1.03403
1.08681
1.36344
1.31755
1.26693
1.21398
1.16113
1.10754
1.0516
1.01752
1.01785
1.07415
1.36667
1.32359
1.27533
1.22388
1.17168
1.1189
1.06142
1.01938
1.00591
1.05937
1.36968
1.32897
1.28278
1.23276
1.18114
1.12904
1.07181
1.02141
0.998894
1.04287
1.37251
1.33384
1.28947
1.24071
1.18973
1.13803
1.08157
1.02528
0.99585
1.02524
1.37518
1.33827
1.29548
1.24787
1.19746
1.14598
1.09057
1.0309
0.995317
1.00833
1.37766
1.34228
1.30085
1.25427
1.20441
1.15312
1.09851
1.03759
0.996636
0.992368
1.37993
1.34588
1.30565
1.25996
1.21066
1.15942
1.10551
1.04454
0.999265
0.977244
1.38193
1.34905
1.30985
1.26496
1.21618
1.16505
1.11151
1.05123
1.00108
0.965778
1.38363
1.35177
1.31344
1.26927
1.22104
1.16995
1.11658
1.05768
1.0025
0.957481
1.38503
1.35406
1.31642
1.27294
1.2252
1.17417
1.1208
1.06335
1.004
0.951338
1.38612
1.35593
1.31879
1.27596
1.2287
1.17772
1.12424
1.06821
1.00594
0.946727
1.38694
1.35742
1.32059
1.27844
1.23158
1.18064
1.12701
1.07221
1.00804
0.94321
1.38754
1.35856
1.32186
1.28036
1.23385
1.18294
1.12914
1.0753
1.01001
0.940612
1.38795
1.35953
1.32268
1.28185
1.23558
1.18469
1.13074
1.07763
1.01167
0.938858
1.3882
1.36019
1.32312
1.28282
1.23674
1.18587
1.13183
1.07922
1.01299
0.937778
1.38836
1.36059
1.32342
1.28338
1.23743
1.18656
1.13243
1.08011
1.01377
0.937142
1.44998
1.44653
1.44312
1.43851
1.43329
1.42655
1.41873
1.40883
1.39686
1.38249
1.44681
1.44344
1.44021
1.43591
1.431
1.42476
1.41748
1.40845
1.39755
1.38461
1.44455
1.44118
1.4381
1.434
1.42934
1.4235
1.41665
1.40838
1.39839
1.38654
1.44303
1.43964
1.43666
1.43272
1.42824
1.42272
1.41626
1.40853
1.39925
1.38829
1.44214
1.43873
1.43582
1.43198
1.42764
1.42241
1.41623
1.4089
1.40017
1.38993
1.44171
1.43828
1.43543
1.4317
1.42747
1.42243
1.41646
1.40948
1.40121
1.39154
1.44159
1.43815
1.43535
1.4317
1.42755
1.42265
1.4169
1.41022
1.40233
1.39317
1.44167
1.43821
1.43542
1.43183
1.42777
1.423
1.41743
1.41103
1.4035
1.39479
1.44187
1.43836
1.43559
1.43205
1.42806
1.42342
1.41803
1.41188
1.40468
1.39638
1.44208
1.43855
1.43577
1.43228
1.42837
1.42387
1.41867
1.41274
1.40583
1.39791
1.44219
1.43866
1.43591
1.43248
1.42866
1.4243
1.41928
1.41356
1.40693
1.39933
1.44217
1.4387
1.436
1.43265
1.42893
1.42468
1.41982
1.41429
1.40792
1.40061
1.44204
1.43867
1.43603
1.43276
1.42913
1.42499
1.42027
1.41491
1.40876
1.40171
1.44195
1.43866
1.43606
1.43284
1.42927
1.42521
1.42061
1.41538
1.40942
1.40257
1.44186
1.43862
1.43603
1.43285
1.42934
1.42535
1.42085
1.41573
1.40992
1.40325
1.4418
1.43859
1.436
1.43285
1.42937
1.42543
1.421
1.41596
1.41026
1.40373
1.44178
1.43858
1.43599
1.43285
1.4294
1.42549
1.4211
1.41612
1.4105
1.40407
1.4418
1.43862
1.43602
1.43288
1.42945
1.42555
1.4212
1.41626
1.41069
1.40432
1.44183
1.43866
1.43606
1.43292
1.42949
1.4256
1.42127
1.41635
1.41083
1.40449
1.44186
1.43872
1.43613
1.43299
1.42956
1.42567
1.42135
1.41644
1.41093
1.40462
1.0012
1.00381
1.00677
1.0102
1.01413
1.01906
1.02393
1.03543
1.38037
1.46439
1.0012
1.00381
1.00677
1.0102
1.01413
1.01904
1.02405
1.03347
1.37418
1.46305
1.0012
1.00381
1.00677
1.0102
1.01413
1.01902
1.02416
1.03216
1.36774
1.46212
1.0012
1.00381
1.00677
1.0102
1.01413
1.019
1.02427
1.03129
1.36103
1.46158
1.0012
1.00381
1.00677
1.0102
1.01413
1.01899
1.02437
1.03072
1.3541
1.46138
1.0012
1.00381
1.00677
1.0102
1.01413
1.01898
1.02447
1.03035
1.34699
1.46138
1.0012
1.00381
1.00677
1.0102
1.01413
1.01897
1.02455
1.03013
1.33982
1.46148
1.0012
1.00381
1.00677
1.0102
1.01413
1.01897
1.02463
1.02999
1.33272
1.46168
1.0012
1.00381
1.00677
1.0102
1.01413
1.01898
1.0247
1.02992
1.32584
1.46189
1.0012
1.00381
1.00677
1.0102
1.01413
1.01897
1.02476
1.02989
1.31936
1.46201
1.0012
1.00381
1.00677
1.0102
1.01414
1.01896
1.02482
1.0299
1.3135
1.46196
1.0012
1.00381
1.00677
1.0102
1.01414
1.01893
1.02489
1.02992
1.30847
1.46161
1.0012
1.00381
1.00677
1.0102
1.01415
1.01891
1.02495
1.02995
1.30432
1.46093
1.0012
1.00381
1.00677
1.0102
1.01416
1.01887
1.025
1.02999
1.30065
1.46025
1.0012
1.00381
1.00677
1.0102
1.01416
1.01885
1.02506
1.03002
1.29749
1.45961
1.0012
1.00381
1.00677
1.0102
1.01417
1.01882
1.02512
1.03005
1.29486
1.45906
1.0012
1.00381
1.00677
1.0102
1.01417
1.01879
1.02517
1.03008
1.29274
1.45862
1.0012
1.00381
1.00676
1.0102
1.01418
1.01878
1.02522
1.03009
1.29113
1.45831
1.0012
1.00381
1.00676
1.0102
1.01418
1.01876
1.02526
1.0301
1.29007
1.45811
1.0012
1.00381
1.00676
1.0102
1.01419
1.01875
1.02531
1.03011
1.28958
1.45803
1.0012
1.00381
1.00676
1.0102
1.01419
1.01875
1.02531
1.03011
1.28958
1.45803
1.0012
1.00381
1.00676
1.0102
1.01418
1.01876
1.02526
1.0301
1.29007
1.45811
1.0012
1.00381
1.00676
1.0102
1.01418
1.01878
1.02522
1.03009
1.29113
1.45831
1.0012
1.00381
1.00677
1.0102
1.01417
1.01879
1.02517
1.03008
1.29274
1.45862
1.0012
1.00381
1.00677
1.0102
1.01417
1.01882
1.02512
1.03005
1.29486
1.45906
1.0012
1.00381
1.00677
1.0102
1.01416
1.01885
1.02506
1.03002
1.29749
1.45961
1.0012
1.00381
1.00677
1.0102
1.01416
1.01887
1.025
1.02999
1.30065
1.46025
1.0012
1.00381
1.00677
1.0102
1.01415
1.01891
1.02495
1.02995
1.30432
1.46093
1.0012
1.00381
1.00677
1.0102
1.01414
1.01893
1.02489
1.02992
1.30847
1.46161
1.0012
1.00381
1.00677
1.0102
1.01414
1.01896
1.02482
1.0299
1.3135
1.46196
1.0012
1.00381
1.00677
1.0102
1.01413
1.01897
1.02476
1.02989
1.31936
1.46201
1.0012
1.00381
1.00677
1.0102
1.01413
1.01898
1.0247
1.02992
1.32583
1.46189
1.0012
1.00381
1.00677
1.0102
1.01413
1.01897
1.02463
1.02999
1.33272
1.46168
1.0012
1.00381
1.00677
1.0102
1.01413
1.01897
1.02455
1.03013
1.33982
1.46148
1.0012
1.00381
1.00677
1.0102
1.01413
1.01898
1.02447
1.03035
1.34699
1.46138
1.0012
1.00381
1.00677
1.0102
1.01413
1.01899
1.02437
1.03072
1.3541
1.46138
1.0012
1.00381
1.00677
1.0102
1.01413
1.019
1.02427
1.03129
1.36103
1.46158
1.0012
1.00381
1.00677
1.0102
1.01413
1.01902
1.02416
1.03216
1.36774
1.46212
1.0012
1.00381
1.00677
1.0102
1.01413
1.01904
1.02405
1.03347
1.37418
1.46305
1.0012
1.00381
1.00677
1.0102
1.01413
1.01906
1.02393
1.03543
1.38037
1.46439
1.44186
1.43872
1.43613
1.43299
1.42956
1.42567
1.42135
1.41643
1.41093
1.40461
1.44183
1.43866
1.43606
1.43292
1.42949
1.4256
1.42127
1.41634
1.41082
1.40449
1.4418
1.43861
1.43602
1.43288
1.42945
1.42555
1.4212
1.41625
1.41069
1.40432
1.44178
1.43858
1.43599
1.43285
1.4294
1.42549
1.4211
1.41612
1.4105
1.40407
1.4418
1.43859
1.436
1.43285
1.42937
1.42543
1.421
1.41596
1.41026
1.40373
1.44186
1.43862
1.43603
1.43285
1.42934
1.42535
1.42085
1.41573
1.40992
1.40325
1.44195
1.43866
1.43606
1.43284
1.42927
1.42521
1.42061
1.41538
1.40942
1.40258
1.44204
1.43867
1.43603
1.43276
1.42913
1.42499
1.42027
1.41491
1.40877
1.40171
1.44217
1.4387
1.436
1.43265
1.42893
1.42469
1.41982
1.41429
1.40792
1.40061
1.44219
1.43866
1.43591
1.43249
1.42866
1.42431
1.41928
1.41356
1.40694
1.39934
1.44208
1.43855
1.43577
1.43229
1.42837
1.42387
1.41867
1.41274
1.40584
1.39791
1.44187
1.43837
1.43559
1.43206
1.42806
1.42342
1.41804
1.41188
1.40468
1.39638
1.44167
1.43821
1.43543
1.43183
1.42777
1.42301
1.41744
1.41103
1.4035
1.39479
1.44159
1.43815
1.43535
1.4317
1.42756
1.42266
1.4169
1.41022
1.40233
1.39317
1.44171
1.43828
1.43544
1.4317
1.42748
1.42244
1.41647
1.40948
1.4012
1.39153
1.44214
1.43873
1.43582
1.43198
1.42764
1.42241
1.41623
1.4089
1.40017
1.38992
1.44304
1.43965
1.43667
1.43272
1.42824
1.42272
1.41626
1.40852
1.39924
1.38828
1.44455
1.44118
1.4381
1.434
1.42934
1.4235
1.41665
1.40837
1.39838
1.38653
1.44682
1.44344
1.44021
1.43591
1.431
1.42475
1.41747
1.40844
1.39754
1.38459
1.44998
1.44653
1.44312
1.43851
1.43329
1.42654
1.41872
1.40881
1.39685
1.38248
)
;

boundaryField
{
    inlet
    {
        type            fixedValue;
        value           uniform 1;
    }
    outlet
    {
        type            inletOutlet;
        inletValue      uniform 1;
        value           nonuniform List<scalar> 
100
(
1.11063
1.10436
1.09655
1.0867
1.07404
1.05927
1.04277
1.02513
1.00823
0.992263
0.977138
0.965671
0.957375
0.951232
0.946621
0.943102
0.940503
0.938749
0.937669
0.937033
1.1426
1.14248
1.14286
1.14356
1.14422
1.1449
1.14563
1.14585
1.14491
1.14255
1.13942
1.13606
1.13269
1.12963
1.12631
1.12332
1.12059
1.11812
1.11595
1.11394
1.14893
1.1541
1.15875
1.17562
1.2092
1.25182
1.30205
1.34466
1.37291
1.38368
1.37946
1.37046
1.34926
1.30468
1.25738
1.21114
1.17963
1.16358
1.15166
1.14489
1.1141
1.11598
1.11805
1.12062
1.1235
1.12641
1.12954
1.13256
1.13605
1.13984
1.14288
1.14428
1.14483
1.14553
1.1461
1.1454
1.14307
1.14145
1.1417
1.14486
0.937025
0.937666
0.938755
0.940521
0.94313
0.94666
0.951277
0.957426
0.965718
0.977169
0.992263
1.00817
1.025
1.04257
1.05905
1.07385
1.08655
1.09652
1.10428
1.11081
)
;
    }
    triangle
    {
        type            zeroGradient;
    }
    top
    {
        type            symmetryPlane;
    }
    bottom
    {
        type            symmetryPlane;
    }
    defaultFaces
    {
        type            empty;
    }
}


// ************************************************************************* //
