/*--------------------------------*- C++ -*----------------------------------*\
  =========                 |
  \\      /  F ield         | OpenFOAM: The Open Source CFD Toolbox
   \\    /   O peration     | Website:  https://openfoam.org
    \\  /    A nd           | Version:  8
     \\/     M anipulation  |
\*---------------------------------------------------------------------------*/
FoamFile
{
    version     2.0;
    format      ascii;
    class       volVectorField;
    location    "2.5";
    object      U;
}
// * * * * * * * * * * * * * * * * * * * * * * * * * * * * * * * * * * * * * //

dimensions      [0 1 -1 0 0 0 0];

internalField   nonuniform List<vector> 
2600
(
(0.708649 0.074892 0)
(1.25452 0.160196 0)
(1.52529 0.281532 0)
(1.60416 0.343135 0)
(1.57304 0.285589 0)
(1.45665 0.165263 0)
(1.3962 0.099295 0)
(1.371 0.0588073 0)
(1.38691 0.0308638 0)
(1.41597 -0.00495106 0)
(0.248233 -0.105829 0)
(0.870843 0.124219 0)
(1.36427 0.257433 0)
(1.55336 0.324751 0)
(1.56107 0.263238 0)
(1.45531 0.153617 0)
(1.39744 0.101594 0)
(1.37024 0.0550421 0)
(1.38613 0.0305752 0)
(1.41473 -0.00365924 0)
(0.0293988 -0.125954 0)
(0.476685 0.0447654 0)
(1.09498 0.205493 0)
(1.4516 0.281679 0)
(1.52526 0.245464 0)
(1.44109 0.144992 0)
(1.39396 0.103414 0)
(1.36982 0.0603121 0)
(1.38451 0.0363137 0)
(1.4107 0.00767574 0)
(-0.0545009 -0.153032 0)
(0.186921 -0.00427211 0)
(0.757905 0.139034 0)
(1.26471 0.25196 0)
(1.44942 0.218042 0)
(1.40701 0.11361 0)
(1.3747 0.0800914 0)
(1.36294 0.0704496 0)
(1.37307 0.0330661 0)
(1.39341 0.0101837 0)
(-0.103047 -0.147155 0)
(0.000260901 -0.050209 0)
(0.417212 0.0751327 0)
(0.985473 0.188491 0)
(1.30092 0.198188 0)
(1.31902 0.108789 0)
(1.31533 0.0577262 0)
(1.32834 0.0531598 0)
(1.33964 0.0200609 0)
(1.35084 -0.00506143 0)
(-0.141685 -0.134951 0)
(-0.140069 -0.0544092 0)
(0.101469 0.0283351 0)
(0.617766 0.133709 0)
(1.04419 0.157453 0)
(1.13449 0.100788 0)
(1.17827 0.0795028 0)
(1.23615 0.0325879 0)
(1.26353 0.0366267 0)
(1.26806 0.00415258 0)
(-0.17456 -0.109588 0)
(-0.255075 -0.0542584 0)
(-0.17266 -0.0162643 0)
(0.204318 0.0537274 0)
(0.663591 0.103384 0)
(0.824387 0.0828386 0)
(0.935416 0.0735814 0)
(1.0611 0.0539312 0)
(1.13214 0.0307967 0)
(1.14864 0.00915321 0)
(-0.199386 -0.0813187 0)
(-0.34943 -0.0404935 0)
(-0.376246 -0.0162522 0)
(-0.16735 0.0288421 0)
(0.235588 0.0831595 0)
(0.46103 0.0613415 0)
(0.645292 0.0259354 0)
(0.836421 0.0513784 0)
(0.970774 0.0223039 0)
(1.02894 -0.00419233 0)
(-0.209754 -0.0476589 0)
(-0.413236 -0.0294266 0)
(-0.48808 -0.00932522 0)
(-0.397396 0.0121398 0)
(-0.0792233 0.0715872 0)
(0.185391 0.0620812 0)
(0.428744 0.0378617 0)
(0.660406 0.0235345 0)
(0.844289 0.0258815 0)
(0.952287 0.00641648 0)
(-0.221987 -0.0178619 0)
(-0.439737 -0.0128972 0)
(-0.524347 -0.0078211 0)
(-0.478357 0.00439662 0)
(-0.210882 0.0445718 0)
(0.0793087 0.0293724 0)
(0.350875 0.00825007 0)
(0.594295 -0.00337135 0)
(0.791839 0.00952128 0)
(0.925189 0.0126097 0)
(-0.222331 0.0158009 0)
(-0.440846 0.00617936 0)
(-0.525561 -0.00680426 0)
(-0.481056 -0.0155079 0)
(-0.218223 -0.00791625 0)
(0.0826523 -0.0117966 0)
(0.358579 -0.0257424 0)
(0.593219 -0.0277337 0)
(0.791131 -0.0109592 0)
(0.924499 0.00589111 0)
(-0.21103 0.0468384 0)
(-0.415977 0.0243309 0)
(-0.490797 -0.000637378 0)
(-0.414203 -0.0275092 0)
(-0.115182 -0.0460486 0)
(0.199223 -0.0406884 0)
(0.463299 -0.0346973 0)
(0.663258 -0.0284333 0)
(0.83065 -0.0144405 0)
(0.949969 0.00119548 0)
(-0.199509 0.0818652 0)
(-0.353066 0.036492 0)
(-0.38138 0.00187062 0)
(-0.201354 -0.0276007 0)
(0.166424 -0.0482534 0)
(0.485168 -0.0670608 0)
(0.707736 -0.079424 0)
(0.836878 -0.020911 0)
(0.944475 -0.0235939 0)
(1.02367 -0.0181292 0)
(-0.174142 0.109967 0)
(-0.258265 0.0526754 0)
(-0.180038 0.00626694 0)
(0.161774 -0.0667692 0)
(0.583885 -0.0899056 0)
(0.856243 -0.0750091 0)
(0.99794 -0.0693734 0)
(1.05561 -0.0567756 0)
(1.10468 -0.0305799 0)
(1.14151 -0.00115576 0)
(-0.14183 0.136512 0)
(-0.141871 0.0515275 0)
(0.0959882 -0.0336909 0)
(0.5836 -0.123279 0)
(0.98333 -0.125429 0)
(1.16398 -0.109244 0)
(1.21764 -0.0838304 0)
(1.22926 -0.0666448 0)
(1.24456 -0.00865127 0)
(1.26314 0.00120288 0)
(-0.103427 0.147222 0)
(0.00052473 0.0472638 0)
(0.414147 -0.0821777 0)
(0.960028 -0.182566 0)
(1.26269 -0.181583 0)
(1.3445 -0.1194 0)
(1.33138 -0.0811112 0)
(1.31692 -0.0319972 0)
(1.33183 -0.0201725 0)
(1.34917 -0.00506385 0)
(-0.0549028 0.151545 0)
(0.188976 -0.000539691 0)
(0.758014 -0.142239 0)
(1.24869 -0.24195 0)
(1.4293 -0.202675 0)
(1.42931 -0.128732 0)
(1.37305 -0.0944515 0)
(1.35249 -0.0438729 0)
(1.37024 -0.0395922 0)
(1.3951 -0.00280374 0)
(0.0296556 0.125478 0)
(0.481046 -0.0472058 0)
(1.09425 -0.211717 0)
(1.43981 -0.272767 0)
(1.51509 -0.225462 0)
(1.46375 -0.15153 0)
(1.38556 -0.103308 0)
(1.36108 -0.0649757 0)
(1.38179 -0.0331106 0)
(1.41256 0.00673485 0)
(0.249052 0.10516 0)
(0.875728 -0.12802 0)
(1.36196 -0.259343 0)
(1.54482 -0.311643 0)
(1.55509 -0.245827 0)
(1.47747 -0.163596 0)
(1.38757 -0.103687 0)
(1.36434 -0.0699283 0)
(1.38369 -0.0220275 0)
(1.41769 0.000817997 0)
(0.712228 -0.0738834 0)
(1.25856 -0.161947 0)
(1.52155 -0.283169 0)
(1.59761 -0.333389 0)
(1.56969 -0.271054 0)
(1.4779 -0.177739 0)
(1.38677 -0.107642 0)
(1.3652 -0.0616859 0)
(1.38558 -0.0233792 0)
(1.41873 -0.00290255 0)
(1.26414 0.0125003 0)
(1.5032 -0.185033 0)
(1.59812 -0.30731 0)
(1.62004 -0.359104 0)
(1.58041 -0.29406 0)
(1.47875 -0.186528 0)
(1.38887 -0.109986 0)
(1.36822 -0.0604486 0)
(1.3888 -0.028037 0)
(1.41959 -0.00224515 0)
(1.40356 0.116625 0)
(1.60054 -0.176081 0)
(1.63305 -0.30444 0)
(1.63409 -0.367872 0)
(1.59023 -0.319208 0)
(1.48834 -0.200556 0)
(1.40135 -0.11689 0)
(1.37325 -0.064105 0)
(1.39475 -0.0355535 0)
(1.42174 -0.000302139 0)
(1.40648 0.157994 0)
(1.61485 -0.160235 0)
(1.64026 -0.305515 0)
(1.6331 -0.376845 0)
(1.59678 -0.344571 0)
(1.49939 -0.222304 0)
(1.41639 -0.127739 0)
(1.38052 -0.0740462 0)
(1.40114 -0.0369679 0)
(1.42517 0.00167391 0)
(1.36975 0.183193 0)
(1.58882 -0.120908 0)
(1.64229 -0.289299 0)
(1.62724 -0.374767 0)
(1.60289 -0.364115 0)
(1.51498 -0.250978 0)
(1.43524 -0.140735 0)
(1.38793 -0.0789795 0)
(1.40765 -0.0345171 0)
(1.43085 0.001565 0)
(1.33572 0.193803 0)
(1.55875 -0.0999283 0)
(1.63141 -0.273212 0)
(1.62356 -0.366729 0)
(1.60846 -0.376257 0)
(1.53547 -0.276926 0)
(1.4563 -0.150873 0)
(1.39393 -0.0789168 0)
(1.41471 -0.0328336 0)
(1.4365 0.000716483 0)
(1.30613 0.19833 0)
(1.52759 -0.0681917 0)
(1.61363 -0.254948 0)
(1.61786 -0.359183 0)
(1.61098 -0.382709 0)
(1.55376 -0.297692 0)
(1.47754 -0.162303 0)
(1.39774 -0.0804666 0)
(1.4202 -0.0355656 0)
(1.44112 0.000560587 0)
(1.27825 0.201635 0)
(1.50097 -0.0437558 0)
(1.59667 -0.241893 0)
(1.61315 -0.35576 0)
(1.61273 -0.388991 0)
(1.56986 -0.321211 0)
(1.49596 -0.176662 0)
(1.39609 -0.0835074 0)
(1.42227 -0.0402416 0)
(1.44503 0.0019194 0)
(1.25536 0.199597 0)
(1.47122 -0.0152908 0)
(1.57934 -0.215844 0)
(1.61002 -0.354623 0)
(1.61261 -0.395736 0)
(1.58304 -0.346661 0)
(1.50863 -0.193616 0)
(1.39239 -0.090113 0)
(1.42273 -0.0433768 0)
(1.44673 0.00238224 0)
(1.23534 0.197751 0)
(1.44638 0.00141962 0)
(1.55962 -0.186931 0)
(1.60545 -0.340321 0)
(1.61163 -0.398417 0)
(1.59268 -0.367626 0)
(1.51781 -0.215811 0)
(1.3923 -0.0957618 0)
(1.42279 -0.0438181 0)
(1.44723 0.00333969 0)
(1.21809 0.194979 0)
(1.42186 0.0169881 0)
(1.5378 -0.162895 0)
(1.59579 -0.314464 0)
(1.61028 -0.396042 0)
(1.59847 -0.381315 0)
(1.52712 -0.239737 0)
(1.39859 -0.101789 0)
(1.42352 -0.0445713 0)
(1.44774 0.00340239 0)
(1.20286 0.191875 0)
(1.39979 0.0295581 0)
(1.52023 -0.149359 0)
(1.58259 -0.293 0)
(1.60886 -0.387791 0)
(1.59883 -0.387786 0)
(1.53816 -0.26324 0)
(1.40834 -0.108441 0)
(1.42477 -0.047175 0)
(1.4493 0.00377016 0)
(1.18915 0.187116 0)
(1.3776 0.04131 0)
(1.50176 -0.129684 0)
(1.57054 -0.280127 0)
(1.60449 -0.377948 0)
(1.59751 -0.389761 0)
(1.55059 -0.28634 0)
(1.42202 -0.118149 0)
(1.42792 -0.0511741 0)
(1.45216 0.00457742 0)
(1.17711 0.182393 0)
(1.358 0.0486989 0)
(1.483 -0.110266 0)
(1.55829 -0.263065 0)
(1.60019 -0.372084 0)
(1.59448 -0.390779 0)
(1.56277 -0.309091 0)
(1.44003 -0.132556 0)
(1.43283 -0.05365 0)
(1.45585 0.00547166 0)
(1.16613 0.177605 0)
(1.33967 0.0549948 0)
(1.4636 -0.0927634 0)
(1.54439 -0.239636 0)
(1.59158 -0.363668 0)
(1.59395 -0.391525 0)
(1.57222 -0.32913 0)
(1.45946 -0.148582 0)
(1.43878 -0.0555856 0)
(1.45995 0.00645763 0)
(1.15587 0.172975 0)
(1.32227 0.0610279 0)
(1.44636 -0.0804387 0)
(1.52867 -0.218828 0)
(1.58212 -0.345644 0)
(1.59349 -0.392468 0)
(1.57959 -0.344466 0)
(1.48255 -0.167817 0)
(1.44555 -0.058694 0)
(1.46345 0.00779269 0)
(1.14584 0.168107 0)
(1.30554 0.0661974 0)
(1.42882 -0.0677308 0)
(1.51351 -0.20326 0)
(1.56999 -0.323846 0)
(1.59277 -0.389647 0)
(1.5857 -0.35454 0)
(1.50323 -0.187454 0)
(1.45141 -0.0625982 0)
(1.46513 0.00847997 0)
(1.13623 0.163177 0)
(1.28942 0.0699043 0)
(1.41176 -0.056715 0)
(1.49904 -0.189364 0)
(1.55799 -0.306839 0)
(1.59064 -0.382003 0)
(1.59056 -0.360274 0)
(1.52246 -0.210158 0)
(1.45641 -0.0679081 0)
(1.4656 0.00960461 0)
(1.12751 0.158263 0)
(1.27431 0.0718794 0)
(1.39442 -0.046638 0)
(1.48393 -0.17344 0)
(1.54686 -0.292248 0)
(1.58837 -0.374819 0)
(1.59416 -0.36366 0)
(1.53651 -0.23108 0)
(1.46154 -0.0740307 0)
(1.4669 0.00990494 0)
(1.1193 0.153271 0)
(1.25978 0.0731809 0)
(1.37848 -0.0388147 0)
(1.46911 -0.158885 0)
(1.53555 -0.274915 0)
(1.58774 -0.369895 0)
(1.59411 -0.363973 0)
(1.54934 -0.251448 0)
(1.46952 -0.0816541 0)
(1.47093 0.010522 0)
(1.11137 0.148426 0)
(1.24632 0.0742304 0)
(1.36327 -0.0307144 0)
(1.45521 -0.145695 0)
(1.52433 -0.257795 0)
(1.58362 -0.356695 0)
(1.59316 -0.364283 0)
(1.56106 -0.268963 0)
(1.48227 -0.0903695 0)
(1.47711 0.0100487 0)
(0.386747 0.128531 0)
(0.460683 0.164022 0)
(0.503056 0.220129 0)
(0.54961 0.26149 0)
(0.590884 0.296766 0)
(0.632414 0.326082 0)
(0.676675 0.354502 0)
(0.731818 0.382143 0)
(0.808374 0.419742 0)
(0.948033 0.457672 0)
(0.416357 0.156375 0)
(0.472312 0.179165 0)
(0.502599 0.222864 0)
(0.545545 0.259858 0)
(0.585578 0.294805 0)
(0.628386 0.32426 0)
(0.674728 0.353083 0)
(0.732252 0.381432 0)
(0.810533 0.417812 0)
(0.946413 0.445066 0)
(0.469787 0.148816 0)
(0.512558 0.164519 0)
(0.530306 0.199314 0)
(0.564081 0.233431 0)
(0.597004 0.269626 0)
(0.638098 0.300895 0)
(0.685544 0.332278 0)
(0.746138 0.361628 0)
(0.829557 0.398249 0)
(0.971203 0.412174 0)
(0.521295 0.15549 0)
(0.555826 0.176516 0)
(0.566343 0.208956 0)
(0.595848 0.234937 0)
(0.622954 0.264155 0)
(0.659789 0.289971 0)
(0.702718 0.318145 0)
(0.759657 0.344014 0)
(0.841638 0.376303 0)
(0.9802 0.381174 0)
(0.565521 0.152785 0)
(0.593049 0.173143 0)
(0.601465 0.203927 0)
(0.628993 0.22849 0)
(0.652234 0.257315 0)
(0.687078 0.28183 0)
(0.728065 0.308923 0)
(0.784562 0.331891 0)
(0.86677 0.360882 0)
(1.00102 0.357895 0)
(0.602864 0.157341 0)
(0.625025 0.176174 0)
(0.632605 0.204138 0)
(0.658323 0.226032 0)
(0.679366 0.252554 0)
(0.713179 0.274105 0)
(0.752726 0.299272 0)
(0.808183 0.318848 0)
(0.887768 0.34334 0)
(1.01433 0.337699 0)
(0.637248 0.157639 0)
(0.654894 0.174019 0)
(0.660835 0.198462 0)
(0.683543 0.218529 0)
(0.702415 0.24345 0)
(0.735113 0.263136 0)
(0.773213 0.286896 0)
(0.827374 0.304038 0)
(0.903003 0.324567 0)
(1.02025 0.318393 0)
(0.67138 0.162528 0)
(0.684717 0.177691 0)
(0.689405 0.199024 0)
(0.709295 0.216028 0)
(0.726685 0.237975 0)
(0.75787 0.254609 0)
(0.794026 0.276006 0)
(0.846005 0.290475 0)
(0.91673 0.307167 0)
(1.0239 0.30084 0)
(0.701147 0.167768 0)
(0.710967 0.180395 0)
(0.715326 0.198073 0)
(0.73332 0.212168 0)
(0.749953 0.231627 0)
(0.779762 0.246036 0)
(0.814125 0.265365 0)
(0.863816 0.27784 0)
(0.929653 0.291058 0)
(1.02695 0.2848 0)
(0.7244 0.172678 0)
(0.732851 0.182144 0)
(0.738207 0.196491 0)
(0.755304 0.208166 0)
(0.771663 0.225314 0)
(0.800082 0.237674 0)
(0.832691 0.254904 0)
(0.879784 0.265577 0)
(0.940967 0.276152 0)
(1.02872 0.270121 0)
(0.742558 0.173861 0)
(0.751901 0.180889 0)
(0.758584 0.193026 0)
(0.775203 0.203147 0)
(0.791466 0.218445 0)
(0.81855 0.229263 0)
(0.849503 0.244636 0)
(0.893901 0.253901 0)
(0.950325 0.261978 0)
(1.0297 0.25666 0)
(0.758621 0.173262 0)
(0.769851 0.178604 0)
(0.777565 0.189156 0)
(0.793735 0.198059 0)
(0.809854 0.211704 0)
(0.835566 0.22127 0)
(0.864865 0.234849 0)
(0.906547 0.243048 0)
(0.958415 0.249237 0)
(1.03012 0.244317 0)
(0.77345 0.170309 0)
(0.786457 0.174771 0)
(0.794858 0.184345 0)
(0.810608 0.192459 0)
(0.826495 0.204791 0)
(0.850863 0.213462 0)
(0.878636 0.225567 0)
(0.917563 0.232776 0)
(0.965765 0.238079 0)
(1.03097 0.233347 0)
(0.786945 0.165787 0)
(0.801202 0.169852 0)
(0.810019 0.17881 0)
(0.825352 0.186356 0)
(0.840874 0.197564 0)
(0.863883 0.205494 0)
(0.890149 0.216284 0)
(0.926541 0.222812 0)
(0.971224 0.227049 0)
(1.03068 0.222926 0)
(0.799479 0.16013 0)
(0.814317 0.164156 0)
(0.823221 0.172768 0)
(0.838061 0.180002 0)
(0.85309 0.190328 0)
(0.874797 0.197694 0)
(0.899629 0.207316 0)
(0.933646 0.213282 0)
(0.975051 0.216692 0)
(1.02934 0.213154 0)
(0.812022 0.154217 0)
(0.82661 0.15836 0)
(0.83507 0.16657 0)
(0.849043 0.173431 0)
(0.863204 0.182866 0)
(0.88344 0.189694 0)
(0.906724 0.198275 0)
(0.938396 0.203802 0)
(0.976847 0.206649 0)
(1.02676 0.203763 0)
(0.825148 0.148857 0)
(0.838673 0.15341 0)
(0.846484 0.161367 0)
(0.859558 0.167872 0)
(0.872866 0.176448 0)
(0.891712 0.182691 0)
(0.91352 0.190213 0)
(0.942918 0.195222 0)
(0.978567 0.197475 0)
(1.02441 0.195009 0)
(0.838257 0.143256 0)
(0.849498 0.148 0)
(0.856322 0.15557 0)
(0.868342 0.161745 0)
(0.880689 0.169621 0)
(0.898212 0.175454 0)
(0.918662 0.182189 0)
(0.946083 0.186849 0)
(0.9794 0.188745 0)
(1.02201 0.186754 0)
(0.853007 0.140048 0)
(0.861659 0.144411 0)
(0.867483 0.151164 0)
(0.87823 0.156757 0)
(0.889445 0.163778 0)
(0.905457 0.169039 0)
(0.924296 0.174885 0)
(0.949518 0.179062 0)
(0.980223 0.180545 0)
(1.0194 0.178896 0)
(0.866986 0.13755 0)
(0.87384 0.14141 0)
(0.87901 0.147314 0)
(0.888584 0.15235 0)
(0.898827 0.158582 0)
(0.913486 0.163358 0)
(0.930875 0.168436 0)
(0.954047 0.172109 0)
(0.982384 0.173318 0)
(1.01811 0.171775 0)
(1.88601 -3.11306e-07 0)
(1.87399 1.02916e-06 0)
(1.86054 -2.88257e-06 0)
(1.84551 5.33766e-06 0)
(1.82862 -1.27073e-05 0)
(1.8081 2.36979e-05 0)
(1.79045 -3.27247e-05 0)
(1.69564 0.000626019 0)
(0.874792 0.00543654 0)
(0.474739 0.0149005 0)
(1.88601 -8.99309e-07 0)
(1.87399 2.97346e-06 0)
(1.86054 -8.27241e-06 0)
(1.84551 1.52963e-05 0)
(1.82862 -3.53112e-05 0)
(1.8081 6.90195e-05 0)
(1.79046 -0.000101189 0)
(1.69537 0.00217523 0)
(0.879257 0.0157218 0)
(0.499197 0.0417783 0)
(1.88601 -1.4824e-06 0)
(1.87399 4.90891e-06 0)
(1.86054 -1.36207e-05 0)
(1.84551 2.5265e-05 0)
(1.82863 -5.78422e-05 0)
(1.80811 0.000112429 0)
(1.79046 -0.00016976 0)
(1.69439 0.00369955 0)
(0.884605 0.0245198 0)
(0.531877 0.0622686 0)
(1.88601 -2.0535e-06 0)
(1.87399 6.80708e-06 0)
(1.86054 -1.88188e-05 0)
(1.84551 3.50476e-05 0)
(1.82864 -7.94168e-05 0)
(1.80812 0.000153623 0)
(1.79046 -0.000237506 0)
(1.69349 0.00563284 0)
(0.887862 0.0334538 0)
(0.563013 0.0813408 0)
(1.88601 -2.60613e-06 0)
(1.87399 8.65105e-06 0)
(1.86055 -2.38034e-05 0)
(1.84551 4.45579e-05 0)
(1.82865 -9.99023e-05 0)
(1.80813 0.000191789 0)
(1.79048 -0.000304353 0)
(1.69318 0.00793977 0)
(0.893461 0.0418253 0)
(0.594953 0.0937579 0)
(1.88601 -3.13599e-06 0)
(1.87398 1.04267e-05 0)
(1.86055 -2.85241e-05 0)
(1.84551 5.37019e-05 0)
(1.82866 -0.000119119 0)
(1.80813 0.000226974 0)
(1.7905 -0.000369762 0)
(1.69364 0.0105052 0)
(0.900342 0.0494374 0)
(0.625549 0.105598 0)
(1.88601 -3.63944e-06 0)
(1.87398 1.21219e-05 0)
(1.86055 -3.29397e-05 0)
(1.84551 6.23982e-05 0)
(1.82867 -0.000136994 0)
(1.80814 0.000259465 0)
(1.79053 -0.000430771 0)
(1.69476 0.0131743 0)
(0.907325 0.0559724 0)
(0.65503 0.11385 0)
(1.88601 -4.11364e-06 0)
(1.87398 1.37261e-05 0)
(1.86055 -3.70188e-05 0)
(1.84551 7.05632e-05 0)
(1.82868 -0.000153442 0)
(1.80815 0.000289354 0)
(1.79057 -0.000489957 0)
(1.69655 0.015857 0)
(0.913686 0.0622831 0)
(0.681029 0.121787 0)
(1.88601 -4.5565e-06 0)
(1.87398 1.52309e-05 0)
(1.86056 -4.07426e-05 0)
(1.84551 7.81464e-05 0)
(1.82869 -0.000168498 0)
(1.80815 0.000317786 0)
(1.79061 -0.000540032 0)
(1.69925 0.0184475 0)
(0.920439 0.0677888 0)
(0.705045 0.126216 0)
(1.88601 -4.96673e-06 0)
(1.87398 1.66302e-05 0)
(1.86056 -4.41033e-05 0)
(1.84551 8.51246e-05 0)
(1.8287 -0.000182168 0)
(1.80816 0.000345434 0)
(1.79064 -0.000587694 0)
(1.70361 0.0209615 0)
(0.927508 0.0730819 0)
(0.726494 0.130081 0)
(1.88601 -5.34367e-06 0)
(1.87398 1.79196e-05 0)
(1.86056 -4.70976e-05 0)
(1.84551 9.14491e-05 0)
(1.82871 -0.00019444 0)
(1.80818 0.000370812 0)
(1.79066 -0.000627338 0)
(1.71026 0.0226101 0)
(0.935915 0.0781768 0)
(0.744805 0.132334 0)
(1.88601 -5.68731e-06 0)
(1.87398 1.90972e-05 0)
(1.86056 -4.97357e-05 0)
(1.84551 9.71389e-05 0)
(1.82872 -0.000205329 0)
(1.8082 0.000396672 0)
(1.79065 -0.000674117 0)
(1.718 0.0232321 0)
(0.945869 0.0830435 0)
(0.759293 0.134198 0)
(1.88601 -5.99814e-06 0)
(1.87398 2.01628e-05 0)
(1.86057 -5.2033e-05 0)
(1.84551 0.000102219 0)
(1.82873 -0.000214891 0)
(1.80823 0.000422443 0)
(1.79061 -0.00072357 0)
(1.72608 0.0234733 0)
(0.95715 0.0875399 0)
(0.770681 0.135079 0)
(1.88601 -6.27702e-06 0)
(1.87398 2.11178e-05 0)
(1.86057 -5.40037e-05 0)
(1.84551 0.000106675 0)
(1.82874 -0.00022308 0)
(1.80827 0.000446606 0)
(1.79054 -0.000775293 0)
(1.73451 0.0228975 0)
(0.969414 0.0915065 0)
(0.780384 0.135523 0)
(1.88601 -6.52517e-06 0)
(1.87398 2.19659e-05 0)
(1.86057 -5.56751e-05 0)
(1.84551 0.000110572 0)
(1.82874 -0.000229974 0)
(1.80831 0.000469642 0)
(1.79045 -0.000829543 0)
(1.74182 0.0219703 0)
(0.981961 0.0949444 0)
(0.789753 0.135459 0)
(1.88601 -6.74401e-06 0)
(1.87398 2.27111e-05 0)
(1.86057 -5.70688e-05 0)
(1.84551 0.000113917 0)
(1.82874 -0.000235556 0)
(1.80836 0.000490684 0)
(1.79034 -0.000881671 0)
(1.74732 0.0205069 0)
(0.993969 0.0977958 0)
(0.799676 0.135423 0)
(1.88601 -6.93503e-06 0)
(1.87398 2.3359e-05 0)
(1.86057 -5.82122e-05 0)
(1.84551 0.000116759 0)
(1.82874 -0.000239891 0)
(1.80841 0.000510008 0)
(1.7902 -0.000929121 0)
(1.75153 0.0185982 0)
(1.00504 0.0997529 0)
(0.810483 0.13506 0)
(1.88601 -7.09968e-06 0)
(1.87398 2.3915e-05 0)
(1.86057 -5.91301e-05 0)
(1.84551 0.000119144 0)
(1.82874 -0.000243066 0)
(1.80847 0.000527888 0)
(1.79003 -0.000972513 0)
(1.75548 0.0162081 0)
(1.01517 0.101071 0)
(0.821935 0.134821 0)
(1.88601 -7.23989e-06 0)
(1.87398 2.43854e-05 0)
(1.86058 -5.98476e-05 0)
(1.84551 0.000121115 0)
(1.82874 -0.000244845 0)
(1.80854 0.000543724 0)
(1.7898 -0.001008 0)
(1.75957 0.0127769 0)
(1.02476 0.10166 0)
(0.832928 0.134197 0)
(1.88601 -7.35724e-06 0)
(1.87398 2.47759e-05 0)
(1.86058 -6.03845e-05 0)
(1.84551 0.00012273 0)
(1.82873 -0.000245492 0)
(1.80861 0.000557966 0)
(1.78951 -0.00102743 0)
(1.7626 0.00921721 0)
(1.03409 0.10193 0)
(0.842478 0.133038 0)
(1.88601 7.35723e-06 0)
(1.87398 -2.47759e-05 0)
(1.86058 6.03845e-05 0)
(1.84551 -0.00012273 0)
(1.82873 0.000245492 0)
(1.80861 -0.000557966 0)
(1.78951 0.00102743 0)
(1.7626 -0.00921709 0)
(1.03409 -0.101932 0)
(0.842476 -0.133038 0)
(1.88601 7.23988e-06 0)
(1.87398 -2.43853e-05 0)
(1.86058 5.98476e-05 0)
(1.84551 -0.000121115 0)
(1.82874 0.000244845 0)
(1.80854 -0.000543724 0)
(1.7898 0.001008 0)
(1.75957 -0.0127769 0)
(1.02476 -0.101661 0)
(0.832926 -0.134197 0)
(1.88601 7.09966e-06 0)
(1.87398 -2.39149e-05 0)
(1.86057 5.913e-05 0)
(1.84551 -0.000119144 0)
(1.82874 0.000243066 0)
(1.80847 -0.000527889 0)
(1.79003 0.000972515 0)
(1.75548 -0.0162083 0)
(1.01517 -0.101072 0)
(0.821935 -0.134822 0)
(1.88601 6.93502e-06 0)
(1.87398 -2.3359e-05 0)
(1.86057 5.82122e-05 0)
(1.84551 -0.000116759 0)
(1.82874 0.000239891 0)
(1.80841 -0.000510009 0)
(1.7902 0.000929124 0)
(1.75153 -0.0185985 0)
(1.00504 -0.0997544 0)
(0.810483 -0.135059 0)
(1.88601 6.74399e-06 0)
(1.87398 -2.27111e-05 0)
(1.86057 5.70688e-05 0)
(1.84551 -0.000113917 0)
(1.82874 0.000235556 0)
(1.80836 -0.000490686 0)
(1.79034 0.000881676 0)
(1.74732 -0.0205074 0)
(0.993968 -0.0977974 0)
(0.799677 -0.135423 0)
(1.88601 6.52516e-06 0)
(1.87398 -2.19659e-05 0)
(1.86057 5.56751e-05 0)
(1.84551 -0.000110572 0)
(1.82874 0.000229974 0)
(1.80831 -0.000469644 0)
(1.79045 0.00082955 0)
(1.74182 -0.021971 0)
(0.98196 -0.0949461 0)
(0.789753 -0.135458 0)
(1.88601 6.277e-06 0)
(1.87398 -2.11178e-05 0)
(1.86057 5.40037e-05 0)
(1.84551 -0.000106675 0)
(1.82874 0.000223081 0)
(1.80827 -0.000446609 0)
(1.79054 0.000775301 0)
(1.73451 -0.0228982 0)
(0.969413 -0.0915082 0)
(0.780384 -0.135523 0)
(1.88601 5.99812e-06 0)
(1.87398 -2.01628e-05 0)
(1.86057 5.2033e-05 0)
(1.84551 -0.000102219 0)
(1.82873 0.000214891 0)
(1.80823 -0.000422447 0)
(1.79061 0.00072358 0)
(1.72608 -0.0234743 0)
(0.957148 -0.0875416 0)
(0.770681 -0.135079 0)
(1.88601 5.6873e-06 0)
(1.87398 -1.90972e-05 0)
(1.86056 4.97358e-05 0)
(1.84551 -9.71392e-05 0)
(1.82872 0.00020533 0)
(1.8082 -0.000396677 0)
(1.79065 0.00067413 0)
(1.718 -0.0232332 0)
(0.945867 -0.083045 0)
(0.759294 -0.134197 0)
(1.88601 5.34366e-06 0)
(1.87398 -1.79196e-05 0)
(1.86056 4.70977e-05 0)
(1.84551 -9.14494e-05 0)
(1.82871 0.000194441 0)
(1.80818 -0.000370816 0)
(1.79066 0.000627354 0)
(1.71026 -0.0226113 0)
(0.935912 -0.0781779 0)
(0.744808 -0.132334 0)
(1.88601 4.96672e-06 0)
(1.87398 -1.66302e-05 0)
(1.86056 4.41034e-05 0)
(1.84551 -8.51248e-05 0)
(1.8287 0.000182169 0)
(1.80816 -0.000345436 0)
(1.79064 0.000587714 0)
(1.70361 -0.0209623 0)
(0.927505 -0.0730826 0)
(0.726499 -0.130079 0)
(1.88601 4.55649e-06 0)
(1.87398 -1.52309e-05 0)
(1.86056 4.07427e-05 0)
(1.84551 -7.81465e-05 0)
(1.82869 0.000168498 0)
(1.80815 -0.000317782 0)
(1.79061 0.000540039 0)
(1.69925 -0.018447 0)
(0.920437 -0.0677899 0)
(0.70505 -0.126215 0)
(1.88601 4.11363e-06 0)
(1.87398 -1.37261e-05 0)
(1.86055 3.70188e-05 0)
(1.84551 -7.05631e-05 0)
(1.82868 0.00015344 0)
(1.80815 -0.000289341 0)
(1.79057 0.000489923 0)
(1.69655 -0.015854 0)
(0.913684 -0.062286 0)
(0.681033 -0.121786 0)
(1.88601 3.63944e-06 0)
(1.87398 -1.21219e-05 0)
(1.86055 3.29397e-05 0)
(1.84551 -6.2398e-05 0)
(1.82867 0.000136992 0)
(1.80814 -0.000259448 0)
(1.79053 0.000430727 0)
(1.69475 -0.0131699 0)
(0.907321 -0.0559799 0)
(0.655035 -0.113849 0)
(1.88601 3.13598e-06 0)
(1.87398 -1.04267e-05 0)
(1.86055 2.85241e-05 0)
(1.84551 -5.37018e-05 0)
(1.82866 0.000119117 0)
(1.80813 -0.000226963 0)
(1.7905 0.000369666 0)
(1.69363 -0.0105031 0)
(0.900342 -0.0494455 0)
(0.625556 -0.105599 0)
(1.88601 2.60613e-06 0)
(1.87399 -8.65107e-06 0)
(1.86055 2.38035e-05 0)
(1.84551 -4.4558e-05 0)
(1.82865 9.99016e-05 0)
(1.80813 -0.000191792 0)
(1.79048 0.000304352 0)
(1.69317 -0.00793646 0)
(0.893457 -0.0418363 0)
(0.594962 -0.0937548 0)
(1.88601 2.0535e-06 0)
(1.87399 -6.8071e-06 0)
(1.86054 1.88189e-05 0)
(1.84551 -3.50476e-05 0)
(1.82864 7.94155e-05 0)
(1.80812 -0.000153624 0)
(1.79046 0.000237621 0)
(1.69351 -0.00562808 0)
(0.887858 -0.0334576 0)
(0.563017 -0.0813451 0)
(1.88601 1.4824e-06 0)
(1.87399 -4.90894e-06 0)
(1.86054 1.36208e-05 0)
(1.84551 -2.52652e-05 0)
(1.82863 5.78403e-05 0)
(1.80811 -0.000112416 0)
(1.79046 0.000169878 0)
(1.69446 -0.00372486 0)
(0.884622 -0.0245151 0)
(0.531883 -0.0622618 0)
(1.88601 8.99306e-07 0)
(1.87399 -2.97349e-06 0)
(1.86054 8.27256e-06 0)
(1.84551 -1.52965e-05 0)
(1.82862 3.53086e-05 0)
(1.8081 -6.8999e-05 0)
(1.79046 0.000101196 0)
(1.69541 -0.00214094 0)
(0.87933 -0.0157186 0)
(0.499187 -0.0417774 0)
(1.88601 3.11302e-07 0)
(1.87399 -1.02919e-06 0)
(1.86054 2.88277e-06 0)
(1.84551 -5.3382e-06 0)
(1.82862 1.27097e-05 0)
(1.8081 -2.36867e-05 0)
(1.79046 3.23306e-05 0)
(1.69594 -0.00064914 0)
(0.875119 -0.00539472 0)
(0.474723 -0.0148906 0)
(0.866985 -0.137549 0)
(0.87384 -0.141407 0)
(0.879012 -0.147309 0)
(0.888588 -0.152344 0)
(0.898835 -0.158573 0)
(0.913498 -0.163348 0)
(0.930894 -0.168423 0)
(0.954072 -0.172091 0)
(0.982409 -0.1733 0)
(1.01813 -0.171765 0)
(0.853008 -0.140046 0)
(0.861661 -0.144407 0)
(0.867485 -0.151158 0)
(0.878234 -0.156749 0)
(0.889454 -0.163768 0)
(0.905471 -0.169029 0)
(0.924318 -0.174873 0)
(0.949547 -0.179046 0)
(0.980249 -0.180529 0)
(1.01942 -0.178889 0)
(0.838254 -0.143245 0)
(0.849496 -0.147989 0)
(0.856322 -0.15556 0)
(0.868347 -0.161736 0)
(0.8807 -0.169612 0)
(0.898229 -0.175444 0)
(0.918687 -0.182178 0)
(0.946112 -0.186836 0)
(0.979426 -0.188735 0)
(1.02202 -0.186749 0)
(0.825151 -0.14885 0)
(0.838678 -0.153404 0)
(0.846492 -0.161362 0)
(0.859569 -0.167867 0)
(0.872883 -0.17644 0)
(0.891733 -0.182682 0)
(0.913545 -0.190203 0)
(0.942943 -0.195212 0)
(0.978588 -0.197467 0)
(1.02441 -0.195006 0)
(0.812026 -0.154207 0)
(0.826617 -0.158351 0)
(0.83508 -0.166562 0)
(0.849056 -0.173422 0)
(0.863222 -0.182857 0)
(0.883463 -0.189685 0)
(0.90675 -0.198266 0)
(0.93842 -0.203796 0)
(0.976867 -0.206646 0)
(1.02676 -0.203766 0)
(0.799485 -0.160121 0)
(0.814327 -0.164148 0)
(0.823234 -0.172761 0)
(0.838079 -0.179995 0)
(0.853112 -0.19032 0)
(0.874822 -0.197686 0)
(0.899655 -0.207308 0)
(0.933668 -0.213277 0)
(0.975066 -0.216693 0)
(1.02933 -0.213163 0)
(0.786952 -0.165779 0)
(0.801214 -0.169845 0)
(0.810035 -0.178803 0)
(0.825372 -0.186349 0)
(0.840898 -0.197557 0)
(0.863909 -0.205487 0)
(0.890175 -0.216279 0)
(0.926562 -0.222808 0)
(0.971234 -0.227055 0)
(1.03067 -0.222943 0)
(0.773457 -0.170304 0)
(0.786471 -0.174765 0)
(0.794876 -0.184339 0)
(0.810629 -0.192454 0)
(0.826521 -0.204785 0)
(0.850889 -0.213457 0)
(0.878661 -0.225565 0)
(0.91758 -0.232774 0)
(0.965766 -0.23809 0)
(1.03095 -0.233371 0)
(0.758627 -0.173259 0)
(0.769865 -0.178599 0)
(0.777582 -0.189151 0)
(0.793756 -0.198054 0)
(0.809878 -0.211699 0)
(0.835591 -0.221266 0)
(0.864887 -0.234848 0)
(0.906561 -0.243049 0)
(0.958406 -0.249246 0)
(1.03008 -0.244349 0)
(0.742562 -0.17386 0)
(0.751912 -0.180886 0)
(0.758599 -0.193023 0)
(0.775222 -0.203143 0)
(0.791488 -0.218441 0)
(0.818571 -0.229261 0)
(0.849522 -0.244637 0)
(0.893909 -0.253904 0)
(0.95031 -0.261995 0)
(1.02965 -0.256703 0)
(0.724403 -0.172681 0)
(0.732859 -0.182144 0)
(0.738219 -0.196489 0)
(0.75532 -0.208163 0)
(0.771681 -0.225312 0)
(0.8001 -0.237673 0)
(0.832705 -0.254905 0)
(0.879786 -0.265583 0)
(0.940938 -0.27617 0)
(1.02864 -0.27017 0)
(0.701154 -0.167774 0)
(0.710976 -0.180398 0)
(0.715337 -0.198074 0)
(0.733333 -0.212167 0)
(0.749969 -0.231626 0)
(0.779777 -0.246036 0)
(0.814134 -0.265368 0)
(0.863811 -0.277846 0)
(0.929615 -0.291082 0)
(1.02683 -0.284853 0)
(0.67139 -0.162532 0)
(0.684727 -0.177694 0)
(0.689416 -0.199026 0)
(0.709307 -0.216028 0)
(0.726698 -0.237975 0)
(0.757883 -0.25461 0)
(0.794031 -0.276009 0)
(0.845995 -0.290482 0)
(0.916679 -0.307191 0)
(1.02378 -0.300895 0)
(0.637259 -0.157638 0)
(0.654905 -0.174019 0)
(0.660846 -0.198463 0)
(0.683554 -0.21853 0)
(0.702426 -0.243451 0)
(0.735123 -0.263138 0)
(0.773216 -0.286901 0)
(0.827359 -0.304044 0)
(0.902938 -0.324589 0)
(1.0201 -0.318466 0)
(0.602873 -0.157343 0)
(0.625035 -0.176175 0)
(0.632615 -0.204138 0)
(0.658333 -0.226034 0)
(0.679376 -0.252556 0)
(0.713188 -0.274108 0)
(0.752726 -0.299277 0)
(0.808165 -0.318852 0)
(0.887694 -0.343357 0)
(1.01414 -0.337772 0)
(0.565528 -0.152782 0)
(0.593058 -0.173141 0)
(0.601474 -0.203926 0)
(0.629003 -0.228491 0)
(0.652243 -0.257318 0)
(0.687087 -0.281832 0)
(0.728065 -0.308928 0)
(0.784545 -0.331894 0)
(0.866686 -0.360888 0)
(1.00081 -0.357971 0)
(0.521301 -0.155494 0)
(0.555835 -0.17652 0)
(0.566353 -0.208959 0)
(0.595859 -0.234939 0)
(0.622964 -0.264159 0)
(0.659798 -0.289974 0)
(0.702719 -0.31815 0)
(0.759642 -0.344013 0)
(0.84156 -0.376306 0)
(0.979976 -0.381219 0)
(0.469793 -0.148816 0)
(0.512567 -0.164521 0)
(0.530316 -0.199316 0)
(0.564092 -0.233434 0)
(0.597013 -0.269629 0)
(0.638106 -0.300897 0)
(0.685545 -0.332283 0)
(0.746125 -0.361627 0)
(0.829486 -0.398247 0)
(0.970978 -0.412188 0)
(0.416364 -0.15638 0)
(0.472321 -0.179169 0)
(0.502608 -0.222867 0)
(0.545555 -0.25986 0)
(0.585587 -0.294808 0)
(0.628394 -0.324263 0)
(0.67473 -0.353088 0)
(0.732242 -0.381432 0)
(0.810471 -0.417803 0)
(0.946201 -0.445051 0)
(0.386753 -0.128544 0)
(0.460687 -0.164029 0)
(0.503061 -0.220131 0)
(0.549617 -0.26149 0)
(0.590893 -0.296768 0)
(0.632423 -0.326085 0)
(0.676679 -0.354507 0)
(0.73181 -0.382142 0)
(0.808315 -0.419737 0)
(0.947817 -0.457648 0)
(1.11136 -0.148441 0)
(1.24621 -0.074337 0)
(1.36335 0.0305987 0)
(1.45527 0.145604 0)
(1.52442 0.258251 0)
(1.58342 0.356835 0)
(1.59304 0.364049 0)
(1.56152 0.269083 0)
(1.48164 0.0905421 0)
(1.47611 -0.0101961 0)
(1.11927 -0.153297 0)
(1.25969 -0.0732643 0)
(1.37844 0.0385746 0)
(1.4694 0.159141 0)
(1.53564 0.275539 0)
(1.58751 0.369904 0)
(1.5939 0.363713 0)
(1.54983 0.25137 0)
(1.46917 0.082106 0)
(1.47048 -0.010307 0)
(1.12748 -0.158304 0)
(1.27418 -0.0720603 0)
(1.39452 0.0465679 0)
(1.4841 0.173587 0)
(1.54693 0.29308 0)
(1.58802 0.374493 0)
(1.59403 0.363402 0)
(1.53708 0.230834 0)
(1.46154 0.0739719 0)
(1.46673 -0.00967802 0)
(1.13619 -0.163238 0)
(1.28927 -0.0701687 0)
(1.41173 0.0564179 0)
(1.49946 0.189989 0)
(1.55797 0.307596 0)
(1.5904 0.382003 0)
(1.59034 0.359654 0)
(1.5231 0.209422 0)
(1.45657 0.0674405 0)
(1.4654 -0.00953586 0)
(1.14577 -0.168183 0)
(1.30536 -0.0665258 0)
(1.42896 0.067607 0)
(1.51381 0.203441 0)
(1.57015 0.3252 0)
(1.59233 0.389346 0)
(1.5854 0.353459 0)
(1.50403 0.185884 0)
(1.45152 0.0623163 0)
(1.46468 -0.00884301 0)
(1.15578 -0.173058 0)
(1.32207 -0.0613675 0)
(1.4464 0.0800335 0)
(1.52947 0.219736 0)
(1.58195 0.347143 0)
(1.59311 0.391605 0)
(1.57917 0.342625 0)
(1.48375 0.165967 0)
(1.44564 0.0589072 0)
(1.46255 -0.00798026 0)
(1.16603 -0.177687 0)
(1.33946 -0.0552588 0)
(1.46378 0.0925227 0)
(1.54514 0.24061 0)
(1.59091 0.365033 0)
(1.59349 0.390397 0)
(1.57166 0.326868 0)
(1.4613 0.147465 0)
(1.4391 0.0562955 0)
(1.45902 -0.00570414 0)
(1.17699 -0.182476 0)
(1.35771 -0.0490225 0)
(1.48321 0.110121 0)
(1.55924 0.264777 0)
(1.59932 0.372098 0)
(1.59397 0.389628 0)
(1.56193 0.306671 0)
(1.44249 0.132713 0)
(1.43312 0.0544095 0)
(1.45535 -0.00466981 0)
(1.18902 -0.187237 0)
(1.37737 -0.0415606 0)
(1.50207 0.129828 0)
(1.57142 0.28088 0)
(1.60429 0.379105 0)
(1.59664 0.388757 0)
(1.54972 0.283549 0)
(1.42466 0.118093 0)