/*--------------------------------*- C++ -*----------------------------------*\
  =========                 |
  \\      /  F ield         | OpenFOAM: The Open Source CFD Toolbox
   \\    /   O peration     | Website:  https://openfoam.org
    \\  /    A nd           | Version:  7
     \\/     M anipulation  |
\*---------------------------------------------------------------------------*/
FoamFile
{
    version     2.0;
    format      ascii;
    class       volScalarField;
    location    "0.2";
    object      T;
}
// * * * * * * * * * * * * * * * * * * * * * * * * * * * * * * * * * * * * * //

dimensions      [0 0 0 1 0 0 0];

internalField   nonuniform List<scalar> 
3225
(
1.01891
1.01443
1.01011
1.00641
1.00287
0.999258
0.995662
0.992091
0.988682
0.985569
0.982555
0.979475
0.976578
1.05862
1.05404
1.04958
1.04569
1.04184
1.03704
1.03213
1.02775
1.02411
1.02083
1.01675
1.01232
1.0083
1.00462
1.00109
0.997538
0.99393
0.990483
0.987374
0.984352
0.981215
0.978266
1.06
1.05545
1.05087
1.04657
1.04286
1.03882
1.03418
1.02964
1.02557
1.02226
1.01876
1.01452
1.01026
1.00636
1.00274
0.999278
0.995751
0.99229
0.989145
0.986151
0.983019
0.98001
1.06141
1.05695
1.05231
1.04778
1.04369
1.04007
1.0361
1.03169
1.02734
1.0236
1.02034
1.0165
1.01225
1.00812
1.00438
1.00096
0.997505
0.994033
0.990867
0.987927
0.984855
0.981824
1.06272
1.05844
1.05389
1.04928
1.04495
1.0411
1.03763
1.03368
1.02928
1.02519
1.02168
1.01811
1.01409
1.00994
1.00604
1.00258
0.999243
0.99579
0.992542
0.98961
0.986666
0.983675
1.06362
1.05971
1.0555
1.05103
1.0466
1.04246
1.03884
1.03534
1.03121
1.02696
1.02312
1.01949
1.01567
1.01169
1.00779
1.00424
1.0009
0.997504
0.994238
0.991261
0.988389
0.985504
1.06437
1.06056
1.05691
1.05286
1.04849
1.04412
1.04014
1.03666
1.03289
1.02871
1.02467
1.02087
1.01714
1.01334
1.0095
1.00592
1.00257
0.999187
0.99592
0.992928
0.990058
0.98722
1.06535
1.06138
1.05795
1.05448
1.05039
1.04592
1.04165
1.03792
1.03428
1.03026
1.02621
1.02234
1.0186
1.01495
1.0112
1.00756
1.00417
1.00086
0.997628
0.994585
0.991692
0.988888
1.06658
1.0625
1.05889
1.05565
1.052
1.04771
1.04332
1.03934
1.03555
1.03159
1.02765
1.02385
1.02018
1.01656
1.01283
1.00919
1.00576
1.00246
0.999309
0.996294
0.993324
0.990458
1.06799
1.06388
1.06008
1.05655
1.05316
1.04927
1.04502
1.04092
1.03692
1.03284
1.02898
1.02534
1.02178
1.0182
1.01446
1.01074
1.00732
1.00408
1.00095
0.997943
0.99496
0.992047
1.06944
1.06538
1.06145
1.05763
1.05402
1.0505
1.04658
1.04253
1.0384
1.03418
1.03029
1.02679
1.02335
1.01978
1.01605
1.01233
1.00888
1.00564
1.00258
0.999591
0.99657
0.993594
1.07075
1.06685
1.06288
1.05886
1.05502
1.0515
1.04791
1.04404
1.03988
1.03557
1.03167
1.02821
1.02482
1.02132
1.01762
1.0139
1.01046
1.00724
1.00415
1.00116
0.998175
0.995177
1.07182
1.06815
1.06426
1.06018
1.05619
1.05255
1.04905
1.04535
1.04131
1.03703
1.03312
1.02964
1.02624
1.02274
1.01912
1.01549
1.01207
1.00882
1.00572
1.00272
0.999716
0.996736
1.07271
1.06926
1.06552
1.06149
1.05745
1.05372
1.05013
1.04652
1.04264
1.03848
1.0346
1.03108
1.02761
1.02412
1.02058
1.01706
1.01369
1.01043
1.00725
1.00422
1.00125
0.998306
1.07363
1.07026
1.06666
1.06273
1.05871
1.05491
1.05125
1.04765
1.04392
1.03992
1.03607
1.0325
1.02897
1.02546
1.02201
1.01862
1.01531
1.01201
1.00876
1.00569
1.00275
0.999863
1.07462
1.07128
1.06774
1.06388
1.05992
1.05609
1.05237
1.04878
1.04519
1.04133
1.03751
1.03389
1.0303
1.0268
1.02345
1.02016
1.01689
1.01356
1.01024
1.00713
1.00423
1.00141
1.07567
1.07236
1.06883
1.065
1.06107
1.05725
1.05352
1.04994
1.04645
1.04272
1.03891
1.03524
1.03162
1.02815
1.02488
1.02169
1.01845
1.01506
1.01167
1.00855
1.00569
1.00295
1.07675
1.07342
1.0699
1.06611
1.06223
1.05841
1.05468
1.05111
1.0477
1.04406
1.04028
1.03659
1.03295
1.02952
1.02634
1.02318
1.01993
1.01651
1.01308
1.00995
1.00713
1.00447
1.07781
1.07442
1.07089
1.06717
1.06338
1.05962
1.05587
1.05227
1.04889
1.04535
1.0416
1.03791
1.03431
1.03093
1.02778
1.02463
1.02137
1.0179
1.01446
1.01137
1.0086
1.00597
1.07882
1.07534
1.07179
1.0682
1.06455
1.06085
1.05707
1.05341
1.05004
1.04658
1.04291
1.03926
1.03568
1.03235
1.0292
1.02601
1.0227
1.01925
1.01584
1.0128
1.01007
1.00748
1.07979
1.07624
1.07266
1.0692
1.06573
1.06209
1.05826
1.05452
1.05115
1.04779
1.04421
1.04062
1.03709
1.03376
1.03057
1.02733
1.024
1.02056
1.01722
1.01426
1.01157
1.00899
1.0807
1.07711
1.07355
1.0702
1.06688
1.06328
1.05938
1.0556
1.05225
1.049
1.04553
1.04199
1.03848
1.03512
1.03189
1.02859
1.02525
1.02188
1.01863
1.01574
1.01308
1.0105
1.08158
1.07802
1.07449
1.0712
1.06796
1.06439
1.06046
1.05667
1.05338
1.05024
1.04687
1.04337
1.03984
1.03642
1.03313
1.02983
1.02651
1.02321
1.02006
1.01724
1.01459
1.01199
1.08248
1.07899
1.07548
1.07218
1.06895
1.06541
1.06153
1.05779
1.05456
1.05151
1.04822
1.04471
1.04112
1.03766
1.03435
1.03105
1.02779
1.0246
1.02153
1.01874
1.01609
1.01345
1.08344
1.08
1.07647
1.07311
1.06987
1.06639
1.06263
1.05899
1.05583
1.05282
1.04954
1.04598
1.04234
1.03883
1.03553
1.03229
1.02912
1.02602
1.02301
1.02023
1.01754
1.01485
1.08444
1.08101
1.07741
1.07399
1.07076
1.06739
1.06379
1.06026
1.05712
1.05409
1.05078
1.04716
1.04347
1.03997
1.03672
1.03356
1.03049
1.02746
1.02448
1.02167
1.01894
1.01619
1.08543
1.08195
1.07828
1.07485
1.07167
1.06846
1.06505
1.06159
1.05837
1.05526
1.05186
1.04823
1.04456
1.04111
1.03793
1.03487
1.03188
1.0289
1.02591
1.02306
1.02027
1.01748
1.08674
1.08324
1.07965
1.07637
1.07335
1.07031
1.06698
1.06342
1.06
1.05677
1.05339
1.04986
1.04635
1.04304
1.03996
1.03698
1.03404
1.03107
1.02804
1.02513
1.02227
1.01941
1.08843
1.08512
1.08182
1.07869
1.07567
1.07256
1.06914
1.06551
1.06206
1.05884
1.05559
1.05228
1.04902
1.04582
1.04275
1.03978
1.03684
1.03387
1.03083
1.02785
1.02497
1.02215
1.09026
1.08723
1.0841
1.08095
1.07777
1.07451
1.07111
1.06761
1.06431
1.06121
1.05809
1.05494
1.05179
1.04865
1.04554
1.04251
1.03955
1.03659
1.03356
1.03058
1.02773
1.02499
1.09241
1.08951
1.08641
1.08313
1.07978
1.07652
1.07332
1.07009
1.0669
1.06384
1.06079
1.05769
1.05455
1.05142
1.04834
1.04523
1.04224
1.03937
1.03644
1.03349
1.03066
1.02801
1.09457
1.09169
1.08871
1.08541
1.08203
1.07896
1.07606
1.07297
1.0698
1.06664
1.06345
1.06033
1.05735
1.05426
1.05108
1.04797
1.04509
1.0423
1.0394
1.03647
1.03376
1.03117
1.0968
1.09393
1.09097
1.08778
1.08456
1.08158
1.0787
1.07565
1.07239
1.06908
1.06602
1.06318
1.06022
1.05699
1.05377
1.0508
1.048
1.04529
1.04252
1.03964
1.03688
1.03426
1.09874
1.09606
1.09321
1.09006
1.08691
1.08404
1.08123
1.0781
1.07475
1.07155
1.06866
1.06586
1.06289
1.05968
1.05647
1.05354
1.05092
1.04833
1.04554
1.04259
1.03983
1.03728
1.10046
1.0979
1.09518
1.09208
1.08899
1.08616
1.08334
1.0802
1.07694
1.07389
1.07112
1.06837
1.0654
1.06217
1.05901
1.05625
1.05373
1.05111
1.04828
1.04536
1.04262
1.04009
1.10205
1.09943
1.09677
1.0938
1.09078
1.08794
1.08513
1.08209
1.07897
1.07606
1.07337
1.07058
1.06754
1.06442
1.06149
1.05883
1.05625
1.05357
1.0507
1.0478
1.04514
1.04271
1.10354
1.1009
1.09816
1.09528
1.0924
1.08959
1.08675
1.08379
1.08086
1.07806
1.07533
1.07247
1.06947
1.06654
1.06377
1.06112
1.05848
1.05572
1.05284
1.05006
1.04754
1.04515
1.10483
1.10231
1.09962
1.09673
1.09388
1.09111
1.08832
1.08546
1.08264
1.07986
1.07711
1.07426
1.07135
1.06857
1.06588
1.06319
1.06045
1.05767
1.05489
1.05227
1.04982
1.04743
1.10617
1.10364
1.10117
1.09836
1.0954
1.09258
1.0899
1.0872
1.08441
1.08157
1.07881
1.07606
1.07331
1.07061
1.06787
1.06507
1.06231
1.05961
1.05699
1.0545
1.05208
1.04961
1.10788
1.10519
1.10268
1.10003
1.0971
1.09423
1.0916
1.08905
1.08627
1.08334
1.08057
1.07797
1.07536
1.07269
1.06986
1.06696
1.06419
1.06164
1.05921
1.05678
1.05428
1.05173
1.10959
1.1071
1.10445
1.1016
1.09877
1.09613
1.09358
1.09096
1.08817
1.08524
1.08251
1.08002
1.07748
1.07478
1.0719
1.06895
1.06628
1.0639
1.06153
1.05905
1.05649
1.05393
1.11109
1.10893
1.10641
1.10342
1.10051
1.09807
1.09573
1.09304
1.0901
1.08719
1.08466
1.08224
1.07962
1.07686
1.07398
1.0711
1.06859
1.0663
1.06392
1.06138
1.05874
1.05621
1.11288
1.11047
1.10816
1.10539
1.10257
1.10009
1.09774
1.0951
1.09215
1.0893
1.08687
1.08453
1.08186
1.07897
1.07609
1.07343
1.07108
1.06879
1.06632
1.06368
1.06107
1.05867
1.11502
1.11239
1.10965
1.10717
1.10474
1.1023
1.0997
1.097
1.09419
1.09154
1.08915
1.08673
1.08404
1.08115
1.0784
1.07591
1.07361
1.07129
1.06872
1.06602
1.06348
1.06122
1.11687
1.11456
1.1117
1.1089
1.10658
1.10447
1.10183
1.09896
1.09622
1.09375
1.09139
1.08891
1.08618
1.08335
1.08084
1.07853
1.07615
1.07368
1.07101
1.06835
1.066
1.06386
1.11892
1.11641
1.11403
1.11123
1.10846
1.10609
1.10383
1.10122
1.09839
1.09587
1.09352
1.09105
1.08832
1.0857
1.0834
1.08106
1.07856
1.076
1.07329
1.07074
1.06858
1.06645
1.12136
1.1187
1.11621
1.1137
1.11097
1.10808
1.10544
1.1032
1.10073
1.09811
1.09549
1.09309
1.09057
1.08814
1.08588
1.08348
1.08088
1.07819
1.07559
1.07329
1.07122
1.06897
1.12256
1.12058
1.11841
1.11609
1.11357
1.11079
1.10802
1.10514
1.10264
1.10027
1.09776
1.09518
1.09272
1.09058
1.0883
1.08574
1.08303
1.08038
1.07808
1.07594
1.07377
1.07139
1.12168
1.12157
1.1193
1.11726
1.11549
1.11369
1.11126
1.10815
1.1051
1.10221
1.09993
1.09759
1.09514
1.09271
1.09039
1.08794
1.08525
1.08269
1.08066
1.0786
1.07623
1.07379
1.11658
1.11853
1.11921
1.11829
1.11603
1.11467
1.11332
1.11142
1.10851
1.1052
1.10238
1.09992
1.09767
1.09514
1.09253
1.08989
1.0874
1.0853
1.08333
1.08104
1.07853
1.07629
1.10105
1.10957
1.11397
1.11621
1.11657
1.1151
1.1133
1.11226
1.11072
1.10862
1.10591
1.10298
1.10028
1.0977
1.09514
1.09234
1.08976
1.08785
1.08577
1.08344
1.08094
1.07877
1.05655
1.08022
1.09846
1.10619
1.11176
1.11427
1.11363
1.11182
1.11043
1.10968
1.10815
1.10622
1.10359
1.10076
1.09814
1.09547
1.09299
1.09075
1.08813
1.08578
1.08347
1.08132
1.01305
1.03154
1.05564
1.07853
1.09492
1.10357
1.1092
1.11095
1.10981
1.10876
1.10805
1.10718
1.10551
1.10353
1.10127
1.09894
1.09679
1.09417
1.09136
1.0887
1.08616
1.08394
1.00075
1.00391
1.01318
1.03063
1.05318
1.07446
1.09031
1.09919
1.10562
1.10737
1.10672
1.10596
1.10555
1.10432
1.10275
1.10098
1.09928
1.0972
1.0952
1.09255
1.08986
1.08744
1.00001
1.0001
1.00078
1.00375
1.01212
1.02768
1.04828
1.06835
1.08452
1.09411
1.10147
1.10321
1.10316
1.10291
1.1028
1.10168
1.09988
1.09817
1.09691
1.09513
1.09363
1.0917
1
1
1.00001
1.00009
1.00067
1.00316
1.01012
1.02345
1.04174
1.06064
1.07673
1.08755
1.09519
1.09852
1.09921
1.09959
1.09981
1.09889
1.09687
1.09523
1.09429
1.0932
1
1
1
1
1.00001
1.00007
1.0005
1.00234
1.00756
1.01805
1.03335
1.05061
1.06644
1.07848
1.08733
1.09234
1.0943
1.09538
1.09597
1.09568
1.09405
1.09237
1
1
1
1
1
1
1
1.00004
1.0003
1.00144
1.00483
1.01221
1.02397
1.03864
1.05357
1.06629
1.07641
1.08305
1.08714
1.08939
1.09069
1.09135
1
1
1
1
1
1
1
1
1
1.00002
1.00014
1.00071
1.00256
1.00691
1.01463
1.02553
1.03813
1.05043
1.06122
1.06958
1.07563
1.07976
1
1
1
1
1
1
1
1
1
1
1
1.00001
1.00005
1.00026
1.00102
1.003
1.007
1.0135
1.02215
1.03189
1.04163
1.05037
1
1
1
1
1
1
1
1
1
1
1
1
1
1
1.00001
1.00007
1.00027
1.0009
1.00233
1.00501
1.00913
1.01456
1
1
1
1
1
1
1
1
1
1
1
1
1
1
1
1
1
1.00001
1.00004
1.00016
1.00045
1.00108
1
1
1
1
1
1
1
1
1
1
1
1
1
1
1
1
1
1
1
1
1
1.00001
1
1
1
1
1
1
1
1
1
1
1
1
1
1
1
1
1
1
1
1
1
1
1
1
1
1
1
1
1
1
1
1
1
1
1
1
1
1
1
1
1
1
1
1
1
1
1
1
1
1
1
1
1
1
1
1
1
1
1
1
1
1
1
1
1
1
1
1
1
1
1
1
1
1
1
1
1
1
1
1
1
1
1
1
1
1
1
1
1
1
1
1
1
1
1
1
1
1
1
1
1
1
1
1
1
1
1
1
1
1
1
1
1
1
1
1
1
1
1
1
1
1
1
1
1
1
1
1
1
1
1
1
1
1
1
1
1
1
1
1
1
1
1
1
1
1
1
1
1
1
1
1
1
1
1
1
1
1
1
1
1
1
1
1
1
1
1
1
1
1
1
1
1
1
1
1
1
1
1
1
1
1
1
1
1
1
1
1
1
1
1
1
1
1
1
1
1
1
1
1
1
1
1
1
1
1
1
1
1
1
1
1
1
1
1
1
1
1
1
1
1
1
1
1
1
1
1
1
1
1
1
1
1
1
1
1
1
1
1
1
1
1
1
1
1
1
1
1
1
1
1
1
1
1
1
1
1
1
1
1
1
1
1
1
1
1
1
1
1
1
1
1
1
1
1
1
1
1
1
1
1
1
1
1
1
1
1
1
1
1
1
1
1
1
1
1
1
1
1
1
1
1
1
1
1
1
1
1
1
1
1
1
1
1
1
1
1
1
1
1
1
1
1
1
1
1
1
1
1
1
1
1
1
1
1
1
1
1
1
1
1
1
1
1
1
1
1
1
1
1
1
1
1
1
1
1
1
1
1
1
1
1
1
1
1
1
1
1
1
1
1
1
1
1
1
1
1
1
1
1
1
1
1
1
1
1
1
1
1
1
1
1
1
1
1
1
1
1
1
1
1
1
1
1
1
1
1
1
1
1
1
1
1
1
1
1
1
1
1
1
1
1
1
1
1
1
1
1
1
1
1
1
1
1
1
1
1
1
1
1
1
1
1
1
1
1
1
1
1
1
1
1
1
1
1
1
1
1
1
1
1
1
1
1
1
1
1
1
1
1
1
1
1
1
1
1
1
1
1
1
1
1
1
1
1
1
1
1
1
1
1
1
1
1
1
1
1
1
1
1
1
1
1
1
1
1
1
1
1
1
1
1
1
1
1
1
1
1
1
1
1
1
1
1
1
1
1
1
1
1
1
1
1
1
1
1
1
1
1
1
1
1
1
1
1
1
1
1
1
1
1
1
1
1
1
1
1
1
1
1
1
1
1
1
1
1
1
1
1
1
1
1
1
1
1
1
1
1
1
1
1
1
1
1
1
1
1
1
1
1
1
1
1
1
1
1
1
1
1
1
1
1
1
1
1
1
1
1
1
1
1
1
1
1
1
1
1
1
1
1
1
1
1
1
1
1
1
1
1
1
1
1
1
1
1
1
1
1
1
1
1
1
1
1
1
1
1
1
1
1
1
1
1
1
1
1
1
1
1
1
1
1
1
1
1
1
1
1
1
1
1
1
1
1
1
1
1
1
1
1
1
1
1
1
1
1
1
1
1
1
1
1
1
1
1
1
1
1
1
1
1
1
1
1
1
1
1
1
1
1
1
1
1
1
1
1
1
1
1
1
1
1
1
1
1
1
1
1
1
1
1
1
1
1
1
1
1
1
1
1
1
1
1
1
1
1
1
1
1
1
1
1
1
1
1
1
1
1
1
1
1
1
1
1
1
1
1
1
1
1
1
1
1
1
1
1
1
1
1
1
1
1
1
1
1
1
1
1
1
1
1
1
1
1
1
1
1
1
1
1
1
1
1
1
1
1
1
1
1
1
1
1
1
1
1
1
1
1
1
1
1
1
1
1
1
1
1
1
1
1
1
1
1
1
1
1
1
1
1
1
1
1
1
1
1
1
1
1
1
1
1
1
1
1
1
1
1
1
1
1
1
1
1
1
1
1
1
1
1
1
1
1
1
1
1
1
1
1
1
1
1
1
1
1
1
1
1
1
1
1
1
1
1
1
1
1
1
1
1
1
1
1
1
1
1
1
1
1
1
1
1
1
1
1
1
1
1
1
1
1
1
1
1
1
1
1
1
1
1
1
1
1
1
1
1
1
1
1
1
1
1
1
1
1
1
1
1
1
1
1
1
1
1
1
1
1
1
1
1
1
1
1
1
1
1
1
1
1
1
1
1
1
1
1
1
1
1
1
1
1
1
1
1
1
1
1
1
1
1
1
1
1
1
1
1
1
1
1
1
1
1
1
1
1
1
1
1
1
1
1
1
1
1
1
1
1
1
1
1
1
1
1
1
1
1
1
1
1
1
1
1
1
1
1
1
1
1
1
1
1
1
1
1
1
1
1
1
1
1
1
1
1
1
1
1
1
1
1
1
1
1
1
1
1
1
1
1
1
1
1
1
1
1
1
1
1
1
1
1
1
1
1
1
1
1
1
1
1
1
1
1
1
1
1
1
1
1
1
1
1
1
1
1
1
1
1
1
1
1
1
1
1
1
1
1
1
1
1
1
1
1
1
1
1
1
1
1
1
1
1
1
1
1
1
1
1
1
1
1
1
1
1
1
1
1
1
1
1
1
1
1
1
1
1
1
1
1
1
1
1
1
1
1
1
1
1
1
1
1
1
1
1
1
1
1
1
1
1
1
1
1
1
1
1
1
1
1
1
1
1
1
1
1
1
1
1
1
1
1
1
1
1
1
1
1
1
1
1
1
1
1
1
1
1
1
1
1
1
1
1
1
1
1
1
1
1
1
1
1
1
1
1
1
1
1
1
1
1
1
1
1
1
1
1
1
1
1
1
1
1
1
1
1
1
1
1
1
1
1
1
1
1
1
1
1
1
1
1
1
1
1
1
1
1
1
1
1
1
1
1
1
1
1
1
1
1
1
1
1
1
1
1
1
1
1
1
1
1
1
1
1
1
1
1
1
1
1
1
1
1
1
1
1
1
1
1
1
1
1
1
1
1
1
1
1
1
1
1
1
1
1
1
1
1
1
1
1
1
1
1
1
1
1
1
1
1
1
1
1
1
1
1
1
1
1
1
1
1
1
1
1
1
1
1
1
1
1
1
1
1
1
1
1
1
1
1
1
1
1
1
1
1
1
1
1
1
1
1
1
1
1
1
1
1
1
1
1
1
1
1
1
1
1
1
1
1
1
1
1
1
1
1
1
1
1
1
1
1
1
1
1
1
1
1
1
1
1
1
1
1
1
1
1
1
1
1
1
1
1
1
1
1
1
1
1
1
1
1
1
1
1
1
1
1
1
1
1
1
1
1
1
1
1
1
1
1
1
1
1
1
1
1
1
1
1
1
1
1
1
1
1
1
1
1
1
1
1
1
1
1
1
1
1
1
1
1
1
1
1
1
1
1
1
1
1
1
1
1
1
1
1
1
1
1
1
1
1
1
1
1
1
1
1
1
1
1
1
1
1
1
1
1
1
1
1
1
1
1
1
1
1
1
1
1
1
1
1
1
1
1
1
1
1
1
1
1
1
1
1
1
1
1
1
1
1
1
1
1
1
1
1
1
1
1
1
1
1
1
1
1
1
1
1
1
1
1
1
1
1
1
1
1
1
1
1
1
1
1
1
1
1
1
1
1
1
1
1
1
1
1
1
1
1
1
1
1
1
1
1
1
1
1
1
1
1
1
1
1
1
1
1
1
1
1
1
1
1
1
1
1
1
1
1
1
1
1
1
1
1
1
1
1
1
1
1
1
1
1
1
1
1
1
1
1
1
1
1
1
1
1
1
1
1
1
1
1
1
1
1
1
1
1
1
1
1
1
1
1
1
1
1
1
1
1
1
1
1
1
1
1
1
1
1
1
1
1
1
1
1
1
1
1
1
1
1
1
1
1
1
1
1
1
1
1
1
1
1
1
1
1
1
1
1
1
1
1
1
1
1
1
1
1
1
1
1
1
1
1
1
1
1
1
1
1
1
1
1
1
1
1
1
1
1
1
1
1
1
1
1
1
1
1
1
1
1
1
1
1
1
1
1
1
1
1
1
1
1
1
1
1
1
1
1
1
1
1
1
1
1
1
1
1
1
1
1
1
1
1
1
1
1
1
1
1
1
1
1
1
1
1
1
1
1
1
1
1
1
1
1
1
1
1
1
1
1
1
1
1
1
1
1
1
1
1
1
1
1
1
)
;

boundaryField
{
    inlet
    {
        type            fixedValue;
        value           nonuniform 0();
    }
    outlet
    {
        type            inletOutlet;
        inletValue      nonuniform 0();
        value           nonuniform 0();
    }
    triangle
    {
        type            zeroGradient;
    }
    top
    {
        type            symmetryPlane;
    }
    bottom
    {
        type            symmetryPlane;
    }
    defaultFaces
    {
        type            empty;
    }
    procBoundary30to22
    {
        type            processor;
        value           nonuniform List<scalar> 
23
(
1.01659
1.01211
1.00813
1.00464
1.00094
0.997293
0.993805
0.990228
0.986789
0.983719
0.980822
0.97779
0.974796
1.05723
1.0527
1.04846
1.04457
1.04014
1.03505
1.03025
1.02623
1.02282
1.02282
)
;
    }
    procBoundary30to29
    {
        type            processor;
        value           nonuniform List<scalar> 
146
(
1.06316
1.06446
1.06571
1.06678
1.06762
1.06855
1.06966
1.07092
1.07227
1.07354
1.07459
1.07541
1.07623
1.07713
1.07809
1.07911
1.08017
1.08126
1.08233
1.08331
1.08418
1.08499
1.08579
1.08666
1.08758
1.08857
1.08994
1.09159
1.09328
1.09535
1.09761
1.09981
1.10167
1.10332
1.10484
1.10617
1.10744
1.10901
1.11068
1.11209
1.11371
1.1157
1.11748
1.11907
1.12179
1.12368
1.12379
1.12042
1.11257
1.08071
1.031
1.00368
1.00009
1
1
1
1
1
1
1
1
1
1
1
1
1
1
1
1
1
1
1
1
1
1
1
1
1
1
1
1
1
1
1
1
1
1
1
1
1
1
1
1
1
1
1
1
1
1
1
1
1
1
1
1
1
1
1
1
1
1
1
1
1
1
1
1
1
1
1
1
1
1
1
1
1
1
1
1
1
1
1
1
1
1
1
1
1
1
1
1
1
1
1
1
1
)
;
    }
    procBoundary30to31
    {
        type            processor;
        value           nonuniform List<scalar> 
147
(
0.973925
0.975673
0.977354
0.979073
0.980809
0.982594
0.984323
0.986015
0.987639
0.989201
0.990753
0.992286
0.993856
0.995433
0.997038
0.998639
1.00023
1.00181
1.00336
1.00489
1.0064
1.00789
1.00935
1.01076
1.01212
1.01343
1.01471
1.0167
1.01953
1.02246
1.02558
1.02873
1.03182
1.03485
1.03765
1.04029
1.04268
1.04491
1.04702
1.04917
1.05144
1.05388
1.05645
1.05905
1.06162
1.06409
1.06649
1.06895
1.07154
1.07423
1.07677
1.07934
1.08211
1.08525
1.08895
1.09127
1.09136
1.09045
1.08221
1.05765
1.02088
1.00219
1.00004
1
1
1
1
1
1
1
1
1
1
1
1
1
1
1
1
1
1
1
1
1
1
1
1
1
1
1
1
1
1
1
1
1
1
1
1
1
1
1
1
1
1
1
1
1
1
1
1
1
1
1
1
1
1
1
1
1
1
1
1
1
1
1
1
1
1
1
1
1
1
1
1
1
1
1
1
1
1
1
1
1
1
1
1
)
;
    }
}


// ************************************************************************* //
