/*--------------------------------*- C++ -*----------------------------------*\
  =========                 |
  \\      /  F ield         | OpenFOAM: The Open Source CFD Toolbox
   \\    /   O peration     | Website:  https://openfoam.org
    \\  /    A nd           | Version:  7
     \\/     M anipulation  |
\*---------------------------------------------------------------------------*/
FoamFile
{
    version     2.0;
    format      ascii;
    class       volVectorField;
    location    "0.2";
    object      U;
}
// * * * * * * * * * * * * * * * * * * * * * * * * * * * * * * * * * * * * * //

dimensions      [0 1 -1 0 0 0 0];

internalField   nonuniform List<vector> 
3225
(
(1.18866 0.141695 0)
(1.1969 0.13351 0)
(1.20505 0.124357 0)
(1.21316 0.11382 0)
(1.22043 0.102958 0)
(1.2273 0.0922609 0)
(1.23416 0.0810866 0)
(1.24045 0.069599 0)
(1.24573 0.0585843 0)
(1.25037 0.0477936 0)
(1.25428 0.036892 0)
(1.25724 0.0257734 0)
(1.25981 0.0143198 0)
(1.09578 0.221003 0)
(1.10584 0.213947 0)
(1.11613 0.206311 0)
(1.12698 0.197536 0)
(1.1374 0.187999 0)
(1.14687 0.179939 0)
(1.15623 0.17261 0)
(1.16572 0.164462 0)
(1.1756 0.154633 0)
(1.18503 0.143882 0)
(1.19355 0.134566 0)
(1.2015 0.126029 0)
(1.20908 0.116653 0)
(1.2165 0.10602 0)
(1.22371 0.094818 0)
(1.23044 0.083688 0)
(1.23642 0.0727865 0)
(1.24179 0.0619054 0)
(1.2468 0.0508863 0)
(1.25079 0.0400512 0)
(1.25358 0.0293989 0)
(1.25629 0.0182055 0)
(1.09285 0.22078 0)
(1.10283 0.213856 0)
(1.11269 0.206831 0)
(1.12309 0.199092 0)
(1.13378 0.189925 0)
(1.14366 0.180613 0)
(1.15297 0.173063 0)
(1.16208 0.165975 0)
(1.1713 0.157526 0)
(1.18115 0.147055 0)
(1.19014 0.136347 0)
(1.19813 0.127435 0)
(1.20564 0.118597 0)
(1.21265 0.10874 0)
(1.21971 0.0977467 0)
(1.22685 0.0863014 0)
(1.23308 0.075352 0)
(1.23815 0.0649434 0)
(1.24273 0.0542707 0)
(1.2468 0.0434313 0)
(1.25004 0.0327343 0)
(1.25291 0.0218665 0)
(1.08995 0.220254 0)
(1.09993 0.213487 0)
(1.10971 0.20699 0)
(1.11957 0.200219 0)
(1.12994 0.192203 0)
(1.14028 0.182782 0)
(1.14981 0.174047 0)
(1.1588 0.166934 0)
(1.16765 0.15945 0)
(1.17708 0.150093 0)
(1.18669 0.139044 0)
(1.19482 0.129119 0)
(1.2019 0.120474 0)
(1.20892 0.111025 0)
(1.21623 0.100295 0)
(1.22314 0.0891178 0)
(1.22914 0.078405 0)
(1.23428 0.0681046 0)
(1.23913 0.0573863 0)
(1.24336 0.0464248 0)
(1.24675 0.0357672 0)
(1.24973 0.0252317 0)
(1.08708 0.220147 0)
(1.09714 0.21307 0)
(1.10692 0.206827 0)
(1.11661 0.200804 0)
(1.1265 0.193917 0)
(1.13664 0.185472 0)
(1.14656 0.17615 0)
(1.15567 0.167952 0)
(1.16437 0.160678 0)
(1.17352 0.152284 0)
(1.18289 0.142052 0)
(1.1912 0.131615 0)
(1.19847 0.122217 0)
(1.20542 0.112901 0)
(1.21251 0.102795 0)
(1.21962 0.0918741 0)
(1.22571 0.0811436 0)
(1.23064 0.0710347 0)
(1.23531 0.0606284 0)
(1.23975 0.0497498 0)
(1.24343 0.0389726 0)
(1.24651 0.0285309 0)
(1.08416 0.220975 0)
(1.09433 0.21354 0)
(1.10422 0.206772 0)
(1.11395 0.200904 0)
(1.12356 0.194833 0)
(1.1331 0.187563 0)
(1.14298 0.178829 0)
(1.15253 0.169695 0)
(1.16135 0.161717 0)
(1.17013 0.153801 0)
(1.1791 0.144484 0)
(1.18735 0.134335 0)
(1.19488 0.124432 0)
(1.20218 0.114713 0)
(1.20918 0.10492 0)
(1.21585 0.0946623 0)
(1.22194 0.0841395 0)
(1.22702 0.0739711 0)
(1.23173 0.0636759 0)
(1.23633 0.0529664 0)
(1.2403 0.0421654 0)
(1.24348 0.0316954 0)
(1.08115 0.222171 0)
(1.0913 0.214969 0)
(1.1015 0.207551 0)
(1.1114 0.201066 0)
(1.12089 0.195219 0)
(1.13 0.188791 0)
(1.13939 0.181045 0)
(1.14925 0.172035 0)
(1.15838 0.16322 0)
(1.16696 0.15506 0)
(1.17535 0.146306 0)
(1.1835 0.136715 0)
(1.19138 0.126745 0)
(1.19884 0.116878 0)
(1.20588 0.107152 0)
(1.21247 0.0971656 0)
(1.21832 0.0869651 0)
(1.22345 0.0768253 0)
(1.22834 0.0665558 0)
(1.23287 0.0561934 0)
(1.23683 0.0456698 0)
(1.24032 0.0350323 0)
(1.07834 0.223171 0)
(1.08821 0.216677 0)
(1.09865 0.209399 0)
(1.10885 0.201898 0)
(1.11832 0.195482 0)
(1.12724 0.189355 0)
(1.13625 0.182445 0)
(1.14592 0.174237 0)
(1.15533 0.165239 0)
(1.16375 0.15659 0)
(1.17184 0.147828 0)
(1.17983 0.138652 0)
(1.18788 0.12899 0)
(1.19566 0.119116 0)
(1.20249 0.10957 0)
(1.20882 0.0998142 0)
(1.21489 0.0896554 0)
(1.21997 0.0796169 0)
(1.22474 0.0695455 0)
(1.22958 0.0592093 0)
(1.23382 0.0487679 0)
(1.2372 0.0383336 0)
(1.07589 0.223753 0)
(1.0854 0.21798 0)
(1.09566 0.211512 0)
(1.10608 0.203877 0)
(1.1157 0.196214 0)
(1.12461 0.189603 0)
(1.13345 0.183171 0)
(1.1429 0.175782 0)
(1.15216 0.167292 0)
(1.16038 0.158503 0)
(1.16837 0.149469 0)
(1.17651 0.140302 0)
(1.18455 0.131018 0)
(1.19234 0.121474 0)
(1.19934 0.111868 0)
(1.20547 0.102264 0)
(1.21108 0.0925069 0)
(1.21645 0.0824571 0)
(1.2217 0.0721767 0)
(1.22621 0.0621807 0)
(1.2302 0.0521571 0)
(1.23401 0.041665 0)
(1.07359 0.224004 0)
(1.08295 0.21872 0)
(1.09278 0.213034 0)
(1.10293 0.206054 0)
(1.1128 0.197961 0)
(1.12194 0.190293 0)
(1.13083 0.183636 0)
(1.14005 0.176767 0)
(1.14884 0.168986 0)
(1.15684 0.160458 0)
(1.16492 0.151347 0)
(1.17318 0.142156 0)
(1.18155 0.132861 0)
(1.18936 0.123462 0)
(1.19577 0.114312 0)
(1.20184 0.104852 0)
(1.20787 0.0950253 0)
(1.21307 0.085241 0)
(1.21811 0.0752455 0)
(1.22304 0.0650209 0)
(1.22734 0.0549105 0)
(1.23078 0.0449145 0)
(1.07134 0.224202 0)
(1.08071 0.219119 0)
(1.0903 0.213867 0)
(1.09987 0.207609 0)
(1.10959 0.199972 0)
(1.11916 0.191771 0)
(1.12823 0.184464 0)
(1.13733 0.177564 0)
(1.14579 0.170205 0)
(1.15335 0.162176 0)
(1.16151 0.153317 0)
(1.17015 0.144105 0)
(1.17842 0.134906 0)
(1.18599 0.12567 0)
(1.19261 0.116375 0)
(1.1986 0.107103 0)
(1.2041 0.0978277 0)
(1.20971 0.0880739 0)
(1.21521 0.0778759 0)
(1.21972 0.0679415 0)
(1.22385 0.0580872 0)
(1.22772 0.0480145 0)
(1.06915 0.224602 0)
(1.07859 0.219403 0)
(1.08799 0.214334 0)
(1.0972 0.208538 0)
(1.10654 0.201595 0)
(1.11622 0.193675 0)
(1.1256 0.185813 0)
(1.13463 0.178473 0)
(1.14275 0.171296 0)
(1.15025 0.163566 0)
(1.15843 0.155099 0)
(1.16692 0.146267 0)
(1.17537 0.137021 0)
(1.18289 0.127672 0)
(1.18915 0.118575 0)
(1.19515 0.109471 0)
(1.20103 0.100195 0)
(1.20653 0.0907598 0)
(1.21165 0.0809487 0)
(1.21655 0.0708023 0)
(1.22109 0.0607137 0)
(1.22455 0.0511 0)
(1.06689 0.22545 0)
(1.07646 0.219911 0)
(1.08579 0.214706 0)
(1.09473 0.20913 0)
(1.10372 0.202712 0)
(1.1133 0.195365 0)
(1.12277 0.187519 0)
(1.13175 0.179754 0)
(1.13984 0.17233 0)
(1.14734 0.164783 0)
(1.15547 0.156734 0)
(1.16406 0.148156 0)
(1.17219 0.139176 0)
(1.17934 0.129962 0)
(1.18595 0.120633 0)
(1.19201 0.111601 0)
(1.19762 0.10278 0)
(1.20337 0.0934471 0)
(1.20869 0.0835844 0)
(1.21341 0.0736281 0)
(1.21782 0.0637576 0)
(1.22154 0.0540873 0)
(1.06446 0.226477 0)
(1.07424 0.220774 0)
(1.08356 0.215307 0)
(1.09234 0.209715 0)
(1.10118 0.203524 0)
(1.11042 0.196651 0)
(1.11961 0.189118 0)
(1.12865 0.181223 0)
(1.13683 0.173556 0)
(1.1446 0.165975 0)
(1.15273 0.158199 0)
(1.16094 0.150057 0)
(1.16888 0.141271 0)
(1.17608 0.132058 0)
(1.18262 0.122833 0)
(1.18867 0.113955 0)
(1.19471 0.105057 0)
(1.20038 0.0959404 0)
(1.20533 0.0864348 0)
(1.21034 0.0764107 0)
(1.21494 0.0664793 0)
(1.21849 0.0570887 0)
(1.06216 0.227387 0)
(1.07192 0.221799 0)
(1.08126 0.216175 0)
(1.09 0.210424 0)
(1.09875 0.204271 0)
(1.1078 0.19765 0)
(1.11673 0.19044 0)
(1.12559 0.182683 0)
(1.13397 0.174845 0)
(1.14195 0.167281 0)
(1.14992 0.159783 0)
(1.15807 0.151755 0)
(1.16566 0.143199 0)
(1.17253 0.134237 0)
(1.17934 0.125042 0)
(1.1857 0.116152 0)
(1.19172 0.107461 0)
(1.19724 0.0985277 0)
(1.20233 0.089009 0)
(1.20732 0.0791195 0)
(1.21177 0.0694268 0)
(1.21557 0.0600403 0)
(1.06006 0.228105 0)
(1.0697 0.222734 0)
(1.07898 0.217114 0)
(1.08769 0.211219 0)
(1.09645 0.204974 0)
(1.1052 0.198549 0)
(1.11394 0.191641 0)
(1.1227 0.184079 0)
(1.13118 0.17623 0)
(1.13942 0.168654 0)
(1.14731 0.161257 0)
(1.15505 0.153479 0)
(1.16228 0.145137 0)
(1.16931 0.136246 0)
(1.17623 0.127216 0)
(1.18263 0.118525 0)
(1.18885 0.109805 0)
(1.19432 0.100932 0)
(1.19927 0.0916106 0)
(1.2043 0.0818246 0)
(1.2088 0.0722389 0)
(1.21277 0.0629409 0)
(1.05795 0.228814 0)
(1.06741 0.223634 0)
(1.07656 0.218023 0)
(1.0853 0.211999 0)
(1.09399 0.205756 0)
(1.10256 0.199489 0)
(1.11118 0.192816 0)
(1.11973 0.185481 0)
(1.12859 0.17759 0)
(1.13691 0.170042 0)
(1.14443 0.162877 0)
(1.15205 0.155153 0)
(1.15912 0.146941 0)
(1.16608 0.138282 0)
(1.17317 0.129431 0)
(1.1798 0.120783 0)
(1.18595 0.112163 0)
(1.19128 0.103397 0)
(1.19642 0.0940372 0)
(1.20128 0.0844861 0)
(1.20581 0.0751138 0)
(1.20996 0.0658823 0)
(1.05592 0.229608 0)
(1.06528 0.224477 0)
(1.07433 0.218732 0)
(1.08304 0.212594 0)
(1.09159 0.206474 0)
(1.09998 0.200463 0)
(1.10844 0.194041 0)
(1.11697 0.186839 0)
(1.12604 0.178957 0)
(1.1342 0.171504 0)
(1.14173 0.164333 0)
(1.14914 0.156746 0)
(1.15595 0.148766 0)
(1.16318 0.140216 0)
(1.17023 0.131614 0)
(1.17682 0.123154 0)
(1.18309 0.114467 0)
(1.18856 0.105587 0)
(1.1934 0.0964942 0)
(1.19824 0.0871521 0)
(1.20297 0.0779128 0)
(1.20725 0.0687745 0)
(1.05396 0.230396 0)
(1.06313 0.225319 0)
(1.072 0.219444 0)
(1.0808 0.213166 0)
(1.0893 0.207173 0)
(1.09762 0.201424 0)
(1.10589 0.195246 0)
(1.1144 0.188142 0)
(1.12346 0.180321 0)
(1.13148 0.172913 0)
(1.13904 0.165787 0)
(1.14623 0.158356 0)
(1.15305 0.150515 0)
(1.16023 0.142232 0)
(1.16731 0.133814 0)
(1.1741 0.125339 0)
(1.18031 0.116664 0)
(1.18557 0.107898 0)
(1.19058 0.098785 0)
(1.19538 0.0896868 0)
(1.20011 0.0807322 0)
(1.20435 0.0717925 0)
(1.05197 0.231072 0)
(1.0609 0.226035 0)
(1.06967 0.220117 0)
(1.07854 0.213811 0)
(1.08699 0.207991 0)
(1.09534 0.202438 0)
(1.10348 0.196387 0)
(1.11187 0.189366 0)
(1.12071 0.181678 0)
(1.12879 0.1743 0)
(1.13643 0.167208 0)
(1.14332 0.160016 0)
(1.15023 0.152308 0)
(1.15753 0.144135 0)
(1.16446 0.135945 0)
(1.17125 0.127543 0)
(1.17751 0.118787 0)
(1.18288 0.109937 0)
(1.18755 0.101172 0)
(1.19244 0.0923046 0)
(1.19734 0.0834766 0)
(1.20162 0.0746859 0)
(1.05007 0.231513 0)
(1.05868 0.226575 0)
(1.06733 0.220797 0)
(1.07619 0.214659 0)
(1.08473 0.208915 0)
(1.09317 0.203389 0)
(1.10112 0.197418 0)
(1.10938 0.190454 0)
(1.11799 0.182951 0)
(1.1262 0.175657 0)
(1.13373 0.168746 0)
(1.14058 0.161689 0)
(1.14766 0.15404 0)
(1.15466 0.146124 0)
(1.16178 0.137941 0)
(1.16865 0.129478 0)
(1.17459 0.12088 0)
(1.17976 0.112236 0)
(1.18477 0.103449 0)
(1.18976 0.0947713 0)
(1.19448 0.0862741 0)
(1.19875 0.0776666 0)
(1.04826 0.231788 0)
(1.05666 0.226986 0)
(1.06517 0.221488 0)
(1.07391 0.215634 0)
(1.08258 0.209892 0)
(1.09101 0.204277 0)
(1.09883 0.198272 0)
(1.10681 0.191456 0)
(1.11526 0.184241 0)
(1.12362 0.177099 0)
(1.13102 0.170362 0)
(1.13795 0.163395 0)
(1.14509 0.155802 0)
(1.15207 0.147915 0)
(1.15908 0.13983 0)
(1.16566 0.131509 0)
(1.17167 0.122927 0)
(1.17713 0.114256 0)
(1.18191 0.105851 0)
(1.18689 0.0974367 0)
(1.19182 0.0889766 0)
(1.19615 0.0804432 0)
(1.04646 0.232062 0)
(1.05467 0.227437 0)
(1.06308 0.222261 0)
(1.07165 0.216684 0)
(1.08045 0.210856 0)
(1.08884 0.205048 0)
(1.09654 0.19901 0)
(1.10436 0.192393 0)
(1.11269 0.185553 0)
(1.12099 0.178678 0)
(1.12838 0.172044 0)
(1.13559 0.164987 0)
(1.1425 0.157521 0)
(1.14927 0.149748 0)
(1.15643 0.141574 0)
(1.16292 0.1333 0)
(1.16883 0.124917 0)
(1.17413 0.116592 0)
(1.17919 0.108275 0)
(1.18434 0.0999499 0)
(1.18906 0.0917391 0)
(1.19333 0.0833234 0)
(1.04464 0.232487 0)
(1.05278 0.228008 0)
(1.06096 0.2231 0)
(1.06944 0.217663 0)
(1.07837 0.211694 0)
(1.08666 0.205716 0)
(1.09436 0.199656 0)
(1.10185 0.193434 0)
(1.11004 0.187046 0)
(1.11842 0.180344 0)
(1.1259 0.173685 0)
(1.13303 0.166657 0)
(1.13981 0.159191 0)
(1.14673 0.151328 0)
(1.15356 0.143306 0)
(1.15989 0.135233 0)
(1.16602 0.126965 0)
(1.17151 0.118761 0)
(1.17652 0.110742 0)
(1.18163 0.102632 0)
(1.18645 0.0944194 0)
(1.19075 0.0859751 0)
(1.04296 0.233053 0)
(1.051 0.228688 0)
(1.05892 0.223877 0)
(1.06737 0.218447 0)
(1.07618 0.212452 0)
(1.08447 0.206412 0)
(1.09206 0.200529 0)
(1.09939 0.194696 0)
(1.10764 0.188602 0)
(1.11586 0.182053 0)
(1.12338 0.17532 0)
(1.13059 0.168117 0)
(1.13716 0.160694 0)
(1.14392 0.152967 0)
(1.15075 0.145019 0)
(1.15727 0.13701 0)
(1.16335 0.128998 0)
(1.16867 0.121163 0)
(1.17394 0.113231 0)
(1.17918 0.105128 0)
(1.18382 0.0970379 0)
(1.18793 0.0886644 0)
(1.04121 0.233806 0)
(1.04911 0.229436 0)
(1.05686 0.224534 0)
(1.0653 0.219061 0)
(1.07401 0.213152 0)
(1.08235 0.207208 0)
(1.08989 0.201597 0)
(1.09722 0.196074 0)
(1.10536 0.190188 0)
(1.11345 0.183648 0)
(1.12107 0.176699 0)
(1.12797 0.169502 0)
(1.13451 0.162096 0)
(1.14135 0.154447 0)
(1.1481 0.146717 0)
(1.15454 0.138975 0)
(1.1605 0.13123 0)
(1.16612 0.12344 0)
(1.17153 0.115594 0)
(1.17646 0.107711 0)
(1.18093 0.0996837 0)
(1.18517 0.0912026 0)
(1.03937 0.234642 0)
(1.04712 0.230085 0)
(1.05486 0.224998 0)
(1.06322 0.219569 0)
(1.07179 0.213946 0)
(1.08016 0.208308 0)
(1.08769 0.203015 0)
(1.09498 0.197672 0)
(1.10287 0.191788 0)
(1.11087 0.185117 0)
(1.11842 0.177997 0)
(1.12532 0.170724 0)
(1.13189 0.163399 0)
(1.13861 0.156036 0)
(1.14533 0.148592 0)
(1.15173 0.14107 0)
(1.15785 0.133423 0)
(1.16367 0.125703 0)
(1.16889 0.118054 0)
(1.17368 0.110227 0)
(1.17834 0.102073 0)
(1.18264 0.0935549 0)
(1.03674 0.235456 0)
(1.04439 0.230675 0)
(1.05206 0.225745 0)
(1.06009 0.22088 0)
(1.06845 0.215865 0)
(1.0767 0.210592 0)
(1.08416 0.205295 0)
(1.09128 0.199677 0)
(1.09892 0.193528 0)
(1.10694 0.18676 0)
(1.11438 0.179698 0)
(1.12123 0.172676 0)
(1.12803 0.165647 0)
(1.13475 0.158728 0)
(1.14127 0.15174 0)
(1.1477 0.144394 0)
(1.15403 0.136741 0)
(1.15987 0.129089 0)
(1.16489 0.121608 0)
(1.16966 0.113801 0)
(1.17421 0.105622 0)
(1.17853 0.0971601 0)
(1.03326 0.23646 0)
(1.04094 0.231874 0)
(1.04862 0.227578 0)
(1.0564 0.223333 0)
(1.06446 0.218565 0)
(1.07242 0.213105 0)
(1.07981 0.207312 0)
(1.08685 0.20136 0)
(1.09436 0.195278 0)
(1.10204 0.188963 0)
(1.10935 0.18237 0)
(1.11655 0.175602 0)
(1.12334 0.169058 0)
(1.12969 0.162729 0)
(1.13614 0.155988 0)
(1.14276 0.148554 0)
(1.14906 0.140878 0)
(1.15464 0.133467 0)
(1.15958 0.126165 0)
(1.16448 0.118371 0)
(1.16915 0.110105 0)
(1.17321 0.101973 0)
(1.03031 0.237666 0)
(1.03829 0.233214 0)
(1.04611 0.229142 0)
(1.05382 0.225006 0)
(1.06151 0.22024 0)
(1.06899 0.214675 0)
(1.07607 0.208777 0)
(1.08306 0.203045 0)
(1.09031 0.197523 0)
(1.09773 0.191778 0)
(1.10519 0.185463 0)
(1.11224 0.179004 0)
(1.11871 0.172872 0)
(1.12503 0.166605 0)
(1.13166 0.159677 0)
(1.1381 0.152315 0)
(1.14396 0.14496 0)
(1.14958 0.137654 0)
(1.15495 0.130165 0)
(1.15995 0.122441 0)
(1.16421 0.114722 0)
(1.16804 0.10704 0)
(1.02762 0.23928 0)
(1.03533 0.234993 0)
(1.04277 0.230882 0)
(1.04983 0.226777 0)
(1.05694 0.222027 0)
(1.06447 0.216583 0)
(1.07203 0.210919 0)
(1.07932 0.205662 0)
(1.0865 0.200512 0)
(1.09411 0.194683 0)
(1.10151 0.188519 0)
(1.10798 0.182503 0)
(1.11434 0.176422 0)
(1.12114 0.169763 0)
(1.12754 0.162859 0)
(1.13324 0.155921 0)
(1.13928 0.14865 0)
(1.1453 0.141268 0)
(1.15024 0.134252 0)
(1.15437 0.127192 0)
(1.15866 0.119753 0)
(1.16328 0.111985 0)
(1.02378 0.24108 0)
(1.03177 0.23678 0)
(1.03939 0.232429 0)
(1.04629 0.228143 0)
(1.05341 0.223334 0)
(1.0613 0.218157 0)
(1.06906 0.213076 0)
(1.07619 0.208316 0)
(1.08325 0.203224 0)
(1.08997 0.197639 0)
(1.09622 0.19179 0)
(1.10328 0.185678 0)
(1.11057 0.179252 0)
(1.11671 0.173079 0)
(1.12219 0.166481 0)
(1.12834 0.159279 0)
(1.13451 0.152196 0)
(1.13984 0.145558 0)
(1.14464 0.138913 0)
(1.14961 0.131558 0)
(1.15457 0.123941 0)
(1.15882 0.116772 0)
(1.02023 0.24229 0)
(1.02792 0.238299 0)
(1.03551 0.23421 0)
(1.04251 0.229921 0)
(1.04924 0.225403 0)
(1.05643 0.220874 0)
(1.06412 0.216193 0)
(1.07153 0.21126 0)
(1.07804 0.205984 0)
(1.08459 0.200251 0)
(1.09209 0.19412 0)
(1.09937 0.188165 0)
(1.10544 0.182621 0)
(1.11118 0.176591 0)
(1.11743 0.169605 0)
(1.12348 0.162596 0)
(1.12912 0.156129 0)
(1.13505 0.149621 0)
(1.14051 0.142774 0)
(1.14485 0.135909 0)
(1.14888 0.128933 0)
(1.15324 0.121956 0)
(1.01636 0.243764 0)
(1.02414 0.239869 0)
(1.03155 0.236005 0)
(1.03827 0.232066 0)
(1.04502 0.227736 0)
(1.05255 0.223087 0)
(1.06018 0.218272 0)
(1.06698 0.213409 0)
(1.07337 0.208011 0)
(1.08023 0.202269 0)
(1.08715 0.196809 0)
(1.0938 0.191534 0)
(1.10051 0.185796 0)
(1.1067 0.179375 0)
(1.1121 0.172825 0)
(1.11787 0.166417 0)
(1.12433 0.160018 0)
(1.13027 0.153694 0)
(1.13504 0.147378 0)
(1.1395 0.140524 0)
(1.14433 0.133256 0)
(1.14898 0.126291 0)
(1.0128 0.245372 0)
(1.02041 0.241728 0)
(1.0277 0.237813 0)
(1.03437 0.233895 0)
(1.04111 0.229693 0)
(1.04835 0.225196 0)
(1.05563 0.220388 0)
(1.06237 0.21536 0)
(1.0687 0.21005 0)
(1.07533 0.204868 0)
(1.08235 0.199811 0)
(1.08947 0.194388 0)
(1.09593 0.188558 0)
(1.10143 0.182453 0)
(1.10706 0.176165 0)
(1.11337 0.170004 0)
(1.11958 0.164045 0)
(1.1252 0.157998 0)
(1.13042 0.151398 0)
(1.13511 0.144402 0)
(1.13955 0.137609 0)
(1.144 0.131129 0)
(1.00953 0.24694 0)
(1.01688 0.243577 0)
(1.0241 0.239579 0)
(1.03075 0.235495 0)
(1.03734 0.231441 0)
(1.04442 0.227169 0)
(1.05162 0.222377 0)
(1.05814 0.217345 0)
(1.06433 0.212357 0)
(1.0711 0.207552 0)
(1.07823 0.202579 0)
(1.08491 0.197267 0)
(1.09103 0.191525 0)
(1.09692 0.18537 0)
(1.10279 0.179411 0)
(1.10876 0.17386 0)
(1.11483 0.168107 0)
(1.12064 0.161832 0)
(1.12568 0.15525 0)
(1.13016 0.148589 0)
(1.13503 0.141976 0)
(1.13987 0.135576 0)
(1.00667 0.248398 0)
(1.01366 0.245096 0)
(1.02066 0.24133 0)
(1.02737 0.237261 0)
(1.03391 0.233204 0)
(1.04069 0.229065 0)
(1.04759 0.22451 0)
(1.05413 0.219629 0)
(1.06049 0.214829 0)
(1.06723 0.210201 0)
(1.07402 0.205336 0)
(1.08052 0.200021 0)
(1.08675 0.1943 0)
(1.09261 0.188574 0)
(1.09843 0.183126 0)
(1.10452 0.177606 0)
(1.11054 0.171693 0)
(1.116 0.165473 0)
(1.12099 0.159029 0)
(1.12589 0.152529 0)
(1.13083 0.146328 0)
(1.1355 0.140327 0)
(1.00384 0.250279 0)
(1.01083 0.246516 0)
(1.01768 0.242808 0)
(1.02418 0.239195 0)
(1.03061 0.235322 0)
(1.03727 0.231029 0)
(1.04407 0.226476 0)
(1.0506 0.221939 0)
(1.05693 0.21749 0)
(1.0635 0.212883 0)
(1.0701 0.207878 0)
(1.07648 0.202599 0)
(1.08258 0.1973 0)
(1.08858 0.192035 0)
(1.09459 0.186699 0)
(1.10043 0.181139 0)
(1.10611 0.17517 0)
(1.11159 0.168908 0)
(1.11674 0.162699 0)
(1.12165 0.156764 0)
(1.12663 0.150906 0)
(1.13152 0.14483 0)
(1.00091 0.252183 0)
(1.00794 0.248538 0)
(1.01484 0.24464 0)
(1.02112 0.24111 0)
(1.0273 0.237405 0)
(1.03384 0.233164 0)
(1.04067 0.22869 0)
(1.04727 0.224388 0)
(1.05351 0.220179 0)
(1.05983 0.215568 0)
(1.06632 0.210438 0)
(1.07267 0.205258 0)
(1.07886 0.200304 0)
(1.08492 0.195379 0)
(1.09064 0.190242 0)
(1.09625 0.184591 0)
(1.10191 0.178482 0)
(1.10733 0.172438 0)
(1.11251 0.166704 0)
(1.11768 0.161052 0)
(1.12271 0.155284 0)
(1.12725 0.149321 0)
(0.998364 0.253536 0)
(1.00495 0.250616 0)
(1.01198 0.247042 0)
(1.01838 0.243109 0)
(1.02425 0.239159 0)
(1.03053 0.235217 0)
(1.03745 0.231184 0)
(1.04412 0.227036 0)
(1.05017 0.222827 0)
(1.05624 0.218161 0)
(1.06259 0.213162 0)
(1.06901 0.208208 0)
(1.07529 0.203458 0)
(1.08121 0.198693 0)
(1.08678 0.193514 0)
(1.09216 0.187838 0)
(1.09764 0.181953 0)
(1.10329 0.176204 0)
(1.10876 0.170724 0)
(1.11384 0.165341 0)
(1.11858 0.159678 0)
(1.12319 0.153501 0)
(0.996053 0.255153 0)
(1.00267 0.252007 0)
(1.0091 0.249115 0)
(1.01523 0.245523 0)
(1.02129 0.241228 0)
(1.02768 0.237216 0)
(1.03442 0.233637 0)
(1.04103 0.229841 0)
(1.047 0.225503 0)
(1.05277 0.220734 0)
(1.05901 0.21598 0)
(1.06558 0.211335 0)
(1.07179 0.20678 0)
(1.07763 0.201905 0)
(1.083 0.196582 0)
(1.08816 0.191039 0)
(1.09375 0.185486 0)
(1.09949 0.180143 0)
(1.10486 0.175005 0)
(1.10995 0.169607 0)
(1.11476 0.163692 0)
(1.11915 0.157581 0)
(0.993466 0.257639 0)
(1.00033 0.254078 0)
(1.00655 0.250737 0)
(1.01222 0.247493 0)
(1.01815 0.243768 0)
(1.02483 0.239924 0)
(1.03159 0.236131 0)
(1.03779 0.232464 0)
(1.04348 0.228264 0)
(1.04938 0.223515 0)
(1.05576 0.218891 0)
(1.06212 0.214539 0)
(1.06827 0.210117 0)
(1.074 0.205128 0)
(1.07918 0.19972 0)
(1.08443 0.194311 0)
(1.09012 0.189193 0)
(1.09592 0.184202 0)
(1.10133 0.179111 0)
(1.10618 0.173625 0)
(1.11062 0.167744 0)
(1.11513 0.1618 0)
(0.990852 0.259619 0)
(0.997608 0.256877 0)
(1.00402 0.253052 0)
(1.00958 0.249208 0)
(1.0155 0.245999 0)
(1.02203 0.24289 0)
(1.02869 0.239086 0)
(1.03483 0.234904 0)
(1.04029 0.230664 0)
(1.04606 0.226406 0)
(1.05254 0.222111 0)
(1.059 0.217674 0)
(1.06477 0.213239 0)
(1.07006 0.208342 0)
(1.07554 0.202944 0)
(1.08097 0.197834 0)
(1.08665 0.193127 0)
(1.09241 0.188325 0)
(1.09758 0.183241 0)
(1.10223 0.177585 0)
(1.10684 0.171644 0)
(1.11154 0.166053 0)
(0.988981 0.260721 0)
(0.994791 0.258797 0)
(1.0009 0.255784 0)
(1.00694 0.251786 0)
(1.01303 0.248314 0)
(1.01933 0.245303 0)
(1.02569 0.241912 0)
(1.03156 0.23774 0)
(1.03715 0.23331 0)
(1.0431 0.229197 0)
(1.04942 0.225269 0)
(1.05566 0.221015 0)
(1.06134 0.216299 0)
(1.06666 0.211237 0)
(1.072 0.206317 0)
(1.07753 0.201738 0)
(1.08345 0.197181 0)
(1.08897 0.192387 0)
(1.0938 0.187154 0)
(1.09833 0.181398 0)
(1.10308 0.175772 0)
(1.10798 0.170599 0)
(0.986701 0.263713 0)
(0.99303 0.259853 0)
(0.998254 0.257458 0)
(1.00386 0.254697 0)
(1.01066 0.251303 0)
(1.01685 0.247524 0)
(1.02265 0.244144 0)
(1.0284 0.240384 0)
(1.03413 0.236384 0)
(1.03995 0.232398 0)
(1.04629 0.228362 0)
(1.05243 0.224091 0)
(1.05783 0.219419 0)
(1.0631 0.214512 0)
(1.06881 0.209834 0)
(1.07455 0.205559 0)
(1.07995 0.201363 0)
(1.08525 0.196415 0)
(1.0901 0.190812 0)
(1.09475 0.185174 0)
(1.09973 0.179975 0)
(1.10462 0.175099 0)
(0.98303 0.268306 0)
(0.98991 0.263928 0)
(0.99647 0.25928 0)
(1.00172 0.25653 0)
(1.0073 0.254046 0)
(1.01401 0.250524 0)
(1.02041 0.246272 0)
(1.02548 0.24267 0)
(1.03097 0.239366 0)
(1.03702 0.235683 0)
(1.04325 0.231596 0)
(1.04899 0.227182 0)
(1.05451 0.222518 0)
(1.06002 0.217916 0)
(1.06563 0.213716 0)
(1.07122 0.209704 0)
(1.07664 0.205218 0)
(1.08178 0.199893 0)
(1.08636 0.194421 0)
(1.09125 0.189272 0)
(1.09636 0.184445 0)
(1.10121 0.179628 0)
(0.980579 0.270639 0)
(0.986341 0.268855 0)
(0.992877 0.264638 0)
(0.999251 0.259812 0)
(1.00509 0.255802 0)
(1.01063 0.253167 0)
(1.01693 0.249713 0)
(1.02328 0.245533 0)
(1.02855 0.241772 0)
(1.03366 0.238517 0)
(1.03991 0.234829 0)
(1.046 0.230357 0)
(1.05129 0.225909 0)
(1.05671 0.221643 0)
(1.06269 0.217582 0)
(1.06834 0.213466 0)
(1.07315 0.208799 0)
(1.07798 0.203397 0)
(1.08309 0.198069 0)
(1.08813 0.193452 0)
(1.09304 0.188974 0)
(1.09782 0.184095 0)
(0.981453 0.27002 0)
(0.985401 0.269761 0)
(0.989417 0.2687 0)
(0.995674 0.265642 0)
(1.00194 0.260365 0)
(1.00828 0.255763 0)
(1.01419 0.252513 0)
(1.01979 0.249587 0)
(1.02571 0.245372 0)
(1.03136 0.240941 0)
(1.0368 0.23726 0)
(1.04239 0.233712 0)
(1.04844 0.22954 0)
(1.05407 0.225225 0)
(1.05955 0.221289 0)
(1.06472 0.217116 0)
(1.06965 0.21209 0)
(1.07464 0.206945 0)
(1.07975 0.20227 0)
(1.08478 0.198009 0)
(1.08988 0.193464 0)
(1.09447 0.188429 0)
(0.982695 0.266017 0)
(0.985717 0.26728 0)
(0.989941 0.268074 0)
(0.993041 0.267017 0)
(0.99817 0.26533 0)
(1.00531 0.26101 0)
(1.01128 0.256666 0)
(1.01724 0.253205 0)
(1.02235 0.24947 0)
(1.0279 0.24514 0)
(1.03422 0.240331 0)
(1.04004 0.236243 0)
(1.04507 0.232869 0)
(1.05083 0.229167 0)
(1.05675 0.224859 0)
(1.06167 0.220145 0)
(1.06601 0.215368 0)
(1.07123 0.210977 0)
(1.07687 0.206632 0)
(1.08199 0.202379 0)
(1.0866 0.197933 0)
(1.09094 0.192696 0)
(0.981867 0.263779 0)
(0.986924 0.262596 0)
(0.99164 0.263053 0)
(0.993483 0.264511 0)
(0.997944 0.265045 0)
(1.00188 0.2637 0)
(1.00824 0.261568 0)
(1.01434 0.257498 0)
(1.01922 0.253647 0)
(1.02479 0.249844 0)
(1.03064 0.245493 0)
(1.03682 0.240837 0)
(1.04268 0.236077 0)
(1.04793 0.232325 0)
(1.05293 0.228456 0)
(1.05803 0.223735 0)
(1.06327 0.218927 0)
(1.0686 0.214731 0)
(1.07378 0.210993 0)
(1.0788 0.206916 0)
(1.08341 0.202092 0)
(1.08787 0.19673 0)
(1.00728 0.217142 0)
(0.993427 0.244696 0)
(0.989836 0.258797 0)
(0.997685 0.25717 0)
(1.00018 0.260396 0)
(1.00261 0.26237 0)
(1.00674 0.262134 0)
(1.01088 0.25974 0)
(1.01711 0.2574 0)
(1.02223 0.253956 0)
(1.02718 0.250637 0)
(1.03324 0.246784 0)
(1.0391 0.241959 0)
(1.0449 0.236774 0)
(1.05011 0.23167 0)
(1.05489 0.227325 0)
(1.06014 0.223403 0)
(1.06568 0.219247 0)
(1.07124 0.215235 0)
(1.07588 0.21078 0)
(1.07979 0.205865 0)
(1.08462 0.201197 0)
(1.04426 0.125269 0)
(1.02327 0.177851 0)
(1.01234 0.214212 0)
(0.998531 0.24521 0)
(1.00165 0.251415 0)
(1.00782 0.253916 0)
(1.00802 0.257987 0)
(1.01005 0.259223 0)
(1.01505 0.257385 0)
(1.02019 0.255281 0)
(1.02581 0.25343 0)
(1.03044 0.250687 0)
(1.03527 0.247686 0)
(1.04112 0.243434 0)
(1.04676 0.237898 0)
(1.05208 0.232558 0)
(1.05712 0.228149 0)
(1.06273 0.22408 0)
(1.06786 0.220241 0)
(1.07262 0.214929 0)
(1.07686 0.209592 0)
(1.08201 0.20558 0)
(1.08714 0.0287999 0)
(1.06971 0.0696599 0)
(1.04702 0.124786 0)
(1.03079 0.174136 0)
(1.01741 0.212384 0)
(1.00817 0.240131 0)
(1.01254 0.244731 0)
(1.01548 0.24939 0)
(1.01499 0.255199 0)
(1.0182 0.25532 0)
(1.02421 0.252323 0)
(1.02921 0.250784 0)
(1.03414 0.249212 0)
(1.03829 0.247038 0)
(1.04273 0.244253 0)
(1.04845 0.240388 0)
(1.05425 0.235026 0)
(1.05955 0.230305 0)
(1.06458 0.225345 0)
(1.06883 0.220021 0)
(1.0741 0.21516 0)
(1.07917 0.211143 0)
(1.09926 0.00169557 0)
(1.09618 0.00875771 0)
(1.08758 0.0293284 0)
(1.07189 0.0685912 0)
(1.05306 0.119854 0)
(1.03788 0.167039 0)
(1.02484 0.20545 0)
(1.01771 0.230603 0)
(1.02202 0.238053 0)
(1.02341 0.244481 0)
(1.02316 0.251507 0)
(1.02689 0.250654 0)
(1.03317 0.246891 0)
(1.0376 0.246139 0)
(1.0419 0.24504 0)
(1.04608 0.24303 0)
(1.05045 0.240552 0)
(1.05616 0.237304 0)
(1.06131 0.231536 0)
(1.06575 0.226702 0)
(1.07086 0.222452 0)
(1.07568 0.217992 0)
(1.09999 1.73627e-05 0)
(1.09991 0.000228726 0)
(1.09927 0.00176408 0)
(1.09652 0.00846157 0)
(1.08915 0.0272685 0)
(1.07583 0.0625379 0)
(1.05972 0.109651 0)
(1.04577 0.155187 0)
(1.03401 0.194579 0)
(1.02793 0.219868 0)
(1.03188 0.230104 0)
(1.03087 0.238612 0)
(1.03109 0.246359 0)
(1.03512 0.244792 0)
(1.04211 0.240925 0)
(1.04606 0.240796 0)
(1.05008 0.240525 0)
(1.0539 0.238457 0)
(1.05778 0.235371 0)
(1.06309 0.23282 0)
(1.06807 0.228864 0)
(1.07269 0.224203 0)
(1.1 2.16609e-08 0)
(1.1 8.60533e-07 0)
(1.09999 1.80247e-05 0)
(1.09992 0.000213538 0)
(1.0994 0.00153339 0)
(1.09719 0.0071841 0)
(1.09132 0.0229943 0)
(1.08065 0.0534772 0)
(1.06746 0.0956179 0)
(1.05512 0.139073 0)
(1.04415 0.178749 0)
(1.0393 0.204316 0)
(1.03992 0.21963 0)
(1.03986 0.229179 0)
(1.03954 0.238939 0)
(1.04368 0.238691 0)
(1.05111 0.234298 0)
(1.05423 0.234242 0)
(1.05731 0.235135 0)
(1.06107 0.233803 0)
(1.06562 0.230166 0)
(1.07039 0.226691 0)
(1.1 2.36801e-12 0)
(1.1 3.28594e-10 0)
(1.1 2.17217e-08 0)
(1.1 7.54584e-07 0)
(1.09999 1.42994e-05 0)
(1.09994 0.000164766 0)
(1.09957 0.0011554 0)
(1.09803 0.00538681 0)
(1.09389 0.0173406 0)
(1.08603 0.0415228 0)
(1.0757 0.0769416 0)
(1.0648 0.117418 0)
(1.05565 0.155487 0)
(1.05006 0.184802 0)
(1.04967 0.203999 0)
(1.04949 0.216293 0)
(1.04836 0.227662 0)
(1.05203 0.229777 0)
(1.05851 0.227053 0)
(1.0626 0.226785 0)
(1.06484 0.228756 0)
(1.06812 0.228158 0)
(1.1 6.69197e-16 0)
(1.1 1.59017e-14 0)
(1.1 2.21651e-12 0)
(1.1 2.62214e-10 0)
(1.1 1.54315e-08 0)
(1.1 5.13332e-07 0)
(1.1 9.2985e-06 0)
(1.09997 0.000102253 0)
(1.09976 0.000706928 0)
(1.09886 0.00334747 0)
(1.0963 0.0112009 0)
(1.09112 0.0283245 0)
(1.08361 0.0557758 0)
(1.07523 0.0903592 0)
(1.06751 0.126166 0)
(1.06189 0.157127 0)
(1.06006 0.180357 0)
(1.05902 0.196925 0)
(1.0587 0.209478 0)
(1.06055 0.216668 0)
(1.06554 0.217429 0)
(1.07062 0.217211 0)
(1.1 1.10176e-15 0)
(1.1 6.89842e-16 0)
(1.1 8.49837e-16 0)
(1.1 1.28111e-14 0)
(1.1 1.39748e-12 0)
(1.1 1.51739e-10 0)
(1.1 8.26901e-09 0)
(1.1 2.47118e-07 0)
(1.1 4.318e-06 0)
(1.09999 4.71945e-05 0)
(1.09989 0.00033762 0)
(1.09947 0.00167731 0)
(1.09816 0.00598265 0)
(1.09532 0.0161713 0)
(1.09071 0.0343307 0)
(1.0849 0.0601089 0)
(1.07892 0.0903355 0)
(1.07405 0.120075 0)
(1.07124 0.14609 0)
(1.07014 0.166263 0)
(1.0695 0.182081 0)
(1.07043 0.193403 0)
(1.1 1.09254e-15 0)
(1.1 7.75724e-16 0)
(1.1 5.90011e-16 0)
(1.1 6.17226e-16 0)
(1.1 7.50892e-16 0)
(1.1 7.71148e-15 0)
(1.1 5.90351e-13 0)
(1.1 5.30858e-11 0)
(1.1 2.71938e-09 0)
(1.1 7.87059e-08 0)
(1.1 1.40557e-06 0)
(1.1 1.58046e-05 0)
(1.09996 0.000119202 0)
(1.09982 0.000626604 0)
(1.09932 0.00240378 0)
(1.09811 0.00708793 0)
(1.09587 0.0165655 0)
(1.09264 0.0320314 0)
(1.08894 0.0527509 0)
(1.08543 0.0762865 0)
(1.08277 0.0999379 0)
(1.08129 0.121261 0)
(1.1 8.74552e-16 0)
(1.1 8.82416e-16 0)
(1.1 4.22686e-16 0)
(1.1 5.69124e-16 0)
(1.1 9.7503e-16 0)
(1.1 5.61035e-16 0)
(1.1 1.12932e-15 0)
(1.1 3.19835e-15 0)
(1.1 1.39597e-13 0)
(1.1 1.09065e-11 0)
(1.1 5.55338e-10 0)
(1.1 1.60173e-08 0)
(1.1 2.92788e-07 0)
(1.1 3.41891e-06 0)
(1.09999 2.73575e-05 0)
(1.09996 0.000156072 0)
(1.09983 0.000658064 0)
(1.09948 0.00214937 0)
(1.09874 0.00557936 0)
(1.09751 0.0119831 0)
(1.09588 0.0218983 0)
(1.09408 0.0350098 0)
(1.1 4.42758e-16 0)
(1.1 9.75307e-16 0)
(1.1 8.39415e-16 0)
(1.1 4.83814e-16 0)
(1.1 4.19744e-16 0)
(1.1 5.90245e-18 0)
(1.1 4.62915e-17 0)
(1.1 4.08973e-16 0)
(1.1 2.53597e-16 0)
(1.1 -2.12808e-16 0)
(1.1 2.43729e-14 0)
(1.1 1.24085e-12 0)
(1.1 6.09039e-11 0)
(1.1 1.77681e-09 0)
(1.1 3.36869e-08 0)
(1.1 4.19418e-07 0)
(1.1 3.62181e-06 0)
(1.09999 2.2526e-05 0)
(1.09998 0.000104332 0)
(1.09992 0.000377431 0)
(1.09978 0.0010893 0)
(1.09952 0.00260287 0)
(1.1 3.48609e-16 0)
(1.1 2.19562e-16 0)
(1.1 4.79708e-16 0)
(1.1 5.98177e-16 0)
(1.1 9.93145e-17 0)
(1.1 -8.58419e-16 0)
(1.1 -1.0334e-15 0)
(1.1 -3.13187e-16 0)
(1.1 -2.32944e-16 0)
(1.1 -5.22909e-16 0)
(1.1 -1.51548e-16 0)
(1.1 -6.78998e-16 0)
(1.1 1.65296e-15 0)
(1.1 7.93642e-14 0)
(1.1 3.12496e-12 0)
(1.1 9.35591e-11 0)
(1.1 1.84603e-09 0)
(1.1 2.4195e-08 0)
(1.1 2.22631e-07 0)
(1.1 1.5066e-06 0)
(1.1 7.62275e-06 0)
(1.09999 3.01768e-05 0)
(1.1 2.66066e-16 0)
(1.1 -3.94785e-16 0)
(1.1 -2.2188e-16 0)
(1.1 -2.06536e-16 0)
(1.1 -2.30257e-16 0)
(1.1 -8.72375e-16 0)
(1.1 -7.72665e-16 0)
(1.1 -7.95334e-16 0)
(1.1 -6.21511e-16 0)
(1.1 -2.7163e-16 0)
(1.1 -6.01615e-17 0)
(1.1 -3.76579e-16 0)
(1.1 -8.931e-16 0)
(1.1 7.57026e-17 0)
(1.1 3.02615e-16 0)
(1.1 3.84246e-15 0)
(1.1 8.07316e-14 0)
(1.1 1.84863e-12 0)
(1.1 3.66018e-11 0)
(1.1 5.0504e-10 0)
(1.1 4.89652e-09 0)
(1.1 3.50003e-08 0)
(1.1 -2.17826e-16 0)