/*--------------------------------*- C++ -*----------------------------------*\
  =========                 |
  \\      /  F ield         | OpenFOAM: The Open Source CFD Toolbox
   \\    /   O peration     | Website:  https://openfoam.org
    \\  /    A nd           | Version:  8
     \\/     M anipulation  |
\*---------------------------------------------------------------------------*/
FoamFile
{
    version     2.0;
    format      ascii;
    class       volScalarField;
    location    "4.7";
    object      p;
}
// * * * * * * * * * * * * * * * * * * * * * * * * * * * * * * * * * * * * * //

dimensions      [1 -1 -2 0 0 0 0];

internalField   nonuniform List<scalar> 
2600
(
1.56256
1.25699
0.905845
0.997971
1.90457
2.56533
2.89837
2.79522
2.89865
2.85937
1.56791
1.24191
0.909211
1.00853
1.88893
2.56753
2.89159
2.79632
2.90438
2.86737
1.5589
1.2331
0.921546
1.01957
1.86635
2.56488
2.87852
2.8102
2.91285
2.87838
1.54007
1.22148
0.931279
1.03982
1.83228
2.53233
2.87335
2.82407
2.92229
2.89061
1.51739
1.21051
0.946127
1.06416
1.78464
2.47873
2.86545
2.83236
2.93245
2.90121
1.49706
1.19776
0.953545
1.08056
1.73396
2.41827
2.82206
2.84229
2.94249
2.90758
1.47408
1.19583
0.973936
1.09381
1.65324
2.36316
2.78219
2.85629
2.953
2.91081
1.45662
1.1965
1.00683
1.11446
1.60612
2.30596
2.73987
2.87602
2.96239
2.91465
1.43836
1.19796
1.04133
1.14657
1.57623
2.22425
2.69634
2.89612
2.96949
2.91734
1.42299
1.20735
1.08387
1.20368
1.55715
2.1365
2.66106
2.93433
2.97945
2.92326
1.40372
1.21575
1.13292
1.27881
1.55505
2.05764
2.64306
2.95471
2.97642
2.92568
1.38477
1.2266
1.18878
1.3583
1.54847
1.9865
2.63023
2.97701
2.98618
2.92854
1.36413
1.23364
1.25543
1.44355
1.55481
1.92395
2.62758
2.9937
2.98482
2.93014
1.3392
1.24292
1.3142
1.51926
1.56428
1.86871
2.63065
2.99955
3.00401
2.9284
1.31251
1.25466
1.37749
1.59275
1.58972
1.83207
2.63814
3.00791
3.01269
2.92666
1.2742
1.2744
1.43401
1.64427
1.60972
1.80698
2.65024
3.0087
3.02588
2.92113
1.24329
1.29943
1.49111
1.68326
1.62666
1.79364
2.66676
3.00771
3.02811
2.91609
1.21805
1.32513
1.5435
1.70478
1.63405
1.80726
2.68691
3.00356
3.03315
2.91205
1.22477
1.34391
1.58006
1.71797
1.62945
1.83601
2.70615
2.99614
3.03313
2.90654
1.187
1.36149
1.59489
1.7286
1.62056
1.84593
2.718
2.98434
3.03161
2.8997
1.44942
1.37458
1.58437
1.73483
1.61044
1.81787
2.71974
2.97186
3.03162
2.89088
1.73995
1.40756
1.57322
1.73731
1.60593
1.76656
2.71405
2.96536
3.03125
2.8784
1.9934
1.44189
1.5671
1.72103
1.59548
1.72968
2.7016
2.96505
3.03385
2.86726
2.18235
1.4897
1.58634
1.69846
1.58392
1.73178
2.68676
2.96632
3.03343
2.85731
2.34864
1.54801
1.6003
1.68158
1.60534
1.78025
2.68118
2.97178
3.02937
2.84273
2.49128
1.60989
1.61541
1.69216
1.65959
1.86877
2.69358
2.98736
3.02033
2.82817
2.63888
1.68959
1.62821
1.71025
1.70035
1.91484
2.71487
3.01332
3.00756
2.81746
2.77608
1.76901
1.6444
1.72823
1.70952
1.91252
2.7153
3.03756
2.99136
2.80654
2.91372
1.86728
1.6702
1.75224
1.70155
1.87743
2.6808
3.04611
2.97418
2.79279
3.03621
1.96706
1.70004
1.7862
1.70343
1.84853
2.63012
3.03532
2.95584
2.77708
3.15139
2.08185
1.74759
1.83308
1.72522
1.84035
2.56861
3.01014
2.93731
2.76242
3.24898
2.20613
1.81209
1.88203
1.76571
1.85958
2.52173
2.97621
2.92191
2.74986
3.33491
2.33623
1.90356
1.93472
1.81655
1.89317
2.47573
2.95459
2.90973
2.73863
3.43623
2.47676
2.01841
1.98441
1.86786
1.92736
2.42692
2.93806
2.89919
2.72673
3.4975
2.62224
2.15103
2.04335
1.91903
1.94766
2.37397
2.93117
2.88194
2.71262
3.57646
2.77339
2.28966
2.11851
1.97917
1.96138
2.31356
2.90582
2.86885
2.69783
3.66563
2.92067
2.42803
2.2121
2.04437
1.97258
2.24513
2.866
2.85268
2.68544
3.76495
3.0644
2.566
2.32046
2.11507
1.98595
2.18165
2.80833
2.83477
2.67129
3.87405
3.19895
2.70134
2.43862
2.19143
2.00769
2.13481
2.73464
2.81844
2.65448
3.98627
3.33768
2.84036
2.56261
2.27078
2.03992
2.10992
2.64909
2.80077
2.62955
5.99491
5.95085
5.73928
5.56621
5.42964
5.31655
5.19094
5.01415
4.71783
4.31448
5.43867
5.57718
5.42319
5.3581
5.28861
5.20516
5.07887
4.87996
4.5518
4.02498
5.19672
5.5213
5.42932
5.40223
5.33
5.23513
5.09202
4.88141
4.55495
3.99579
4.8279
5.40782
5.35909
5.33052
5.25886
5.1716
5.02692
4.82238
4.49964
3.94808
4.42731
5.29436
5.38613
5.37082
5.28593
5.18397
5.01611
4.81133
4.48184
3.95351
3.23217
5.08698
5.39081
5.33844
5.26149
5.1476
4.97681
4.78146
4.44346
3.98675
2.17312
3.87384
5.47719
5.35609
5.26733
5.15969
4.98371
4.79153
4.42839
4.06324
1.64399
2.20206
4.58886
5.45496
5.29084
5.16225
4.99742
4.80761
4.44135
4.14026
1.45938
1.51592
2.76344
5.09624
5.31934
5.18313
5.00323
4.81397
4.48907
4.21067
1.36812
1.38182
1.53836
3.80319
5.27929
5.20174
5.04187
4.84884
4.54659
4.27994
1.30589
1.32331
1.34197
1.97237
4.70656
5.19751
5.05702
4.8787
4.60991
4.3453
1.25362
1.26966
1.28359
1.33402
3.16125
5.10998
5.07916
4.89331
4.63827
4.38004
1.21058
1.22094
1.23426
1.24586
1.64602
4.36705
5.08751
4.91038
4.66789
4.4211
1.17659
1.18696
1.19852
1.21118
1.2441
2.86019
4.93995
4.89131
4.68958
4.44773
1.15132
1.16017
1.17168
1.18512
1.19543
1.55763
4.27794
4.93692
4.71898
4.46369
1.13096
1.13724
1.14663
1.15682
1.1675
1.20213
2.95637
4.79655
4.70262
4.46517
1.11442
1.11958
1.12617
1.13462
1.1457
1.15633
1.67072
4.3739
4.73059
4.50003
1.10293
1.10737
1.11236
1.11948
1.12789
1.13666
1.20639
3.32267
4.67405
4.51049
1.09406
1.09797
1.10257
1.10847
1.11524
1.12353
1.13702
2.07863
4.30624
4.48141
1.08684
1.09015
1.09446
1.0994
1.10537
1.11257
1.1199
1.3374
3.63188
4.49885
1.00189
1.00588
1.0103
1.01517
1.02061
1.02663
1.03332
1.04139
1.04762
2.14842
1.00189
1.00588
1.0103
1.01517
1.02061
1.02663
1.03332
1.04139
1.04766
2.08766
1.00189
1.00588
1.0103
1.01517
1.02061
1.02663
1.03331
1.04138
1.0477
1.98974
1.00189
1.00588
1.0103
1.01517
1.02061
1.02663
1.03331
1.04138
1.04773
1.86254
1.00189
1.00588
1.0103
1.01517
1.0206
1.02663
1.0333
1.04139
1.04764
1.71568
1.00189
1.00588
1.0103
1.01517
1.0206
1.02663
1.03329
1.0414
1.04758
1.56271
1.00189
1.00588
1.0103
1.01517
1.0206
1.02664
1.03329
1.04141
1.04755
1.45062
1.00189
1.00588
1.0103
1.01517
1.0206
1.02664
1.03328
1.04141
1.04756
1.36806
1.00189
1.00588
1.0103
1.01517
1.0206
1.02664
1.03328
1.04142
1.04757
1.30284
1.00189
1.00588
1.0103
1.01517
1.0206
1.02664
1.03328
1.04142
1.0476
1.25561
1.00189
1.00588
1.0103
1.01518
1.0206
1.02664
1.03328
1.04142
1.04763
1.21179
1.00189
1.00588
1.0103
1.01518
1.0206
1.02664
1.03328
1.04141
1.04766
1.17465
1.00189
1.00589
1.0103
1.01518
1.0206
1.02664
1.03328
1.0414
1.0477
1.15244
1.00189
1.00589
1.0103
1.01518
1.02059
1.02664
1.03328
1.04139
1.04775
1.12899
1.00189
1.00589
1.0103
1.01518
1.02059
1.02664
1.03328
1.04137
1.04781
1.11029
1.00189
1.00589
1.0103
1.01518
1.02059
1.02664
1.03328
1.04135
1.04788
1.09884
1.00189
1.00589
1.0103
1.01518
1.02059
1.02664
1.03328
1.04133
1.04795
1.08948
1.00189
1.00589
1.0103
1.01518
1.02059
1.02664
1.03328
1.04131
1.04804
1.08212
1.00189
1.00589
1.0103
1.01518
1.02059
1.02664
1.03328
1.04128
1.04813
1.0761
1.00189
1.00589
1.0103
1.01518
1.02059
1.02664
1.03329
1.04126
1.04824
1.07149
1.00189
1.00589
1.0103
1.01518
1.02059
1.02664
1.03329
1.04126
1.04824
1.0715
1.00189
1.00589
1.0103
1.01518
1.02059
1.02664
1.03328
1.04128
1.04813
1.07612
1.00189
1.00589
1.0103
1.01518
1.02059
1.02664
1.03328
1.04131
1.04804
1.08214
1.00189
1.00589
1.0103
1.01518
1.02059
1.02664
1.03328
1.04133
1.04795
1.0895
1.00189
1.00589
1.0103
1.01518
1.02059
1.02664
1.03328
1.04135
1.04788
1.09887
1.00189
1.00589
1.0103
1.01518
1.02059
1.02664
1.03328
1.04137
1.04781
1.11031
1.00189
1.00589
1.0103
1.01518
1.02059
1.02664
1.03328
1.04139
1.04775
1.12902
1.00189
1.00589
1.0103
1.01518
1.0206
1.02664
1.03328
1.0414
1.0477
1.15249
1.00189
1.00588
1.0103
1.01518
1.0206
1.02664
1.03328
1.04141
1.04766
1.17468
1.00189
1.00588
1.0103
1.01518
1.0206
1.02664
1.03328
1.04142
1.04762
1.21181
1.00189
1.00588
1.0103
1.01517
1.0206
1.02664
1.03328
1.04142
1.0476
1.25562
1.00189
1.00588
1.0103
1.01517
1.0206
1.02664
1.03328
1.04142
1.04757
1.30281
1.00189
1.00588
1.0103
1.01517
1.0206
1.02664
1.03328
1.04141
1.04756
1.36794
1.00189
1.00588
1.0103
1.01517
1.0206
1.02664
1.03329
1.04141
1.04755
1.45039
1.00189
1.00588
1.0103
1.01517
1.0206
1.02663
1.03329
1.0414
1.04758
1.5623
1.00189
1.00588
1.0103
1.01517
1.0206
1.02663
1.0333
1.04139
1.04764
1.71504
1.00189
1.00588
1.0103
1.01517
1.02061
1.02663
1.03331
1.04138
1.04773
1.86189
1.00189
1.00588
1.0103
1.01517
1.02061
1.02663
1.03331
1.04138
1.0477
1.98914
1.00189
1.00588
1.0103
1.01517
1.02061
1.02663
1.03332
1.04139
1.04766
2.08717
1.00189
1.00588
1.0103
1.01517
1.02061
1.02663
1.03332
1.04139
1.04765
2.14814
1.08685
1.09017
1.09448
1.09942
1.1054
1.1126
1.11991
1.33231
3.61312
4.48382
1.09409
1.098
1.1026
1.1085
1.11527
1.12358
1.13696
2.06324
4.29539
4.46795
1.10296
1.1074
1.11239
1.11952
1.12793
1.13672
1.20493
3.30144
4.66165
4.49655
1.11445
1.11962
1.1262
1.13467
1.14577
1.15637
1.66216
4.35432
4.72131
4.48657
1.131
1.13728
1.14668
1.15689
1.1676
1.20161
2.93804
4.7842
4.69359
4.45144
1.15136
1.16023
1.17175
1.1852
1.19551
1.55109
4.26051
4.92636
4.7102
4.45043
1.17666
1.18704
1.19861
1.21129
1.24374
2.84203
4.92727
4.88222
4.68281
4.43693
1.21064
1.221
1.23433
1.24592
1.64021
4.3495
5.07762
4.90304
4.66511
4.41593
1.25369
1.26973
1.2837
1.33353
3.14556
5.09705
5.07159
4.88753
4.63888
4.3845
1.30598
1.32342
1.34204
1.96591
4.69345
5.18884
5.0494
4.87339
4.61397
4.34588
1.36815
1.38187
1.53686
3.79039
5.27014
5.19325
5.03448
4.85031
4.55598
4.28865
1.45933
1.5156
2.75543
5.08662
5.31044
5.17526
4.99786
4.81678
4.50423
4.22895
1.64352
2.19845
4.58009
5.44715
5.28302
5.15525
4.99419
4.81477
4.46005
4.16631
2.17107
3.86669
5.47029
5.34863
5.26
5.15406
4.98389
4.8015
4.45348
4.0993
3.22805
5.08117
5.38469
5.33157
5.25543
5.1428
4.98035
4.79278
4.47432
4.03289
4.42323
5.28953
5.38043
5.3645
5.28085
5.17972
5.01995
4.82432
4.51414
4.01098
4.82452
5.4038
5.35395
5.32482
5.25394
5.16838
5.02983
4.83632
4.53265
4.01562
5.19362
5.51791
5.42459
5.39686
5.32506
5.23195
5.09421
4.89409
4.58804
4.07374
5.43633
5.57429
5.41908
5.35315
5.28369
5.20166
5.07979
4.89092
4.58426
4.10674
5.99301
5.94849
5.73624
5.56234
5.42553
5.31312
5.19054
5.02133
4.74263
4.38723
4.00246
3.34788
2.79153
2.43089
2.25
2.30332
2.38909
2.69463
2.81424
2.69689
3.89669
3.21418
2.63958
2.28411
2.18772
2.29697
2.44109
2.76497
2.84172
2.72379
3.79659
3.08364
2.49066
2.14084
2.12272
2.29267
2.49512
2.8051
2.86725
2.73524
3.70718
2.94009
2.34089
1.999
2.06066
2.29975
2.54958
2.83381
2.86785
2.74023
3.63232
2.78718
2.19635
1.86231
1.99763
2.31448
2.59811
2.82967
2.85527
2.74221
3.56721
2.62503
2.05323
1.74782
1.93353
2.3371
2.63525
2.80978
2.84311
2.74765
3.52303
2.46455
1.91226
1.64813
1.86906
2.36646
2.65491
2.80589
2.84374
2.75669
3.44243
2.30311
1.7735
1.56795
1.81547
2.39603
2.67657
2.80781
2.84789
2.76521
3.37062
2.15931
1.63144
1.50036
1.77322
2.42611
2.69994
2.80863
2.85307
2.77371
3.28378
2.0253
1.49673
1.44785
1.75004
2.45665
2.70982
2.81281
2.86128
2.78136
3.17677
1.91431
1.36653
1.40015
1.74519
2.48601
2.72377
2.82187
2.87116
2.78866
3.05604
1.82696
1.26204
1.34932
1.75699
2.51326
2.74427
2.83885
2.88431
2.7967
2.91835
1.7376
1.18447
1.29583
1.77879
2.53349
2.76421
2.85857
2.89674
2.80501
2.78081
1.65749
1.13664
1.2486
1.80409
2.54789
2.78517
2.87719
2.90228
2.81251
2.63539
1.57158
1.09852
1.20637
1.83389
2.55527
2.80418
2.87885
2.90005
2.81827
2.49644
1.49296
1.07238
1.16474
1.86145
2.55677
2.8273
2.85775
2.89505
2.82278
2.34021
1.4134
1.05029
1.12433
1.8879
2.55218
2.8556
2.83612
2.8927
2.8279
2.17179
1.34227
1.02133
1.07197
1.90331
2.53845
2.87707
2.82025
2.89424
2.83442
1.96788
1.2853
0.994988
1.02786
1.90682
2.53814
2.89303
2.80662
2.89551
2.84212
1.76232
1.2424
0.942735
0.998494
1.90735
2.54861
2.90322
2.79348
2.89542
2.85079
1.2201
4.89814
5.37049
4.69329
4.07454
3.53054
3.00973
2.50103
1.95358
1.62853
1.22639
4.91092
5.35705
4.675
4.06286
3.52329
3.00191
2.49189
1.95407
1.6398
1.24646
4.93345
5.33221
4.6553
4.05437
3.50923
2.98761
2.47618
1.95581
1.64265
1.28467
4.96719
5.28844
4.62291
4.03481
3.48978
2.96676
2.45387
1.95825
1.6535
1.3395
5.00484
5.22854
4.57917
4.01052
3.46413
2.93861
2.42486
1.962
1.67188
1.41006
5.04386
5.15394
4.52738
3.97662
3.42983
2.9018
2.38959
1.96522
1.69703
1.48932
5.08283
5.07289
4.47204
3.93447
3.38909
2.85867
2.35056
1.96696
1.73116
1.57951
5.11898
4.99076
4.41499
3.88316
3.34045
2.80902
2.30967
1.96679
1.77671
1.68694
5.14973
4.90947
4.35041
3.82279
3.28527
2.75453
2.26897
1.96487
1.83655
1.82155
5.17409
4.82853
4.27727
3.75254
3.22312
2.69574
2.23126
1.96397
1.91014
1.99357
5.18576
4.74458
4.19246
3.67124
3.15343
2.63286
2.19958
1.97175
1.994
2.1877
5.19532
4.65512
4.09247
3.57724
3.07498
2.56527
2.17821
1.99558
2.08501
2.38357
5.16943
4.55673
3.9821
3.47213
2.98677
2.4912
2.16922
2.04074
2.17659
2.609
5.07602
4.46751
3.86533
3.35637
2.88725
2.41227
2.16919
2.11433
2.26632
2.86173
4.92631
4.35973
3.73195
3.22748
2.77358
2.34222
2.17844
2.21719
2.3528
3.15822
4.70581
4.21078
3.5655
3.10086
2.67645
2.29281
2.19248
2.34557
2.42848
3.61287
4.41123
3.97848
3.38574
2.92613
2.52176
2.26461
2.23047
2.48996
2.49351
4.07157
4.09351
3.6728
3.16753
2.7605
2.40933
2.26087
2.30295
2.61094
2.5525
4.2551
3.78731
3.33833
2.9308
2.56873
2.34711
2.28461
2.41292
2.70162
2.60584
4.13971
3.52448
3.01526
2.65019
2.37933
2.30874
2.3319
2.56486
2.76584
2.65666
4.13575
3.51786
3.05172
2.75053
2.40453
2.10836
2.11806
2.51295
2.76647
2.58976
4.25304
3.78913
3.36683
2.99284
2.59474
2.20225
2.15476
2.37154
2.71025
2.54468
4.07179
4.10185
3.69862
3.22241
2.77808
2.3361
2.19811
2.28147
2.63111
2.50521
3.61652
4.41906
4.0051
3.41854
2.93621
2.48026
2.24566
2.23144
2.53883
2.46429
3.16605
4.71466
4.23112
3.62677
3.10469
2.61115
2.29113
2.20369
2.43001
2.41798
2.87331
4.9335
4.38494
3.76406
3.26356
2.75071
2.33827
2.1934
2.31753
2.36404
2.61951
5.08221
4.4934
3.90182
3.38834
2.87154
2.39654
2.18892
2.21075
2.29957
2.39057
5.18019
4.58115
4.01936
3.50369
2.9763
2.46299
2.19452
2.1248
2.22758
2.18888
5.20984
4.67886
4.12718
3.60545
3.06888
2.53221
2.20817
2.06474
2.15326
1.99216
5.19933
4.76686
4.223
3.69488
3.15195
2.60356
2.22004
2.02724
2.07887
1.81857
5.18533
4.8483
4.30249
3.77184
3.22559
2.67421
2.24049
2.00584
2.00253
1.68261
5.16034
4.92731
4.37026
3.83827
3.28976
2.74091
2.26926
1.99165
1.92309
1.57405
5.12759
5.00585
4.42991
3.89437
3.34409
2.79984
2.30448
1.98646
1.84283
1.48409
5.08802
5.0826
4.48195
3.94008
3.38937
2.8506
2.34213
1.97982
1.77123
1.40581
5.04566
5.15804
4.53186
3.97608
3.4246
2.89224
2.37903
1.97052
1.71415
1.33765
5.00313
5.22491
4.57726
4.00438
3.45352
2.92656
2.41405
1.96252
1.66972
1.28492
4.96276
5.27832
4.61522
4.02583
3.47627
2.9531
2.4441
1.9543
1.63735
1.24805
4.92832
5.31796
4.64372
4.04274
3.493
2.97298
2.46822
1.95068
1.61606
1.22857
4.90558
5.34014
4.6609
4.04991
3.50558
2.98676
2.48593
1.94961
1.60429
1.22281
4.89313
5.35223
4.67464
4.06252
3.51323
2.99474
2.49681
1.94999
1.59073
1.08021
1.08277
1.08625
1.09013
1.09514
1.10086
1.10677
1.13088
2.13865
4.13193
1.07461
1.07651
1.07886
1.08175
1.08528
1.08961
1.095
1.09955
1.22073
2.91519
1.07098
1.07252
1.07427
1.07649
1.07892
1.08219
1.08601
1.09005
1.09642
1.6235
1.06852
1.06981
1.07134
1.0731
1.07511
1.0775
1.08033
1.08411
1.0867
1.14095
1.06695
1.06805
1.06935
1.07082
1.07254
1.07446
1.07675
1.07957
1.08253
1.08589
1.06594
1.06692
1.06805
1.06932
1.07079
1.07244
1.07437
1.07654
1.0795
1.08136
1.0653
1.06621
1.06724
1.06838
1.06968
1.07112
1.07281
1.07463
1.07718
1.07896
1.06492
1.06578
1.06674
1.0678
1.06898
1.07029
1.07181
1.07342
1.07561
1.07719
1.06469
1.06551
1.06643
1.06744
1.06856
1.06978
1.07117
1.07265
1.0746
1.076
1.06456
1.06537
1.06626
1.06723
1.0683
1.06947
1.07079
1.07218
1.07397
1.07525
1.06449
1.06529
1.06616
1.06711
1.06815
1.06929
1.07055
1.0719
1.07358
1.07479
1.06448
1.06526
1.06612
1.06705
1.06808
1.06919
1.07042
1.07173
1.07334
1.0745
1.06449
1.06527
1.06612
1.06704
1.06805
1.06914
1.07035
1.07163
1.0732
1.07433
1.06451
1.06528
1.06613
1.06705
1.06805
1.06913
1.07032
1.07158
1.07312
1.07422
1.06453
1.0653
1.06614
1.06706
1.06805
1.06913
1.07031
1.07157
1.07308
1.07417
1.06455
1.06532
1.06616
1.06707
1.06806
1.06913
1.07031
1.07156
1.07307
1.07416
1.06456
1.06533
1.06618
1.06709
1.06808
1.06915
1.07032
1.07157
1.07307
1.07415
1.06456
1.06534
1.06618
1.06709
1.06809
1.06916
1.07034
1.07158
1.07308
1.07416
1.06457
1.06534
1.06619
1.0671
1.0681
1.06918
1.07036
1.0716
1.0731
1.07418
1.06454
1.06532
1.06617
1.0671
1.0681
1.06918
1.07037
1.07162
1.07313
1.07421
1.00189
1.00589
1.0103
1.01518
1.02059
1.02664
1.03329
1.04122
1.04837
1.06768
1.00189
1.00589
1.0103
1.01518
1.02059
1.02664
1.0333
1.04118
1.04854
1.06472
1.00189
1.00589
1.0103
1.01518
1.02059
1.02664
1.0333
1.04114
1.0487
1.06262
1.00189
1.00589
1.0103
1.01518
1.02059
1.02664
1.03331
1.0411
1.04885
1.06113
1.00189
1.00589
1.0103
1.01518
1.02059
1.02664
1.03331
1.04107
1.04897
1.06029
1.00189
1.00589
1.0103
1.01518
1.02059
1.02664
1.03332
1.04105
1.04908
1.05975
1.00189
1.00589
1.0103
1.01518
1.02059
1.02664
1.03332
1.04104
1.04916
1.05942
1.00189
1.00589
1.01029
1.01518
1.02059
1.02664
1.03332
1.04104
1.04923
1.05922
1.00189
1.00589
1.01029
1.01518
1.02059
1.02665
1.03332
1.04104
1.04928
1.05911
1.00189
1.00589
1.01029
1.01518
1.02059
1.02665
1.03332
1.04104
1.04932
1.05906
1.00189
1.00589
1.01029
1.01518
1.02059
1.02665
1.03332
1.04103
1.04936
1.05903
1.00189
1.00589
1.01029
1.01518
1.02059
1.02665
1.03333
1.04101
1.04939
1.05904
1.00189
1.00589
1.01029
1.01518
1.02059
1.02665
1.03333
1.04099
1.04942
1.05906
1.00189
1.00589
1.01029
1.01518
1.02059
1.02665
1.03334
1.04097
1.04944
1.05908
1.00189
1.00589
1.01029
1.01518
1.02059
1.02664
1.03335
1.04094
1.04945
1.05911
1.00189
1.00589
1.01029
1.01518
1.02059
1.02664
1.03336
1.04092
1.04946
1.05912
1.00189
1.00589
1.01029
1.01518
1.02059
1.02664
1.03337
1.04091
1.04947
1.05913
1.00189
1.00589
1.01029
1.01518
1.02059
1.02664
1.03337
1.0409
1.04948
1.05914
1.00189
1.00589
1.01029
1.01518
1.02059
1.02663
1.03338
1.04089
1.04947
1.05914
1.00189
1.00589
1.01029
1.01518
1.02059
1.02663
1.03338
1.04088
1.04949
1.05912
1.00189
1.00589
1.01029
1.01518
1.02059
1.02663
1.03338
1.04088
1.04949
1.05912
1.00189
1.00589
1.01029
1.01518
1.02059
1.02663
1.03338
1.04089
1.04947
1.05914
1.00189
1.00589
1.01029
1.01518
1.02059
1.02664
1.03337
1.0409
1.04948
1.05914
1.00189
1.00589
1.01029
1.01518
1.02059
1.02664
1.03337
1.04091
1.04947
1.05913
1.00189
1.00589
1.01029
1.01518
1.02059
1.02664
1.03336
1.04092
1.04946
1.05912
1.00189
1.00589
1.01029
1.01518
1.02059
1.02664
1.03335
1.04094
1.04945
1.05911
1.00189
1.00589
1.01029
1.01518
1.02059
1.02665
1.03334
1.04097
1.04944
1.05908
1.00189
1.00589
1.01029
1.01518
1.02059
1.02665
1.03333
1.04099
1.04942
1.05906
1.00189
1.00589
1.01029
1.01518
1.02059
1.02665
1.03333
1.04101
1.04939
1.05904
1.00189
1.00589
1.01029
1.01518
1.02059
1.02665
1.03332
1.04103
1.04936
1.05903
1.00189
1.00589
1.01029
1.01518
1.02059
1.02665
1.03332
1.04104
1.04932
1.05906
1.00189
1.00589
1.01029
1.01518
1.02059
1.02665
1.03332
1.04104
1.04928
1.05911
1.00189
1.00589
1.01029
1.01518
1.02059
1.02664
1.03332
1.04104
1.04923
1.05922
1.00189
1.00589
1.0103
1.01518
1.02059
1.02664
1.03332
1.04104
1.04916
1.05942
1.00189
1.00589
1.0103
1.01518
1.02059
1.02664
1.03332
1.04105
1.04908
1.05975
1.00189
1.00589
1.0103
1.01518
1.02059
1.02664
1.03331
1.04107
1.04897
1.06029
1.00189
1.00589
1.0103
1.01518
1.02059
1.02664
1.03331
1.0411
1.04885
1.06113
1.00189
1.00589
1.0103
1.01518
1.02059
1.02664
1.0333
1.04114
1.0487
1.06262
1.00189
1.00589
1.0103
1.01518
1.02059
1.02664
1.0333
1.04118
1.04854
1.06472
1.00189
1.00589
1.0103
1.01518
1.02059
1.02664
1.03329
1.04122
1.04837
1.06769
1.06454
1.06532
1.06618
1.0671
1.0681
1.06918
1.07037
1.07162
1.07313
1.07421
1.06457
1.06534
1.06619
1.0671
1.0681
1.06918
1.07036
1.0716
1.0731
1.07418
1.06457
1.06534
1.06618
1.06709
1.06809
1.06916
1.07034
1.07158
1.07308
1.07416
1.06456
1.06533
1.06618
1.06709
1.06808
1.06915
1.07032
1.07157
1.07307
1.07415
1.06455
1.06532
1.06616
1.06707
1.06806
1.06913
1.07031
1.07156
1.07307
1.07416
1.06453
1.0653
1.06614
1.06706
1.06805
1.06913
1.07031
1.07157
1.07308
1.07417
1.06451
1.06528
1.06613
1.06705
1.06805
1.06913
1.07032
1.07158
1.07312
1.07422
1.06449
1.06527
1.06612
1.06704
1.06805
1.06914
1.07035
1.07163
1.0732
1.07433
1.06448
1.06526
1.06612
1.06705
1.06807
1.06919
1.07042
1.07173
1.07334
1.0745
1.06449
1.06529
1.06616
1.06711
1.06815
1.06929
1.07055
1.0719
1.07357
1.07479
1.06456
1.06537
1.06626
1.06723
1.0683
1.06947
1.07079
1.07218
1.07397
1.07525
1.06469
1.06551
1.06643
1.06744
1.06856
1.06978
1.07117
1.07265
1.0746
1.076
1.06492
1.06578
1.06674
1.06779
1.06898
1.07029
1.0718
1.07342
1.07561
1.07719
1.0653
1.06621
1.06724
1.06838
1.06967
1.07112
1.07281
1.07463
1.07717
1.07896
1.06594
1.06692
1.06805
1.06932
1.07079
1.07244
1.07437
1.07654
1.0795
1.08136
1.06695
1.06805
1.06935
1.07082
1.07254
1.07446
1.07675
1.07956
1.08254
1.08585
1.06852
1.06981
1.07134
1.0731
1.07511
1.0775
1.08033
1.08411
1.0867
1.13936
1.07098
1.07252
1.07427
1.07649
1.07892
1.0822
1.08601
1.09007
1.09636
1.6126
1.07461
1.07652
1.07886
1.08176
1.08529
1.08961
1.09501
1.09955
1.21819
2.89491
1.08022
1.08278
1.08626
1.09014
1.09515
1.10087
1.10679
1.13041
2.12422
4.11321
)
;

boundaryField
{
    inlet
    {
        type            fixedValue;
        value           uniform 1;
    }
    outlet
    {
        type            zeroGradient;
    }
    triangle
    {
        type            zeroGradient;
    }
    top
    {
        type            symmetryPlane;
    }
    bottom
    {
        type            symmetryPlane;
    }
    defaultFaces
    {
        type            empty;
    }
}


// ************************************************************************* //
