/*--------------------------------*- C++ -*----------------------------------*\
  =========                 |
  \\      /  F ield         | OpenFOAM: The Open Source CFD Toolbox
   \\    /   O peration     | Website:  https://openfoam.org
    \\  /    A nd           | Version:  8
     \\/     M anipulation  |
\*---------------------------------------------------------------------------*/
FoamFile
{
    version     2.0;
    format      ascii;
    class       volScalarField;
    location    "4.7";
    object      rho;
}
// * * * * * * * * * * * * * * * * * * * * * * * * * * * * * * * * * * * * * //

dimensions      [1 -3 0 0 0 0 0];

internalField   nonuniform List<scalar> 
2600
(
1.17757
1.00296
0.866292
1.00294
1.69955
1.91155
2.02915
2.09897
2.43287
2.45575
1.15823
0.988975
0.8626
0.986836
1.63516
1.86058
2.01351
2.07192
2.40737
2.43305
1.15632
0.986098
0.861099
0.970241
1.55828
1.82232
2.0064
2.07317
2.38725
2.41235
1.15286
0.979611
0.845259
0.954842
1.47457
1.78585
2.00964
2.08481
2.37119
2.39307
1.14619
0.96955
0.823712
0.935431
1.39246
1.74919
2.01713
2.09935
2.35728
2.37353
1.13808
0.958595
0.804858
0.911828
1.32757
1.71543
2.00726
2.11321
2.34256
2.35204
1.1266
0.956016
0.806338
0.89775
1.26535
1.6904
1.99632
2.124
2.32514
2.32921
1.11694
0.956778
0.827118
0.900473
1.23001
1.66406
1.98284
2.1332
2.30316
2.30769
1.10584
0.958932
0.854192
0.917373
1.2102
1.62064
1.96978
2.14028
2.27723
2.28744
1.09559
0.965428
0.885325
0.954314
1.20172
1.56973
1.9636
2.16096
2.25404
2.27179
1.08285
0.97034
0.918204
1.00465
1.20392
1.52237
1.97068
2.17626
2.2298
2.25726
1.07027
0.975675
0.953038
1.05692
1.19924
1.48116
1.98629
2.19692
2.2203
2.24604
1.05729
0.978757
0.992517
1.10957
1.19864
1.44826
2.01337
2.22025
2.21151
2.23784
1.04282
0.98398
1.02672
1.15323
1.19582
1.425
2.04862
2.24323
2.2189
2.23237
1.02804
0.991501
1.06311
1.19178
1.2034
1.41683
2.08869
2.27294
2.22486
2.22986
1.00654
1.00421
1.09609
1.21879
1.2167
1.41885
2.12988
2.30389
2.23541
2.22755
0.988167
1.02107
1.13077
1.2433
1.23643
1.43168
2.17146
2.3385
2.24502
2.22925
0.974569
1.0406
1.16526
1.26192
1.26227
1.4655
2.2145
2.37454
2.2638
2.23786
0.987602
1.06694
1.19504
1.27766
1.28542
1.51405
2.25811
2.40959
2.2887
2.25534
0.998784
1.11455
1.22588
1.29545
1.30374
1.55732
2.29931
2.44028
2.32294
2.28389
1.24257
1.18182
1.27029
1.32511
1.32982
1.58648
2.34016
2.47062
2.37344
2.32769
1.51016
1.26579
1.33412
1.37874
1.37969
1.60776
2.37732
2.5053
2.43629
2.38119
1.74613
1.34562
1.40157
1.44494
1.44146
1.63596
2.40497
2.54026
2.50109
2.43378
1.93685
1.43003
1.4777
1.51361
1.50231
1.68456
2.42646
2.57253
2.5571
2.47816
2.11367
1.51997
1.54032
1.57318
1.57353
1.75831
2.4507
2.60447
2.60105
2.50792
2.27686
1.6127
1.59324
1.63352
1.65557
1.85439
2.48554
2.64128
2.63357
2.5277
2.44511
1.71964
1.63707
1.68864
1.72088
1.91715
2.52728
2.68478
2.6584
2.54421
2.60327
1.82533
1.68126
1.73933
1.75977
1.94321
2.55563
2.72894
2.67874
2.55891
2.75195
1.94213
1.73301
1.7932
1.78373
1.94393
2.56098
2.76564
2.69845
2.57265
2.8757
2.05306
1.78954
1.85267
1.81311
1.94754
2.55343
2.79179
2.71867
2.58698
2.9804
2.16914
1.85768
1.9204
1.85644
1.96523
2.5353
2.80889
2.7399
2.60376
3.06165
2.28845
1.93488
1.98775
1.91265
2.00263
2.5249
2.81886
2.7628
2.62294
3.12431
2.40549
2.03189
2.05556
1.97461
2.04901
2.51239
2.83374
2.78612
2.64267
3.18879
2.52175
2.14732
2.11669
2.0338
2.09363
2.49404
2.84653
2.80683
2.66025
3.21919
2.6329
2.26915
2.18085
2.09065
2.12652
2.46776
2.85938
2.81747
2.6735
3.25879
2.74062
2.3852
2.25381
2.1502
2.15117
2.42984
2.85477
2.82476
2.6822
3.3034
2.83921
2.49258
2.33483
2.20947
2.16629
2.38098
2.83325
2.82381
2.68764
3.35395
2.93043
2.59337
2.42084
2.26892
2.17795
2.33187
2.79074
2.81613
2.68695
3.41146
3.01165
2.6873
2.50884
2.32945
2.19318
2.29331
2.73254
2.80451
2.67983
3.47175
3.09344
2.77952
2.59624
2.38864
2.21527
2.27157
2.66485
2.78794
2.66281
3.71517
3.70274
3.62076
3.55771
3.5107
3.47238
3.42518
3.35061
3.21538
3.00839
3.53746
3.59753
3.53034
3.50744
3.48271
3.45151
3.39947
3.31087
3.15721
2.91058
3.56757
3.71168
3.66702
3.648
3.60777
3.55871
3.48813
3.38536
3.22625
2.98552
3.5679
3.84927
3.81467
3.78388
3.73368
3.67595
3.59047
3.47669
3.3054
3.06353
3.57689
4.03143
4.02946
3.99522
3.93194
3.85834
3.74832
3.62089
3.42903
3.18022
3.01158
4.13252
4.21569
4.1667
4.09855
4.01187
3.88923
3.7558
3.54236
3.31217
2.35923
3.50143
4.40478
4.31814
4.24511
4.15911
4.02792
3.89125
3.65139
3.45748
1.9707
2.40502
3.95972
4.43628
4.33267
4.24035
4.12285
3.99197
3.74892
3.57968
1.82014
1.86967
2.79731
4.25567
4.35786
4.2742
4.16173
4.04142
3.83222
3.66725
1.74248
1.75525
1.88824
3.42864
4.31765
4.27878
4.18861
4.07501
3.8907
3.73033
1.68873
1.7049
1.7222
2.22161
3.95864
4.26575
4.18676
4.08854
3.93303
3.77585
1.64208
1.65707
1.67023
1.71542
2.9875
4.17585
4.17097
4.07877
3.93871
3.78816
1.60285
1.61265
1.62527
1.63621
1.96642
3.70791
4.1603
4.06574
3.93557
3.79536
1.57139
1.58128
1.59227
1.60435
1.63458
2.78185
4.05067
4.02983
3.92499
3.79103
1.54765
1.55615
1.56715
1.58
1.58977
1.89486
3.63448
4.04387
3.92414
3.78267
1.5283
1.53435
1.54339
1.55318
1.56345
1.59553
2.81793
3.94501
3.90032
3.77028
1.51245
1.51745
1.52382
1.53197
1.54268
1.55277
1.9779
3.69199
3.91649
3.78268
1.50139
1.5057
1.51054
1.51744
1.52557
1.53405
1.59866
3.02816
3.86837
3.77814
1.49281
1.49662
1.50109
1.50682
1.51338
1.52144
1.53419
2.26348
3.65199
3.7603
1.48579
1.48902
1.49322
1.49803
1.50384
1.51084
1.51789
1.71266
3.236
3.76583
1.4019
1.40588
1.41029
1.41514
1.42056
1.42653
1.43317
1.44115
1.44733
1.99159
1.4019
1.40588
1.41029
1.41514
1.42056
1.42653
1.43317
1.44114
1.44737
1.97539
1.4019
1.40588
1.41029
1.41515
1.42055
1.42654
1.43317
1.44114
1.4474
1.96009
1.4019
1.40588
1.41029
1.41515
1.42055
1.42654
1.43316
1.44114
1.44743
1.94367
1.4019
1.40588
1.41029
1.41515
1.42055
1.42654
1.43315
1.44115
1.44735
1.91862
1.4019
1.40588
1.41029
1.41515
1.42055
1.42654
1.43315
1.44115
1.44728
1.85696
1.4019
1.40588
1.41029
1.41515
1.42055
1.42654
1.43314
1.44117
1.44725
1.79373
1.4019
1.40589
1.41029
1.41515
1.42055
1.42654
1.43314
1.44117
1.44726
1.73486
1.4019
1.40589
1.41029
1.41515
1.42055
1.42655
1.43313
1.44118
1.44727
1.68188
1.4019
1.40589
1.41029
1.41515
1.42054
1.42655
1.43313
1.44118
1.4473
1.64148
1.4019
1.40589
1.41029
1.41515
1.42054
1.42655
1.43313
1.44118
1.44732
1.60257
1.40189
1.40589
1.41029
1.41515
1.42054
1.42655
1.43313
1.44117
1.44736
1.5686
1.40189
1.40589
1.41029
1.41515
1.42054
1.42655
1.43313
1.44116
1.4474
1.54816
1.40189
1.40589
1.41029
1.41515
1.42054
1.42655
1.43313
1.44115
1.44745
1.52612
1.40189
1.40589
1.41029
1.41515
1.42054
1.42655
1.43313
1.44113
1.44751
1.50831
1.40189
1.40589
1.41029
1.41515
1.42054
1.42655
1.43313
1.44112
1.44757
1.49734
1.40189
1.40589
1.41029
1.41515
1.42054
1.42655
1.43313
1.4411
1.44765
1.4883
1.40189
1.40589
1.41029
1.41515
1.42054
1.42655
1.43314
1.44107
1.44773
1.48116
1.40189
1.40589
1.41029
1.41515
1.42054
1.42655
1.43314
1.44105
1.44783
1.4753
1.40189
1.40589
1.41029
1.41515
1.42054
1.42655
1.43314
1.44102
1.44793
1.4708
1.40189
1.40589
1.41029
1.41515
1.42054
1.42655
1.43314
1.44102
1.44793
1.4708
1.40189
1.40589
1.41029
1.41515
1.42054
1.42655
1.43314
1.44105
1.44783
1.47532
1.40189
1.40589
1.41029
1.41515
1.42054
1.42655
1.43314
1.44107
1.44773
1.48118
1.40189
1.40589
1.41029
1.41515
1.42054
1.42655
1.43313
1.4411
1.44765
1.48832
1.40189
1.40589
1.41029
1.41515
1.42054
1.42655
1.43313
1.44112
1.44757
1.49736
1.40189
1.40589
1.41029
1.41515
1.42054
1.42655
1.43313
1.44113
1.44751
1.50833
1.40189
1.40589
1.41029
1.41515
1.42054
1.42655
1.43313
1.44115
1.44745
1.52616
1.40189
1.40589
1.41029
1.41515
1.42054
1.42655
1.43313
1.44116
1.4474
1.54821
1.40189
1.40589
1.41029
1.41515
1.42054
1.42655
1.43313
1.44117
1.44736
1.56863
1.4019
1.40589
1.41029
1.41515
1.42054
1.42655
1.43313
1.44118
1.44732
1.60259
1.4019
1.40589
1.41029
1.41515
1.42054
1.42655
1.43313
1.44118
1.4473
1.64149
1.4019
1.40589
1.41029
1.41515
1.42055
1.42655
1.43313
1.44118
1.44727
1.68184
1.4019
1.40589
1.41029
1.41515
1.42055
1.42654
1.43314
1.44117
1.44726
1.73474
1.4019
1.40588
1.41029
1.41515
1.42055
1.42654
1.43314
1.44117
1.44725
1.79351
1.4019
1.40588
1.41029
1.41515
1.42055
1.42654
1.43315
1.44115
1.44728
1.85666
1.4019
1.40588
1.41029
1.41515
1.42055
1.42654
1.43315
1.44115
1.44735
1.9183
1.4019
1.40588
1.41029
1.41515
1.42055
1.42654
1.43316
1.44114
1.44744
1.9435
1.4019
1.40588
1.41029
1.41515
1.42055
1.42654
1.43317
1.44114
1.4474
1.96
1.4019
1.40588
1.41029
1.41514
1.42056
1.42653
1.43317
1.44114
1.44737
1.97536
1.4019
1.40588
1.41029
1.41514
1.42056
1.42653
1.43317
1.44115
1.44735
1.99154
1.4858
1.48904
1.49324
1.49805
1.50386
1.51086
1.51791
1.70841
3.22538
3.75746
1.49284
1.49664
1.50111
1.50685
1.51341
1.52148
1.53414
2.25361
3.64694
3.75283
1.50142
1.50573
1.51057
1.51748
1.52561
1.53411
1.59735
3.01647
3.86208
3.77053
1.51249
1.51748
1.52386
1.53202
1.54274
1.55281
1.97166
3.68156
3.91179
3.77536
1.52834
1.5344
1.54345
1.55324
1.56355
1.59506
2.80753
3.9389
3.89587
3.76302
1.54769
1.5562
1.56722
1.58008
1.58985
1.88987
3.62483
4.03851
3.91965
3.77582
1.57146
1.58135
1.59235
1.60446
1.63428
2.77135
4.04417
4.02522
3.92137
3.7857
1.60291
1.61271
1.62534
1.63627
1.96208
3.69813
4.155
4.0619
3.9341
3.79271
1.64214
1.65713
1.67033
1.715
2.97854
4.16927
4.16725
4.0759
3.93878
3.79138
1.68881
1.705
1.72227
2.21695
3.95132
4.26128
4.18285
4.08549
3.93526
3.77658
1.7425
1.75528
1.88704
3.42126
4.3128
4.27421
4.18452
4.0761
3.89685
3.7364
1.82008
1.86938
2.79206
4.25057
4.3531
4.26994
4.15877
4.04355
3.84199
3.6791
1.97028
2.40235
3.95468
4.43214
4.32848
4.23647
4.12115
3.99653
3.76043
3.59544
2.35771
3.49721
4.4012
4.31424
4.24127
4.15593
4.02821
3.89717
3.66623
3.47857
3.00909
4.12976
4.21243
4.16328
4.09559
4.0094
3.89141
3.76208
3.55979
3.33841
3.57501
4.0293
4.02693
3.99231
3.9296
3.85629
3.75052
3.62767
3.44621
3.21207
3.5668
3.84783
3.81263
3.78142
3.73152
3.67447
3.59198
3.48353
3.32202
3.10059
3.56682
3.71062
3.66522
3.64573
3.60555
3.55719
3.48906
3.39121
3.24242
3.02801
3.53701
3.59659
3.52871
3.50523
3.48035
3.44971
3.39968
3.31596
3.17345
2.95228
3.71477
3.70202
3.61954
3.55591
3.50863
3.47054
3.42473
3.35403
3.2283
3.0431
3.48103
3.0987
2.7465
2.49618
2.36882
2.41949
2.48976
2.71481
2.79762
2.70907
3.42402
3.02053
2.64621
2.38974
2.32555
2.41579
2.53237
2.77431
2.82358
2.72917
3.37167
2.94251
2.54315
2.28184
2.2763
2.41188
2.5723
2.80956
2.84174
2.73277
3.3271
2.85214
2.43388
2.17109
2.22377
2.41385
2.60719
2.82976
2.8364
2.72913
3.29151
2.75052
2.32254
2.05743
2.16717
2.41525
2.6297
2.81858
2.81883
2.72007
3.26113
2.63573
2.20571
1.95562
2.10614
2.41663
2.63566
2.78917
2.7972
2.7103
3.24231
2.51374
2.08311
1.8619
2.04113
2.41768
2.6237
2.76158
2.77958
2.70004
3.19193
2.3812
1.95453
1.78194
1.98275
2.41428
2.60882
2.73052
2.75903
2.68631
3.13939
2.25261
1.81635
1.71059
1.93329
2.40775
2.59217
2.69482
2.73528
2.67016
3.06633
2.12387
1.68003
1.64954
1.89745
2.39873
2.56417
2.66103
2.71133
2.65245
2.96873
2.00963
1.54662
1.58597
1.87387
2.386
2.53733
2.63247
2.68853
2.63473
2.84649
1.90605
1.43246
1.51727
1.85862
2.36763
2.51417
2.61101
2.66976
2.61879
2.69723
1.7949
1.34219
1.44716
1.84787
2.34089
2.49012
2.59219
2.65271
2.60484
2.53756
1.68877
1.27784
1.38398
1.83862
2.30842
2.46485
2.57205
2.63294
2.59197
2.36936
1.57757
1.22062
1.32536
1.83291
2.27001
2.4326
2.53816
2.60927
2.57863
2.20783
1.46976
1.17211
1.26717
1.8266
2.22456
2.39048
2.48293
2.5838
2.56382
2.03837
1.35554
1.1229
1.20977
1.82099
2.16962
2.33095
2.41548
2.55839
2.54728
1.8604
1.23827
1.05965
1.14415
1.80787
2.10194
2.24569
2.3366
2.53217
2.52819
1.64822
1.1227
0.990916
1.08325
1.78301
2.03511
2.1517
2.24711
2.50132
2.50575
1.40644
1.02719
0.911005
1.0308
1.74679
1.9687
2.0748
2.15788
2.4652
2.48033
1.59635
3.89657
4.11243
3.71548
3.34214
3.02681
2.7202
2.39948
2.01728
1.78021
1.60228
3.90614
4.10605
3.70523
3.33559
3.02278
2.71546
2.39332
2.0177
1.78907
1.61813
3.92036
4.09415
3.69407
3.33137
3.01541
2.70714
2.38284
2.01918
1.79142
1.64752
3.93867
4.0713
3.67492
3.32082
3.00557
2.69521
2.36797
2.02124
1.79994
1.69115
3.96047
4.03916
3.64818
3.30761
2.99256
2.67894
2.34855
2.02418
1.81404
1.74934
3.98524
3.99961
3.61579
3.28904
2.97471
2.65717
2.32476
2.02642
1.83285
1.81744
4.0095
3.95639
3.58059
3.26638
2.95332
2.63117
2.29835
2.02722
1.85803
1.89379
4.02769
3.90756
3.54547
3.2397
2.92754
2.60075
2.27075
2.0261
1.89178
1.97997
4.03565
3.85288
3.50856
3.20966
2.89837
2.56712
2.24347
2.02275
1.93681
2.07874
4.03117
3.79614
3.47049
3.17622
2.86579
2.531
2.21815
2.02024
1.99256
2.19054
4.01416
3.74219
3.43129
3.13936
2.82976
2.49314
2.19652
2.02794
2.05503
2.2982
4.00225
3.6963
3.39121
3.09856
2.78995
2.45377
2.18257
2.05045
2.12461
2.39023
3.98659
3.66185
3.35301
3.05443
2.74618
2.41213
2.17907
2.09026
2.19795
2.4992
3.96245
3.64801
3.3155
3.00577
2.69753
2.36979
2.1845
2.15082
2.27308
2.63857
3.93025
3.62927
3.26672
2.94862
2.64159
2.33764
2.20241
2.23096
2.35074
2.83495
3.85615
3.57918
3.19034
2.89095
2.59824
2.32534
2.23051
2.3322
2.42528
3.17009
3.7145
3.4619
3.09675
2.79693
2.51429
2.32865
2.28458
2.45874
2.49192
3.50498
3.53123
3.28546
2.97165
2.70276
2.45804
2.34561
2.36717
2.57926
2.55595
3.62324
3.34957
3.08426
2.82794
2.58264
2.43459
2.3827
2.47307
2.67594
2.61606
3.55912
3.19812
2.88724
2.64661
2.45647
2.41995
2.43611
2.60577
2.748
2.67023
3.55569
3.19549
2.91283
2.72107
2.4817
2.26239
2.26696
2.5537
2.75052
2.62768
3.62153
3.35121
3.10478
2.87376
2.60677
2.32443
2.2741
2.43029
2.68692
2.58176
3.50467
3.53681
3.30366
3.01159
2.719
2.4062
2.28544
2.34247
2.60229
2.53319
3.17202
3.71985
3.4802
3.12171
2.80722
2.48655
2.30046
2.28284
2.50735
2.47846
2.83879
3.86243
3.59358
3.23252
2.89677
2.55371
2.31372
2.24055
2.4022
2.42221
2.64423
3.9354
3.64633
3.28928
2.97465
2.62624
2.32895
2.21518
2.30123
2.36532
2.50391
3.96631
3.66454
3.33998
3.02775
2.68692
2.3551
2.19899
2.21686
2.30299
2.39316
3.99218
3.67658
3.37673
3.07506
2.73901
2.39022
2.19451
2.1525
2.23878
2.29801
4.00978
3.71006
3.41248
3.11628
2.78565
2.4295
2.20179
2.10489
2.17634
2.18919
4.0217
3.75513
3.44956
3.15373
2.82843
2.47222
2.21002
2.0729
2.1164
2.07649
4.03795
3.80795
3.48544
3.18769
2.86695
2.51594
2.22412
2.05343
2.05835
1.97665
4.04229
3.86376
3.52033
3.21874
2.90082
2.55775
2.24336
2.04292
1.99981
1.88945
4.03324
3.91664
3.55442
3.24622
2.92949
2.59454
2.26684
2.04078
1.94133
1.81312
4.01285
3.9622
3.58655
3.26954
2.95324
2.62579
2.29225
2.03707
1.88895
1.74584
3.98624
4.00208
3.61842
3.28851
2.97128
2.65087
2.31733
2.03067
1.84636
1.68953
3.95915
4.03723
3.64697
3.30369
2.98586
2.67108
2.34103
2.02483
1.81235
1.64751
3.93574
4.0658
3.67031
3.31517
2.99712
2.68635
2.36118
2.01877
1.78711
1.61921
3.9172
4.08652
3.68725
3.32421
3.00534
2.69772
2.37723
2.01612
1.77031
1.60386
3.90309
4.09713
3.69702
3.32779
3.01189
2.70574
2.38903
2.01536
1.76096
1.59842
3.89386
4.10284
3.70471
3.33494
3.01619
2.71062
2.39636
2.01567
1.75022
1.47933
1.48183
1.48523
1.48901
1.49389
1.49946
1.50522
1.52815
2.29619
3.54765
1.47385
1.47572
1.47801
1.48084
1.48429
1.48851
1.49377
1.49821
1.60627
2.76333
1.47029
1.47181
1.47352
1.4757
1.47808
1.48128
1.485
1.48897
1.49508
1.91075
1.46788
1.46915
1.47065
1.47237
1.47435
1.47669
1.47945
1.48315
1.48569
1.53497
1.46634
1.46742
1.4687
1.47014
1.47183
1.47371
1.47595
1.47871
1.48161
1.48488
1.46535
1.46631
1.46742
1.46867
1.47011
1.47173
1.47362
1.47574
1.47864
1.48047
1.46472
1.46561
1.46662
1.46774
1.46902
1.47043
1.47209
1.47388
1.47637
1.47811
1.46435
1.46519
1.46613
1.46717
1.46834
1.46962
1.4711
1.47269
1.47483
1.47638
1.46412
1.46493
1.46583
1.46682
1.46792
1.46911
1.47048
1.47193
1.47384
1.47521
1.46399
1.46478
1.46566
1.46661
1.46767
1.46881
1.4701
1.47147
1.47322
1.47448
1.46393
1.4647
1.46556
1.46649
1.46752
1.46863
1.46988
1.47119
1.47284
1.47403
1.46391
1.46468
1.46552
1.46644
1.46744
1.46853
1.46974
1.47102
1.4726
1.47374
1.46392
1.46469
1.46552
1.46643
1.46742
1.46849
1.46967
1.47093
1.47246
1.47357
1.46394
1.4647
1.46553
1.46644
1.46742
1.46848
1.46965
1.47088
1.47238
1.47347
1.46396
1.46472
1.46554
1.46644
1.46742
1.46848
1.46964
1.47087
1.47235
1.47342
1.46398
1.46473
1.46556
1.46645
1.46743
1.46848
1.46964
1.47086
1.47234
1.47341
1.46399
1.46475
1.46558
1.46647
1.46744
1.46849
1.46965
1.47087
1.47234
1.4734
1.46399
1.46475
1.46558
1.46648
1.46745
1.46851
1.46966
1.47088
1.47235
1.47341
1.464
1.46476
1.46559
1.46649
1.46747
1.46852
1.46968
1.4709
1.47237
1.47343
1.46397
1.46474
1.46558
1.46648
1.46746
1.46853
1.46969
1.47092
1.47239
1.47346
1.40189
1.40589
1.41029
1.41515
1.42054
1.42655
1.43314
1.44099
1.44806
1.46707
1.40189
1.40589
1.41029
1.41515
1.42054
1.42655
1.43315
1.44095
1.44822
1.46416
1.40189
1.40589
1.41029
1.41515
1.42054
1.42655
1.43316
1.44091
1.44838
1.4621
1.40189
1.40589
1.41029
1.41515
1.42054
1.42655
1.43316
1.44087
1.44852
1.46063
1.40189
1.40589
1.41029
1.41515
1.42054
1.42655
1.43317
1.44084
1.44865
1.4598
1.40189
1.40589
1.41029
1.41515
1.42054
1.42655
1.43317
1.44082
1.44875
1.45927
1.40189
1.40589
1.41029
1.41515
1.42054
1.42655
1.43317
1.44081
1.44884
1.45894
1.40189
1.40589
1.41029
1.41515
1.42054
1.42655
1.43317
1.44081
1.4489
1.45875
1.40189
1.40589
1.41029
1.41515
1.42054
1.42655
1.43317
1.44081
1.44895
1.45864
1.40189
1.40589
1.41029
1.41515
1.42054
1.42655
1.43317
1.44081
1.44899
1.45858
1.40189
1.40589
1.41029
1.41515
1.42053
1.42655
1.43317
1.4408
1.44903
1.45856
1.40189
1.40589
1.41028
1.41515
1.42053
1.42655
1.43318
1.44079
1.44906
1.45857
1.40189
1.40589
1.41028
1.41516
1.42053
1.42655
1.43318
1.44076
1.44908
1.45859
1.40189
1.40589
1.41028
1.41516
1.42053
1.42655
1.43319
1.44074
1.4491
1.45861
1.40189
1.40589
1.41028
1.41516
1.42054
1.42655
1.4332
1.44072
1.44912
1.45863
1.40189
1.40589
1.41028
1.41516
1.42054
1.42655
1.43321
1.4407
1.44913
1.45865
1.40189
1.40589
1.41028
1.41516
1.42054
1.42655
1.43322
1.44068
1.44914
1.45866
1.40189
1.40589
1.41028
1.41516
1.42054
1.42654
1.43322
1.44067
1.44914
1.45866
1.40189
1.40589
1.41028
1.41516
1.42054
1.42654
1.43323
1.44067
1.44914
1.45866
1.40189
1.40589
1.41028
1.41516
1.42054
1.42654
1.43323
1.44066
1.44916
1.45864
1.40189
1.40589
1.41028
1.41516
1.42054
1.42654
1.43323
1.44066
1.44916
1.45864
1.40189
1.40589
1.41028
1.41516
1.42054
1.42654
1.43323
1.44067
1.44914
1.45866
1.40189
1.40589
1.41028
1.41516
1.42054
1.42654
1.43322
1.44067
1.44914
1.45866
1.40189
1.40589
1.41028
1.41516
1.42054
1.42655
1.43322
1.44068
1.44914
1.45866
1.40189
1.40589
1.41028
1.41516
1.42054
1.42655
1.43321
1.4407
1.44913
1.45865
1.40189
1.40589
1.41028
1.41516
1.42054
1.42655
1.4332
1.44072
1.44912
1.45863
1.40189
1.40589
1.41028
1.41516
1.42053
1.42655
1.43319
1.44074
1.4491
1.45861
1.40189
1.40589
1.41028
1.41516
1.42053
1.42655
1.43318
1.44076
1.44908
1.45859
1.40189
1.40589
1.41028
1.41515
1.42053
1.42655
1.43318
1.44079
1.44906
1.45857
1.40189
1.40589
1.41029
1.41515
1.42053
1.42655
1.43317
1.4408
1.44903
1.45856
1.40189
1.40589
1.41029
1.41515
1.42054
1.42655
1.43317
1.44081
1.44899
1.45858
1.40189
1.40589
1.41029
1.41515
1.42054
1.42655
1.43317
1.44081
1.44895
1.45864
1.40189
1.40589
1.41029
1.41515
1.42054
1.42655
1.43317
1.44081
1.4489
1.45875
1.40189
1.40589
1.41029
1.41515
1.42054
1.42655
1.43317
1.44081
1.44884
1.45894
1.40189
1.40589
1.41029
1.41515
1.42054
1.42655
1.43317
1.44082
1.44875
1.45927
1.40189
1.40589
1.41029
1.41515
1.42054
1.42655
1.43317
1.44084
1.44865
1.4598
1.40189
1.40589
1.41029
1.41515
1.42054
1.42655
1.43316
1.44087
1.44852
1.46063
1.40189
1.40589
1.41029
1.41515
1.42054
1.42655
1.43316
1.44091
1.44838
1.4621
1.40189
1.40589
1.41029
1.41515
1.42054
1.42655
1.43315
1.44095
1.44822
1.46416
1.40189
1.40589
1.41029
1.41515
1.42054
1.42655
1.43314
1.44099
1.44806
1.46707
1.46397
1.46474
1.46558
1.46648
1.46747
1.46853
1.46969
1.47092
1.47239
1.47346
1.464
1.46476
1.46559
1.46649
1.46747
1.46852
1.46968
1.4709
1.47237
1.47343
1.46399
1.46475
1.46558
1.46648
1.46745
1.46851
1.46966
1.47088
1.47235
1.47341
1.46399
1.46475
1.46558
1.46647
1.46744
1.46849
1.46965
1.47087
1.47234
1.4734
1.46398
1.46473
1.46556
1.46645
1.46742
1.46848
1.46964
1.47086
1.47234
1.47341
1.46396
1.46472
1.46554
1.46644
1.46742
1.46848
1.46964
1.47087
1.47235
1.47342
1.46394
1.4647
1.46553
1.46644
1.46742
1.46848
1.46965
1.47088
1.47238
1.47347
1.46392
1.46469
1.46552
1.46643
1.46742
1.46849
1.46967
1.47093
1.47246
1.47357
1.46391
1.46468
1.46552
1.46644
1.46744
1.46853
1.46974
1.47102
1.4726
1.47374
1.46393
1.4647
1.46556
1.46649
1.46752
1.46863
1.46987
1.47119
1.47284
1.47403
1.46399
1.46478
1.46566
1.46661
1.46767
1.46881
1.4701
1.47147
1.47322
1.47448
1.46412
1.46493
1.46583
1.46682
1.46792
1.46911
1.47048
1.47193
1.47384
1.47521
1.46435
1.46519
1.46613
1.46717
1.46834
1.46962
1.4711
1.47269
1.47483
1.47638
1.46472
1.46561
1.46662
1.46774
1.46901
1.47043
1.47209
1.47388
1.47636
1.47811
1.46535
1.46631
1.46742
1.46867
1.47011
1.47172
1.47362
1.47574
1.47864
1.48047
1.46634
1.46742
1.4687
1.47014
1.47183
1.47371
1.47595
1.47871
1.48162
1.48484
1.46788
1.46915
1.47066
1.47237
1.47435
1.47668
1.47945
1.48315
1.48569
1.53361
1.4703
1.47181
1.47352
1.4757
1.47808
1.48128
1.48501
1.48898
1.49502
1.90338
1.47385
1.47572
1.47801
1.48085
1.4843
1.48852
1.49378
1.49822
1.60414
2.75147
1.47934
1.48184
1.48524
1.48902
1.49391
1.49947
1.50524
1.52771
2.28681
3.53665
)
;

boundaryField
{
    inlet
    {
        type            calculated;
        value           uniform 1.40001;
    }
    outlet
    {
        type            calculated;
        value           nonuniform List<scalar> 
100
(
2.62785
2.58191
2.53335
2.47868
2.42243
2.36553
2.3032
2.23894
2.17645
2.11646
2.0584
1.99992
1.94149
1.88917
1.84659
1.81255
1.78729
1.77048
1.76113
1.75039
2.3282
2.38169
2.43421
2.4786
2.50836
2.52803
2.54445
2.55913
2.5729
2.58721
2.6039
2.62296
2.64261
2.6602
2.6735
2.68226
2.68779
2.68714
2.67999
2.66286
2.4556
2.43294
2.41237
2.39313
2.37356
2.35202
2.32917
2.30768
2.28748
2.27189
2.25745
2.24628
2.23817
2.23274
2.2303
2.22799
2.22969
2.23834
2.25583
2.28438
2.70911
2.72899
2.73271
2.72893
2.71974
2.70998
2.69973
2.68601
2.6699
2.65225
2.63461
2.61872
2.60481
2.59194
2.57859
2.56376
2.54721
2.5281
2.50565
2.4802
1.78037
1.78923
1.79154
1.80005
1.81413
1.83291
1.85808
1.89182
1.93689
1.9927
2.05523
2.12487
2.19826
2.27342
2.3511
2.42563
2.49222
2.55615
2.61621
2.67037
)
;
    }
    triangle
    {
        type            calculated;
        value           nonuniform List<scalar> 
40
(
3.71517
3.70274
3.62076
3.55771
3.5107
3.47238
3.42518
3.35061
3.21538
3.00839
1.17757
1.15823
1.15632
1.15286
1.14619
1.13808
1.1266
1.11694
1.10584
1.09559
1.08285
1.07027
1.05729
1.04282
1.02804
1.00654
0.988167
0.974569
0.987602
0.998784
3.71477
3.70202
3.61954
3.55591
3.50863
3.47054
3.42473
3.35403
3.2283
3.0431
)
;
    }
    top
    {
        type            symmetryPlane;
    }
    bottom
    {
        type            symmetryPlane;
    }
    defaultFaces
    {
        type            empty;
    }
}


// ************************************************************************* //
