/*--------------------------------*- C++ -*----------------------------------*\
  =========                 |
  \\      /  F ield         | OpenFOAM: The Open Source CFD Toolbox
   \\    /   O peration     | Website:  https://openfoam.org
    \\  /    A nd           | Version:  8
     \\/     M anipulation  |
\*---------------------------------------------------------------------------*/
FoamFile
{
    version     2.0;
    format      ascii;
    class       volScalarField;
    location    "4.7";
    object      T;
}
// * * * * * * * * * * * * * * * * * * * * * * * * * * * * * * * * * * * * * //

dimensions      [0 0 0 1 0 0 0];

internalField   nonuniform List<scalar> 
2600
(
1.85772
1.75459
1.46393
1.39306
1.56889
1.87883
1.99972
1.8644
1.66804
1.6301
1.8952
1.75807
1.47566
1.43078
1.61728
1.93195
2.01054
1.88949
1.68904
1.64992
1.88742
1.75068
1.49828
1.47118
1.67678
1.97047
2.00854
1.89773
1.70824
1.67046
1.87023
1.74568
1.54248
1.5246
1.73963
1.9852
2.00171
1.89643
1.72539
1.69108
1.85341
1.74794
1.60807
1.59266
1.79431
1.98391
1.98879
1.88883
1.74161
1.71125
1.8416
1.7493
1.65864
1.65907
1.82856
1.97361
1.9683
1.88302
1.75855
1.73068
1.83182
1.75119
1.691
1.70575
1.82917
1.9572
1.95113
1.88268
1.77805
1.74958
1.82578
1.75078
1.7042
1.73271
1.82809
1.94005
1.93452
1.88751
1.80073
1.76823
1.82097
1.74897
1.70673
1.74978
1.82344
1.92143
1.9164
1.89442
1.82559
1.78553
1.81837
1.75083
1.71397
1.76583
1.81408
1.90549
1.89728
1.90104
1.85057
1.80148
1.81485
1.75408
1.72739
1.78205
1.80833
1.89225
1.87767
1.90079
1.86878
1.81457
1.8114
1.76006
1.74631
1.79921
1.8077
1.87766
1.85387
1.89712
1.88293
1.82542
1.80631
1.76459
1.77087
1.8214
1.81601
1.85984
1.8271
1.88771
1.88955
1.83312
1.79791
1.76842
1.792
1.84436
1.83138
1.83593
1.79776
1.87203
1.89537
1.83651
1.7874
1.77159
1.81402
1.87103
1.84944
1.8103
1.76829
1.8527
1.89575
1.83749
1.7723
1.77669
1.83162
1.88876
1.85225
1.78297
1.74205
1.8283
1.89506
1.83592
1.76145
1.78166
1.84614
1.89542
1.84185
1.75396
1.71934
1.80065
1.88835
1.83136
1.74977
1.78282
1.85444
1.89132
1.81235
1.72649
1.69866
1.77087
1.8758
1.82178
1.73622
1.76344
1.85106
1.88248
1.77471
1.69771
1.67778
1.7408
1.85537
1.80424
1.66384
1.7102
1.82142
1.86811
1.74022
1.65946
1.65494
1.71214
1.82711
1.77749
1.63307
1.62836
1.74617
1.83289
1.69545
1.60419
1.62709
1.68404
1.78824
1.73874
1.61303
1.55681
1.65091
1.7641
1.62957
1.53828
1.59831
1.65709
1.74189
1.69233
1.59826
1.50017
1.56534
1.66752
1.5496
1.48021
1.57268
1.63412
1.69822
1.64936
1.57746
1.45842
1.50293
1.57098
1.47606
1.43924
1.55019
1.61431
1.66079
1.6142
1.55563
1.42582
1.45452
1.49648
1.42831
1.41747
1.53167
1.59745
1.63055
1.58691
1.53185
1.39757
1.41949
1.45026
1.40341
1.41086
1.51719
1.58344
1.60561
1.56642
1.51095
1.37554
1.39243
1.41792
1.3833
1.39832
1.50392
1.57133
1.58388
1.55037
1.49294
1.3568
1.36931
1.39107
1.36002
1.3779
1.48748
1.55833
1.56339
1.53549
1.48231
1.34605
1.34926
1.36803
1.3355
1.35212
1.46551
1.54198
1.54306
1.5198
1.47815
1.34136
1.32999
1.34977
1.31531
1.32883
1.44205
1.52213
1.52214
1.50288
1.48033
1.34367
1.31704
1.33635
1.30105
1.31104
1.4184
1.50031
1.50087
1.48532
1.48567
1.34964
1.31116
1.32554
1.29245
1.3
1.39825
1.47816
1.48063
1.46775
1.49438
1.35969
1.31158
1.3177
1.28794
1.29352
1.37957
1.45971
1.46212
1.45084
1.50864
1.37503
1.31596
1.31251
1.28578
1.28882
1.36233
1.44502
1.44607
1.43499
1.52104
1.39434
1.32713
1.31174
1.28508
1.28225
1.3468
1.43515
1.43204
1.42049
1.53648
1.41674
1.34392
1.31596
1.28865
1.27649
1.33301
1.42504
1.42185
1.40816
1.55352
1.44017
1.36375
1.32641
1.29539
1.27482
1.32013
1.41619
1.41432
1.39886
1.57157
1.46401
1.38523
1.34195
1.30507
1.27659
1.30982
1.40883
1.40927
1.39185
1.58984
1.48707
1.40732
1.36082
1.31706
1.2816
1.30324
1.40108
1.40696
1.38676
1.60749
1.51054
1.43065
1.38187
1.33092
1.28919
1.30038
1.39172
1.40644
1.38252
2.25909
2.25002
2.21915
2.19038
2.16525
2.14354
2.12174
2.09509
2.05418
2.00782
2.15244
2.1704
2.15064
2.1387
2.12595
2.11132
2.09163
2.0635
2.01841
1.93604
2.03933
2.08257
2.07282
2.07323
2.06832
2.05951
2.04375
2.0187
1.97658
1.87375
1.89441
1.96686
1.96682
1.97225
1.9719
1.96963
1.96011
1.94189
1.90583
1.80423
1.73286
1.83859
1.87137
1.88204
1.8821
1.88101
1.87353
1.86029
1.82985
1.74042
1.50255
1.72336
1.79026
1.79371
1.79725
1.79634
1.7915
1.78233
1.75614
1.68514
1.28956
1.54891
1.74086
1.73652
1.73713
1.73681
1.73221
1.72391
1.69792
1.64529
1.16791
1.28186
1.62244
1.72148
1.70962
1.70438
1.69699
1.68605
1.65859
1.61924
1.12252
1.13512
1.38305
1.67653
1.70889
1.69772
1.68308
1.66763
1.63997
1.60746
1.09922
1.10215
1.14059
1.55295
1.71182
1.70199
1.6852
1.66586
1.63602
1.60627
1.08262
1.08665
1.09091
1.24294
1.66451
1.70581
1.69101
1.67057
1.64095
1.61114
1.06881
1.0727
1.07592
1.08874
1.48143
1.71318
1.70485
1.67959
1.64866
1.61875
1.05738
1.05994
1.06319
1.06601
1.17189
1.64888
1.71202
1.69085
1.66051
1.63082
1.04826
1.05089
1.0538
1.05691
1.06556
1.43943
1.70736
1.69929
1.67273
1.64252
1.04148
1.04377
1.04671
1.05011
1.05273
1.15085
1.64787
1.70918
1.68358
1.65206
1.03602
1.03766
1.0401
1.04274
1.04545
1.05481
1.46878
1.7022
1.68799
1.65803
1.03156
1.03293
1.03466
1.03688
1.03974
1.04257
1.18257
1.65858
1.69102
1.6655
1.02845
1.02963
1.03096
1.03284
1.03506
1.03734
1.05648
1.53617
1.69159
1.67138
1.02605
1.02709
1.02832
1.02989
1.03169
1.03386
1.03758
1.28567
1.65081
1.66848
1.02409
1.02498
1.02614
1.02746
1.02905
1.03096
1.03292
1.09325
1.57128
1.67252
1.00054
1.00168
1.00293
1.00431
1.00584
1.00754
1.0094
1.01166
1.01337
1.51026
1.00054
1.00168
1.00293
1.00431
1.00584
1.00754
1.0094
1.01166
1.01338
1.47957
1.00054
1.00168
1.00293
1.00431
1.00584
1.00754
1.0094
1.01166
1.01339
1.42118
1.00054
1.00168
1.00293
1.00431
1.00584
1.00754
1.0094
1.01166
1.0134
1.34156
1.00054
1.00168
1.00293
1.00431
1.00584
1.00754
1.0094
1.01166
1.01338
1.25192
1.00054
1.00168
1.00293
1.00431
1.00584
1.00754
1.0094
1.01166
1.01336
1.17816
1.00054
1.00168
1.00293
1.00431
1.00584
1.00754
1.0094
1.01166
1.01335
1.13221
1.00054
1.00168
1.00293
1.00431
1.00584
1.00754
1.0094
1.01166
1.01335
1.104
1.00054
1.00168
1.00293
1.00431
1.00584
1.00754
1.00939
1.01167
1.01336
1.08449
1.00054
1.00168
1.00293
1.00431
1.00584
1.00754
1.00939
1.01167
1.01337
1.07089
1.00054
1.00168
1.00293
1.00431
1.00584
1.00754
1.00939
1.01167
1.01337
1.05861
1.00054
1.00168
1.00293
1.00431
1.00584
1.00754
1.00939
1.01166
1.01338
1.04839
1.00054
1.00168
1.00293
1.00431
1.00584
1.00754
1.00939
1.01166
1.01339
1.04215
1.00054
1.00168
1.00293
1.00431
1.00584
1.00754
1.00939
1.01166
1.01341
1.03569
1.00054
1.00168
1.00293
1.00431
1.00584
1.00754
1.00939
1.01165
1.01343
1.03056
1.00054
1.00168
1.00293
1.00431
1.00584
1.00754
1.00939
1.01165
1.01344
1.02741
1.00054
1.00168
1.00293
1.00431
1.00584
1.00754
1.00939
1.01164
1.01346
1.02484
1.00054
1.00168
1.00293
1.00431
1.00584
1.00754
1.00939
1.01163
1.01349
1.02283
1.00054
1.00168
1.00293
1.00431
1.00584
1.00754
1.0094
1.01163
1.01352
1.02118
1.00054
1.00168
1.00293
1.00431
1.00584
1.00754
1.0094
1.01162
1.01354
1.01992
1.00054
1.00168
1.00293
1.00431
1.00584
1.00754
1.0094
1.01162
1.01354
1.01992
1.00054
1.00168
1.00293
1.00431
1.00584
1.00754
1.0094
1.01163
1.01352
1.02118
1.00054
1.00168
1.00293
1.00431
1.00584
1.00754
1.00939
1.01163
1.01349
1.02283
1.00054
1.00168
1.00293
1.00431
1.00584
1.00754
1.00939
1.01164
1.01346
1.02485
1.00054
1.00168
1.00293
1.00431
1.00584
1.00754
1.00939
1.01165
1.01344
1.02742
1.00054
1.00168
1.00293
1.00431
1.00584
1.00754
1.00939
1.01165
1.01343
1.03057
1.00054
1.00168
1.00293
1.00431
1.00584
1.00754
1.00939
1.01166
1.01341
1.0357
1.00054
1.00168
1.00293
1.00431
1.00584
1.00754
1.00939
1.01166
1.01339
1.04217
1.00054
1.00168
1.00293
1.00431
1.00584
1.00754
1.00939
1.01166
1.01338
1.0484
1.00054
1.00168
1.00293
1.00431
1.00584
1.00754
1.00939
1.01167
1.01337
1.05862
1.00054
1.00168
1.00293
1.00431
1.00584
1.00754
1.00939
1.01167
1.01337
1.0709
1.00054
1.00168
1.00293
1.00431
1.00584
1.00754
1.00939
1.01167
1.01336
1.08449
1.00054
1.00168
1.00293
1.00431
1.00584
1.00754
1.0094
1.01166
1.01335
1.10399
1.00054
1.00168
1.00293
1.00431
1.00584
1.00754
1.0094
1.01166
1.01335
1.13217
1.00054
1.00168
1.00293
1.00431
1.00584
1.00754
1.0094
1.01166
1.01336
1.17804
1.00054
1.00168
1.00293
1.00431
1.00584
1.00754
1.0094
1.01166
1.01338
1.25166
1.00054
1.00168
1.00293
1.00431
1.00584
1.00754
1.0094
1.01166
1.0134
1.34122
1.00054
1.00168
1.00293
1.00431
1.00584
1.00754
1.0094
1.01166
1.01339
1.42082
1.00054
1.00168
1.00293
1.00431
1.00584
1.00754
1.0094
1.01166
1.01338
1.47925
1.00054
1.00168
1.00293
1.00431
1.00584
1.00754
1.0094
1.01166
1.01337
1.51009
1.02409
1.02498
1.02614
1.02746
1.02906
1.03096
1.03292
1.0918
1.5683
1.67064
1.02605
1.0271
1.02833
1.0299
1.0317
1.03387
1.03756
1.28174
1.64893
1.66678
1.02846
1.02964
1.03097
1.03285
1.03507
1.03736
1.05607
1.53226
1.68985
1.66958
1.03157
1.03294
1.03467
1.03689
1.03976
1.04258
1.18024
1.65584
1.68973
1.66374
1.03603
1.03767
1.04012
1.04276
1.04547
1.05466
1.46508
1.70045
1.68667
1.65613
1.04149
1.04378
1.04673
1.05013
1.05275
1.14904
1.64552
1.70779
1.68237
1.65014
1.04828
1.05092
1.05382
1.05694
1.06545
1.43571
1.70572
1.69808
1.67185
1.64084
1.05739
1.05996
1.06321
1.06602
1.17034
1.64659
1.71087
1.68992
1.66015
1.63006
1.06883
1.07272
1.07595
1.0886
1.47851
1.71154
1.70382
1.67879
1.64885
1.61902
1.08265
1.08668
1.09093
1.24147
1.66295
1.70475
1.69004
1.67
1.64146
1.61105
1.09923
1.10217
1.1402
1.55106
1.71077
1.70104
1.68438
1.66592
1.63681
1.60693
1.12252
1.13505
1.38164
1.67537
1.7079
1.69684
1.68248
1.66772
1.64132
1.60924
1.16783
1.28118
1.62141
1.72062
1.70874
1.70363
1.69659
1.68664
1.66047
1.62229
1.28918
1.54792
1.74008
1.73567
1.73628
1.73624
1.73215
1.72487
1.70063
1.64983
1.50188
1.72253
1.78961
1.79287
1.79648
1.79577
1.79177
1.78357
1.75968
1.69125
1.73217
1.83788
1.87056
1.8812
1.88142
1.88047
1.87386
1.86182
1.83385
1.74822
1.89367
1.96613
1.96598
1.97142
1.97119
1.9692
1.96042
1.94368
1.9102
1.81316
2.03853
2.08189
2.07203
2.07246
2.06768
2.05914
2.04408
2.02044
1.98101
1.8835
2.15178
2.16984
2.15
2.13807
2.12541
2.11101
2.09188
2.06495
2.0224
1.94746
2.25862
2.24956
2.21873
2.18996
2.16488
2.1433
2.12185
2.09595
2.05672
2.01838
1.60971
1.51258
1.42296
1.36339
1.32978
1.33278
1.3434
1.3896
1.40832
1.39371
1.59327
1.48976
1.3965
1.33812
1.31703
1.33115
1.34954
1.39529
1.409
1.39724
1.57645
1.46715
1.37111
1.3135
1.30555
1.33081
1.358
1.39778
1.41257
1.40127
1.55994
1.44318
1.34652
1.28903
1.29732
1.33383
1.36907
1.40201
1.41553
1.4057
1.54497
1.41867
1.32394
1.26723
1.29048
1.34159
1.38319
1.40552
1.4181
1.4114
1.5314
1.39432
1.30322
1.25125
1.28526
1.35393
1.39979
1.41035
1.42298
1.4193
1.52122
1.37261
1.28518
1.23926
1.28198
1.37035
1.41666
1.42247
1.43232
1.42938
1.50988
1.35409
1.27034
1.23188
1.28189
1.38942
1.43636
1.43963
1.4451
1.44113
1.50312
1.34202
1.25748
1.22795
1.28409
1.41068
1.45821
1.45913
1.46029
1.4543
1.49929
1.33503
1.24726
1.22882
1.29124
1.43381
1.47953
1.47986
1.47744
1.46805
1.49811
1.3336
1.23699
1.23597
1.30386
1.45869
1.50288
1.50073
1.49511
1.48179
1.50307
1.34191
1.23345
1.24504
1.32345
1.48612
1.52814
1.52217
1.51251
1.49511
1.51478
1.35532
1.2355
1.25361
1.34767
1.51519
1.55411
1.54387
1.52879
1.50759
1.53421
1.37407
1.24531
1.26305
1.37371
1.54524
1.58195
1.5661
1.54322
1.51913
1.5572
1.39468
1.25997
1.27431
1.40075
1.57594
1.61385
1.58792
1.55602
1.53011
1.58301
1.42211
1.28088
1.28683
1.42672
1.60908
1.65584
1.61135
1.56865
1.54142
1.60732
1.45976
1.30947
1.30113
1.45144
1.64687
1.71512
1.64381
1.58295
1.55424
1.63433
1.51759
1.34938
1.31167
1.47391
1.69075
1.79362
1.68979
1.60019
1.56958
1.67153
1.60277
1.40576
1.32841
1.49722
1.74605
1.88235
1.7486
1.62064
1.58794
1.75426
1.69332
1.44877
1.35612
1.52869
1.8124
1.95899
1.81237
1.64433
1.60911
1.07003
1.75986
1.82829
1.76845
1.70681
1.633
1.54902
1.45926
1.3558
1.28072
1.07157
1.76013
1.82655
1.76643
1.70525
1.63181
1.54769
1.45767
1.35585
1.28319
1.07844
1.76179
1.82336
1.7643
1.70385
1.62928
1.54505
1.45485
1.35607
1.28374
1.09167
1.76559
1.81854
1.76116
1.70101
1.62555
1.54106
1.45079
1.35637
1.2861
1.10889
1.76919
1.81225
1.75728
1.69752
1.62062
1.5357
1.4455
1.357
1.29029
1.12848
1.7719
1.80406
1.75297
1.69268
1.6142
1.5289
1.43904
1.35772
1.29626
1.14725
1.77478
1.79509
1.74856
1.68635
1.60658
1.52105
1.43181
1.35839
1.30441
1.16767
1.77933
1.7881
1.74335
1.67807
1.59746
1.51212
1.424
1.35902
1.31484
1.19281
1.78649
1.78393
1.73593
1.66745
1.58689
1.50221
1.41592
1.35995
1.32753
1.22679
1.79694
1.78075
1.72546
1.65404
1.57457
1.49113
1.40827
1.36101
1.34209
1.27412
1.80862
1.77501
1.71057
1.6372
1.56014
1.47846
1.40195
1.36121
1.35843
1.33269
1.81735
1.76316
1.68951
1.61628
1.54303
1.46362
1.39721
1.36254
1.37391
1.39611
1.8154
1.74214
1.66267
1.59146
1.52266
1.44589
1.39368
1.36684
1.3864
1.46152
1.79345
1.71451
1.63218
1.56331
1.49847
1.4251
1.3902
1.37625
1.39584
1.51841
1.75481
1.68178
1.59939
1.5324
1.46996
1.40275
1.38477
1.39136
1.40123
1.55965
1.70848
1.64705
1.56463
1.50166
1.44215
1.38042
1.37613
1.40803
1.40185
1.59555
1.6626
1.60891
1.53066
1.46467
1.40416
1.36151
1.36685
1.41778
1.4009
1.62632
1.62293
1.56506
1.49228
1.42991
1.37226
1.34943
1.36202
1.4172
1.39811
1.64416
1.58296
1.51533
1.45093
1.39247
1.3497
1.34237
1.36596
1.41344
1.39454
1.62839
1.54287
1.46208
1.4019
1.35604
1.33566
1.34011
1.37803
1.4091
1.39289
1.62839
1.54124
1.46676
1.41517
1.35647
1.30469
1.30805
1.37767
1.40813
1.3798
1.64414
1.58295
1.51817
1.45802
1.39355
1.32641
1.32653
1.36616
1.41216
1.3799
1.62655
1.62367
1.56738
1.49801
1.43042
1.35922
1.34651
1.36355
1.41551
1.38454
1.59619
1.66316
1.61116
1.53312
1.46434
1.39647
1.36666
1.36849
1.41758
1.392
1.5614
1.70891
1.64838
1.57075
1.50049
1.4315
1.38634
1.37697
1.41621
1.39756
1.52129
1.75508
1.68359
1.60208
1.53598
1.46636
1.40561
1.38624
1.40992
1.39925
1.46464
1.79389
1.71667
1.63551
1.56674
1.4962
1.42464
1.39359
1.39615
1.39792
1.39849
1.81662
1.74445
1.66644
1.59515
1.52129
1.44262
1.40001
1.38199
1.393
1.33352
1.819
1.76559
1.69322
1.61977
1.54235
1.45919
1.40407
1.3733
1.38516
1.274
1.80995
1.7772
1.71391
1.64023
1.56014
1.47438
1.40635
1.36917
1.37518
1.22611
1.79782
1.7825
1.72819
1.65656
1.57513
1.48807
1.41031
1.36756
1.36204
1.19174
1.78723
1.78537
1.73801
1.66947
1.58772
1.50026
1.41617
1.36487
1.3463
1.16631
1.77987
1.78934
1.74484
1.67954
1.59814
1.51078
1.42325
1.36275
1.32897
1.14595
1.77511
1.79589
1.74952
1.68713
1.60676
1.51987
1.43047
1.36066
1.31276
1.12733
1.77208
1.80438
1.75342
1.69272
1.6136
1.52748
1.43728
1.35854
1.29976
1.10843
1.76917
1.81186
1.75713
1.69693
1.61928
1.53391
1.44367
1.35692
1.28983
1.09189
1.76533
1.81752
1.76043
1.70012
1.62382
1.53902
1.44917
1.35529
1.28268
1.07909
1.76138
1.82189
1.76317
1.70262
1.62717
1.54285
1.45359
1.35457
1.27802
1.07241
1.75959
1.82475
1.76501
1.7038
1.62949
1.54541
1.45679
1.35433
1.27545
1.07102
1.75929
1.82633
1.76654
1.70544
1.63071
1.54675
1.4587
1.35439
1.27242
1.02229
1.02298
1.02392
1.02496
1.02631
1.02784
1.0294
1.03605
1.30395
1.63058
1.02077
1.02128
1.02192
1.0227
1.02365
1.02482
1.02627
1.02747
1.06398
1.47694
1.01978
1.0202
1.02067
1.02127
1.02193
1.02282
1.02385
1.02493
1.0267
1.18954
1.01911
1.01946
1.01988
1.02035
1.0209
1.02155
1.02231
1.02333
1.02403
1.04063
1.01868
1.01898
1.01934
1.01974
1.0202
1.02072
1.02134
1.02211
1.02291
1.02382
1.01841
1.01867
1.01898
1.01933
1.01973
1.02018
1.0207
1.02129
1.02209
1.02259
1.01823
1.01848
1.01876
1.01907
1.01942
1.01982
1.02028
1.02077
1.02146
1.02194
1.01813
1.01836
1.01863
1.01891
1.01924
1.01959
1.02001
1.02044
1.02104
1.02147
1.01807
1.01829
1.01854
1.01882
1.01912
1.01945
1.01983
1.02024
1.02077
1.02114
1.01803
1.01825
1.0185
1.01876
1.01905
1.01937
1.01973
1.02011
1.02059
1.02094
1.01801
1.01823
1.01847
1.01873
1.01901
1.01932
1.01967
1.02003
1.02049
1.02082
1.01801
1.01822
1.01846
1.01871
1.01899
1.01929
1.01963
1.01999
1.02042
1.02074
1.01801
1.01823
1.01846
1.01871
1.01898
1.01928
1.01961
1.01996
1.02038
1.02069
1.01802
1.01823
1.01846
1.01871
1.01898
1.01928
1.0196
1.01995
1.02036
1.02066
1.01802
1.01824
1.01846
1.01871
1.01899
1.01928
1.0196
1.01994
1.02035
1.02065
1.01803
1.01824
1.01847
1.01872
1.01899
1.01928
1.0196
1.01994
1.02035
1.02065
1.01803
1.01824
1.01847
1.01872
1.01899
1.01928
1.0196
1.01994
1.02035
1.02064
1.01803
1.01825
1.01848
1.01872
1.019
1.01929
1.01961
1.01995
1.02035
1.02065
1.01804
1.01825
1.01848
1.01873
1.019
1.01929
1.01961
1.01995
1.02036
1.02065
1.01803
1.01824
1.01847
1.01873
1.019
1.01929
1.01962
1.01996
1.02037
1.02066
1.00054
1.00168
1.00293
1.00431
1.00584
1.00754
1.0094
1.01161
1.01358
1.01888
1.00054
1.00168
1.00293
1.00431
1.00584
1.00754
1.0094
1.0116
1.01363
1.01807
1.00054
1.00168
1.00293
1.00431
1.00584
1.00754
1.0094
1.01158
1.01367
1.01749
1.00054
1.00168
1.00293
1.00431
1.00584
1.00754
1.0094
1.01157
1.01371
1.01709
1.00054
1.00168
1.00293
1.00431
1.00584
1.00754
1.0094
1.01156
1.01375
1.01686
1.00054
1.00168
1.00293
1.00431
1.00584
1.00754
1.00941
1.01156
1.01378
1.01671
1.00054
1.00168
1.00293
1.00431
1.00584
1.00754
1.00941
1.01155
1.0138
1.01662
1.00054
1.00168
1.00293
1.00431
1.00584
1.00754
1.00941
1.01155
1.01382
1.01657
1.00054
1.00168
1.00293
1.00431
1.00584
1.00754
1.00941
1.01155
1.01384
1.01654
1.00054
1.00168
1.00293
1.00431
1.00584
1.00754
1.00941
1.01155
1.01385
1.01652
1.00054
1.00168
1.00293
1.00431
1.00584
1.00754
1.00941
1.01155
1.01386
1.01652
1.00054
1.00168
1.00293
1.00431
1.00584
1.00754
1.00941
1.01155
1.01387
1.01652
1.00054
1.00168
1.00293
1.00431
1.00584
1.00754
1.00941
1.01154
1.01387
1.01653
1.00054
1.00168
1.00293
1.00431
1.00584
1.00754
1.00941
1.01153
1.01388
1.01653
1.00054
1.00168
1.00293
1.00431
1.00584
1.00754
1.00941
1.01153
1.01388
1.01654
1.00054
1.00168
1.00293
1.00431
1.00584
1.00754
1.00942
1.01152
1.01389
1.01654
1.00054
1.00168
1.00293
1.00431
1.00584
1.00754
1.00942
1.01152
1.01389
1.01655
1.00054
1.00168
1.00293
1.00431
1.00584
1.00754
1.00942
1.01152
1.01389
1.01655
1.00054
1.00168
1.00293
1.00431
1.00584
1.00754
1.00942
1.01151
1.01389
1.01655
1.00054
1.00168
1.00293
1.00431
1.00584
1.00754
1.00942
1.01151
1.0139
1.01654
1.00054
1.00168
1.00293
1.00431
1.00584
1.00754
1.00942
1.01151
1.0139
1.01654
1.00054
1.00168
1.00293
1.00431
1.00584
1.00754
1.00942
1.01151
1.01389
1.01655
1.00054
1.00168
1.00293
1.00431
1.00584
1.00754
1.00942
1.01152
1.01389
1.01655
1.00054
1.00168
1.00293
1.00431
1.00584
1.00754
1.00942
1.01152
1.01389
1.01655
1.00054
1.00168
1.00293
1.00431
1.00584
1.00754
1.00942
1.01152
1.01389
1.01654
1.00054
1.00168
1.00293
1.00431
1.00584
1.00754
1.00941
1.01153
1.01388
1.01654
1.00054
1.00168
1.00293
1.00431
1.00584
1.00754
1.00941
1.01153
1.01388
1.01653
1.00054
1.00168
1.00293
1.00431
1.00584
1.00754
1.00941
1.01154
1.01387
1.01653
1.00054
1.00168
1.00293
1.00431
1.00584
1.00754
1.00941
1.01155
1.01387
1.01652
1.00054
1.00168
1.00293
1.00431
1.00584
1.00754
1.00941
1.01155
1.01386
1.01652
1.00054
1.00168
1.00293
1.00431
1.00584
1.00754
1.00941
1.01155
1.01385
1.01652
1.00054
1.00168
1.00293
1.00431
1.00584
1.00754
1.00941
1.01155
1.01384
1.01654
1.00054
1.00168
1.00293
1.00431
1.00584
1.00754
1.00941
1.01155
1.01382
1.01657
1.00054
1.00168
1.00293
1.00431
1.00584
1.00754
1.00941
1.01155
1.0138
1.01662
1.00054
1.00168
1.00293
1.00431
1.00584
1.00754
1.00941
1.01156
1.01378
1.01671
1.00054
1.00168
1.00293
1.00431
1.00584
1.00754
1.0094
1.01156
1.01375
1.01686
1.00054
1.00168
1.00293
1.00431
1.00584
1.00754
1.0094
1.01157
1.01371
1.01709
1.00054
1.00168
1.00293
1.00431
1.00584
1.00754
1.0094
1.01158
1.01367
1.01749
1.00054
1.00168
1.00293
1.00431
1.00584
1.00754
1.0094
1.0116
1.01363
1.01807
1.00054
1.00168
1.00293
1.00431
1.00584
1.00754
1.0094
1.01161
1.01358
1.01888
1.01803
1.01824
1.01847
1.01873
1.019
1.01929
1.01962
1.01996
1.02037
1.02066
1.01804
1.01825
1.01848
1.01873
1.019
1.01929
1.01961
1.01995
1.02036
1.02065
1.01803
1.01825
1.01848
1.01872
1.019
1.01929
1.01961
1.01995
1.02035
1.02065
1.01803
1.01824
1.01847
1.01872
1.01899
1.01928
1.0196
1.01994
1.02035
1.02064
1.01803
1.01824
1.01847
1.01872
1.01899
1.01928
1.0196
1.01994
1.02035
1.02065
1.01802
1.01824
1.01846
1.01871
1.01899
1.01928
1.0196
1.01994
1.02035
1.02065
1.01802
1.01823
1.01846
1.01871
1.01898
1.01928
1.0196
1.01995
1.02036
1.02066
1.01801
1.01823
1.01846
1.01871
1.01898
1.01928
1.01961
1.01996
1.02038
1.02069
1.01801
1.01822
1.01846
1.01871
1.01899
1.01929
1.01963
1.01999
1.02042
1.02074
1.01801
1.01823
1.01847
1.01873
1.01901
1.01932
1.01967
1.02003
1.02049
1.02082
1.01803
1.01825
1.0185
1.01876
1.01905
1.01937
1.01973
1.02011
1.02059
1.02094
1.01807
1.01829
1.01854
1.01882
1.01912
1.01945
1.01983
1.02024
1.02077
1.02114
1.01813
1.01836
1.01863
1.01891
1.01924
1.01959
1.02
1.02044
1.02104
1.02146
1.01823
1.01848
1.01876
1.01907
1.01942
1.01982
1.02028
1.02077
1.02146
1.02194
1.01841
1.01867
1.01898
1.01933
1.01973
1.02017
1.0207
1.02129
1.02209
1.02259
1.01868
1.01898
1.01934
1.01974
1.0202
1.02072
1.02134
1.02211
1.02291
1.02381
1.01911
1.01946
1.01988
1.02035
1.0209
1.02155
1.02231
1.02334
1.02403
1.0401
1.01978
1.0202
1.02067
1.02128
1.02193
1.02282
1.02385
1.02493
1.02667
1.18613
1.02077
1.02128
1.02192
1.0227
1.02366
1.02482
1.02627
1.02747
1.06317
1.47299
1.02229
1.02298
1.02392
1.02497
1.02631
1.02784
1.02941
1.03591
1.30047
1.62824
)
;

boundaryField
{
    inlet
    {
        type            fixedValue;
        value           uniform 1;
    }
    outlet
    {
        type            inletOutlet;
        inletValue      uniform 1;
        value           nonuniform List<scalar> 
100
(
1.37971
1.37982
1.38445
1.39188
1.39743
1.39912
1.3978
1.3929
1.38509
1.37514
1.36201
1.34623
1.32886
1.31261
1.2996
1.28969
1.28256
1.27789
1.27533
1.2723
1.73836
1.69198
1.64907
1.61392
1.58663
1.56622
1.55022
1.53535
1.51966
1.50275
1.48524
1.46774
1.45087
1.43502
1.42049
1.40813
1.39878
1.39175
1.38668
1.38249
1.6302
1.65
1.67045
1.69103
1.71123
1.73069
1.74961
1.76824
1.7855
1.8014
1.81442
1.82523
1.83284
1.83621
1.83712
1.83555
1.83099
1.82139
1.80385
1.77711
1.39369
1.39734
1.4013
1.4058
1.41157
1.41947
1.42955
1.44128
1.45444
1.46815
1.48187
1.49515
1.50761
1.51914
1.53013
1.54145
1.55428
1.56963
1.58801
1.60919
1.28061
1.28308
1.28365
1.28603
1.29023
1.29622
1.30438
1.31481
1.32748
1.342
1.35829
1.37374
1.3862
1.39563
1.40102
1.40165
1.40073
1.39801
1.39445
1.39282
)
;
    }
    triangle
    {
        type            zeroGradient;
    }
    top
    {
        type            symmetryPlane;
    }
    bottom
    {
        type            symmetryPlane;
    }
    defaultFaces
    {
        type            empty;
    }
}


// ************************************************************************* //
