/*--------------------------------*- C++ -*----------------------------------*\
  =========                 |
  \\      /  F ield         | OpenFOAM: The Open Source CFD Toolbox
   \\    /   O peration     | Website:  https://openfoam.org
    \\  /    A nd           | Version:  8
     \\/     M anipulation  |
\*---------------------------------------------------------------------------*/
FoamFile
{
    version     2.0;
    format      ascii;
    class       volScalarField;
    location    "4";
    object      p;
}
// * * * * * * * * * * * * * * * * * * * * * * * * * * * * * * * * * * * * * //

dimensions      [1 -1 -2 0 0 0 0];

internalField   nonuniform List<scalar> 
2600
(
1.4988
1.45874
1.37555
1.36212
1.92155
2.51055
2.69304
2.71188
2.54829
2.37662
1.49186
1.44589
1.39658
1.40563
1.93123
2.52939
2.70043
2.71915
2.54935
2.38346
1.47765
1.4447
1.4101
1.3968
1.93393
2.54374
2.70661
2.72731
2.55081
2.38976
1.46834
1.42978
1.41438
1.38944
1.94451
2.5539
2.7168
2.74183
2.55413
2.39503
1.46651
1.41479
1.41772
1.40619
1.9578
2.5529
2.72372
2.73848
2.55715
2.39575
1.467
1.39722
1.4175
1.42143
1.97416
2.55461
2.73314
2.73737
2.5656
2.39805
1.45694
1.38333
1.41467
1.43612
1.99448
2.53777
2.7238
2.72631
2.57547
2.40214
1.44699
1.36707
1.40484
1.44458
2.03218
2.51565
2.71821
2.70889
2.58362
2.4057
1.41768
1.33476
1.39185
1.46684
2.07343
2.49489
2.6962
2.70421
2.60103
2.4089
1.39034
1.29425
1.39017
1.50992
2.12055
2.44462
2.69089
2.68563
2.61285
2.41091
1.3611
1.24528
1.37815
1.56387
2.15643
2.44603
2.668
2.67699
2.62471
2.40023
1.33634
1.19595
1.38272
1.62656
2.21057
2.4061
2.67011
2.67202
2.62515
2.40393
1.32172
1.14862
1.38193
1.72082
2.24579
2.40504
2.65854
2.67288
2.64308
2.40651
1.30805
1.10837
1.38843
1.78023
2.30622
2.40094
2.64885
2.6719
2.64307
2.41033
1.29885
1.08116
1.38356
1.85288
2.34991
2.39756
2.64758
2.66906
2.64046
2.41326
1.2873
1.07267
1.40101
1.90285
2.36179
2.39281
2.65389
2.66557
2.63286
2.40144
1.27682
1.08028
1.41099
1.92128
2.3569
2.38499
2.66376
2.67129
2.62263
2.40109
1.26439
1.08373
1.43145
1.92038
2.35267
2.36615
2.66395
2.68761
2.6161
2.39771
1.26366
1.09627
1.41368
1.90632
2.32466
2.34221
2.65028
2.69931
2.61006
2.39679
1.25737
1.10642
1.40477
1.88873
2.28718
2.31235
2.63036
2.70416
2.60303
2.39572
1.53678
1.12362
1.38653
1.86153
2.25056
2.30498
2.61192
2.70474
2.59528
2.39231
1.84762
1.18446
1.38186
1.83204
2.20682
2.30155
2.59319
2.69528
2.59251
2.39173
2.11558
1.27947
1.41039
1.79281
2.1525
2.28716
2.57983
2.68151
2.59179
2.38183
2.32936
1.41357
1.44065
1.74688
2.08822
2.28053
2.57692
2.67107
2.58921
2.37101
2.50941
1.57312
1.47142
1.70813
2.02168
2.27599
2.58196
2.66665
2.5867
2.36669
2.65913
1.72467
1.51642
1.68385
1.95537
2.25244
2.58189
2.66897
2.58566
2.36564
2.79023
1.87084
1.5649
1.67355
1.89085
2.209
2.57095
2.67357
2.58482
2.36223
2.90739
2.00202
1.62744
1.68014
1.83084
2.14221
2.55574
2.67666
2.58045
2.35534
3.01438
2.12808
1.69316
1.70112
1.78585
2.06773
2.52945
2.67317
2.57004
2.34735
3.1125
2.24294
1.77522
1.72944
1.75838
2.00481
2.49347
2.66025
2.55741
2.34115
3.20069
2.35725
1.86898
1.75427
1.74445
1.94856
2.45084
2.64182
2.54444
2.33504
3.27942
2.46632
1.96178
1.78691
1.73898
1.89489
2.39948
2.61517
2.52929
2.32701
3.3519
2.56969
2.05736
1.83072
1.73258
1.83751
2.33746
2.58451
2.51279
2.31741
3.41857
2.67037
2.14704
1.88846
1.73228
1.78008
2.26229
2.54273
2.49372
2.30658
3.48285
2.76677
2.23878
1.94767
1.74081
1.74337
2.17021
2.49826
2.47701
2.29476
3.54289
2.86056
2.32704
2.00955
1.76126
1.72788
2.06321
2.45219
2.45957
2.28277
3.60115
2.9501
2.41455
2.07298
1.78863
1.71785
1.96738
2.3978
2.44285
2.27092
3.6535
3.03413
2.49903
2.1349
1.82827
1.71129
1.88957
2.33625
2.42637
2.25938
3.70307
3.1098
2.58025
2.19848
1.87267
1.70396
1.82778
2.27044
2.41077
2.24889
3.74827
3.17695
2.657
2.26357
1.91631
1.7064
1.77433
2.19961
2.3969
2.24021
6.3865
6.04636
5.80499
5.57198
5.35742
5.15974
4.96232
4.74541
4.44051
4.09167
5.89617
5.59529
5.45703
5.30101
5.15439
5.00044
4.82645
4.60643
4.28299
3.81442
5.72507
5.51087
5.40732
5.26269
5.13095
4.98861
4.82041
4.60069
4.27676
3.82207
5.53281
5.37869
5.29576
5.17893
5.07127
4.93522
4.77029
4.54791
4.22951
3.7633
5.37574
5.27164
5.21276
5.11483
5.01971
4.88853
4.72898
4.5063
4.19213
3.73795
5.25693
5.18182
5.13849
5.05747
4.97579
4.85084
4.69498
4.474
4.16684
3.7397
5.1745
5.12002
5.08784
5.01921
4.94355
4.82045
4.66647
4.45061
4.15267
3.75707
5.1178
5.07352
5.05067
4.9867
4.9131
4.79176
4.64004
4.4326
4.14736
3.78531
5.09052
5.05282
5.029
4.96343
4.88828
4.76799
4.61831
4.42077
4.15016
3.81829
5.06949
5.03527
5.00819
4.94015
4.86206
4.74283
4.5966
4.4102
4.15681
3.85171
5.04864
5.02455
4.99115
4.91872
4.83694
4.71957
4.57674
4.40118
4.1648
3.88295
5.0212
5.01899
4.97321
4.89699
4.81252
4.69805
4.55861
4.39348
4.1736
3.91191
4.99628
5.01289
4.9531
4.87566
4.79036
4.67967
4.54457
4.3886
4.18393
3.93961
4.96493
5.00283
4.93193
4.85752
4.77312
4.66589
4.53503
4.38678
4.19633
3.96734
4.91412
4.98443
4.90631
4.83655
4.75531
4.65312
4.5276
4.38721
4.20915
3.99483
4.8545
4.95475
4.8745
4.8112
4.73457
4.63976
4.52132
4.38878
4.22228
4.02078
4.78614
4.918
4.83771
4.78328
4.71292
4.62587
4.51566
4.39065
4.23509
4.04586
4.70846
4.8782
4.79977
4.75385
4.69013
4.61123
4.50978
4.39241
4.24732
4.07019
4.63314
4.84297
4.76536
4.72476
4.66669
4.59593
4.50336
4.394
4.25879
4.09374
4.56556
4.81898
4.74256
4.69989
4.64545
4.58078
4.49654
4.39552
4.27022
4.11694
1.00234
1.00733
1.01285
1.01905
1.02593
1.03367
1.04295
1.05069
1.14938
3.88156
1.00234
1.00733
1.01285
1.01905
1.02594
1.03366
1.04295
1.05073
1.13312
3.86299
1.00234
1.00733
1.01285
1.01905
1.02594
1.03366
1.04295
1.05066
1.12012
3.82282
1.00234
1.00733
1.01285
1.01904
1.02594
1.03366
1.04296
1.05057
1.11091
3.76583
1.00234
1.00733
1.01285
1.01904
1.02594
1.03365
1.04297
1.05055
1.10236
3.68832
1.00234
1.00733
1.01285
1.01904
1.02594
1.03364
1.04298
1.05057
1.09581
3.59808
1.00234
1.00733
1.01286
1.01904
1.02595
1.03363
1.04299
1.05061
1.09144
3.49799
1.00234
1.00733
1.01286
1.01904
1.02595
1.03362
1.04298
1.05069
1.0888
3.38477
1.00234
1.00733
1.01286
1.01903
1.02595
1.03361
1.04297
1.05081
1.08527
3.26975
1.00234
1.00733
1.01286
1.01903
1.02595
1.0336
1.04297
1.05097
1.0781
3.15513
1.00234
1.00733
1.01286
1.01903
1.02596
1.0336
1.04297
1.05117
1.07073
3.04561
1.00234
1.00733
1.01286
1.01903
1.02596
1.03359
1.04298
1.05138
1.06573
2.93949
1.00234
1.00733
1.01286
1.01903
1.02596
1.0336
1.04293
1.0516
1.06285
2.83599
1.00234
1.00733
1.01286
1.01903
1.02596
1.03361
1.04285
1.05181
1.06172
2.73686
1.00234
1.00733
1.01286
1.01903
1.02596
1.03362
1.04277
1.05199
1.0613
2.64206
1.00234
1.00733
1.01286
1.01903
1.02596
1.03363
1.04268
1.05216
1.06115
2.55102
1.00235
1.00733
1.01286
1.01903
1.02596
1.03365
1.04261
1.05232
1.06107
2.46441
1.00235
1.00733
1.01286
1.01902
1.02596
1.03365
1.04256
1.05246
1.06101
2.38231
1.00235
1.00733
1.01286
1.01902
1.02596
1.03366
1.04252
1.05258
1.06097
2.30502
1.00235
1.00733
1.01286
1.01902
1.02596
1.03366
1.0425
1.05269
1.06093
2.23055
1.00235
1.00733
1.01286
1.01902
1.02596
1.03366
1.0425
1.05269
1.06093
2.23105
1.00235
1.00733
1.01286
1.01902
1.02596
1.03366
1.04252
1.05258
1.06097
2.30536
1.00235
1.00733
1.01286
1.01902
1.02596
1.03365
1.04256
1.05246
1.06101
2.38241
1.00235
1.00733
1.01286
1.01903
1.02596
1.03365
1.04261
1.05232
1.06108
2.46428
1.00234
1.00733
1.01286
1.01903
1.02596
1.03363
1.04268
1.05216
1.06116
2.55074
1.00234
1.00733
1.01286
1.01903
1.02596
1.03362
1.04277
1.05199
1.06131
2.64168
1.00234
1.00733
1.01286
1.01903
1.02596
1.03361
1.04285
1.05181
1.06174
2.7364
1.00234
1.00733
1.01286
1.01903
1.02596
1.0336
1.04293
1.0516
1.06287
2.83537
1.00234
1.00733
1.01286
1.01903
1.02596
1.03359
1.04297
1.05137
1.06575
2.93875
1.00234
1.00733
1.01286
1.01903
1.02596
1.0336
1.04297
1.05117
1.07076
3.04485
1.00234
1.00733
1.01286
1.01903
1.02595
1.0336
1.04297
1.05097
1.07815
3.15443
1.00234
1.00733
1.01286
1.01903
1.02595
1.03361
1.04297
1.05081
1.08531
3.2691
1.00234
1.00733
1.01286
1.01904
1.02595
1.03362
1.04298
1.05069
1.08883
3.38418
1.00234
1.00733
1.01286
1.01904
1.02595
1.03363
1.04299
1.05061
1.09146
3.49743
1.00234
1.00733
1.01285
1.01904
1.02594
1.03364
1.04298
1.05057
1.09577
3.59756
1.00234
1.00733
1.01285
1.01904
1.02594
1.03365
1.04297
1.05055
1.10234
3.68782
1.00234
1.00733
1.01285
1.01904
1.02594
1.03366
1.04296
1.05057
1.1109
3.76542
1.00234
1.00733
1.01285
1.01905
1.02594
1.03366
1.04295
1.05066
1.12011
3.82249
1.00234
1.00733
1.01285
1.01905
1.02594
1.03366
1.04295
1.05073
1.13311
3.86279
1.00234
1.00733
1.01285
1.01905
1.02593
1.03367
1.04295
1.05069
1.1494
3.88141
4.56523
4.8177
4.73986
4.69606
4.64043
4.57548
4.49163
4.39167
4.26748
4.11554
4.6322
4.84103
4.76183
4.72032
4.66155
4.59103
4.49917
4.39111
4.25718
4.09351
4.70669
4.87543
4.79543
4.74893
4.68506
4.60679
4.50634
4.39051
4.24691
4.07117
4.7836
4.91459
4.83296
4.77834
4.70807
4.622
4.51301
4.38964
4.23574
4.04793
4.85141
4.95093
4.86964
4.80658
4.73018
4.63663
4.51955
4.38864
4.22386
4.024
4.91074
4.98045
4.9015
4.83232
4.7517
4.65102
4.52686
4.388
4.2116
3.99914
4.96112
4.99874
4.92765
4.85405
4.77065
4.66512
4.53544
4.3886
4.19961
3.97285
4.99249
5.00877
4.94953
4.87321
4.78913
4.68017
4.54619
4.39163
4.18814
3.94657
5.01748
5.01501
4.97008
4.89516
4.81209
4.69941
4.561
4.39752
4.17875
3.92045
5.04508
5.02095
4.98845
4.91745
4.83699
4.7213
4.57923
4.40565
4.17043
3.8931
5.06585
5.03205
5.00587
4.93924
4.86237
4.7448
4.59907
4.41482
4.16285
3.86375
5.08663
5.04956
5.02676
4.9626
4.88876
4.77018
4.621
4.42577
4.157
3.83263
5.11404
5.07064
5.04849
4.98589
4.91367
4.79407
4.64312
4.43827
4.15529
3.80225
5.17164
5.11738
5.08563
5.01832
4.94408
4.82271
4.66992
4.45699
4.16174
3.77735
5.25445
5.17954
5.13672
5.05675
4.97632
4.85305
4.69872
4.48069
4.17691
3.76414
5.37387
5.26989
5.21145
5.11429
5.02023
4.89059
4.7328
4.51315
4.2033
3.7697
5.5311
5.37708
5.29447
5.17835
5.07173
4.93714
4.77413
4.55474
4.24112
3.80203
5.72351
5.50938
5.40605
5.26196
5.13121
4.9902
4.82449
4.60727
4.2906
3.86029
5.89468
5.59389
5.45588
5.30032
5.15456
5.00189
4.83002
4.61376
4.29962
3.85976
6.38484
6.04485
5.80382
5.57116
5.35728
5.16061
4.96496
4.75155
4.4536
4.13243
3.75015
3.19003
2.67012
2.21343
1.8575
1.75971
1.89943
2.29013
2.3854
2.26803
3.70656
3.12585
2.59422
2.13736
1.80686
1.75173
1.95267
2.34525
2.40148
2.27706
3.65873
3.055
2.51465
2.06087
1.75805
1.7451
2.01521
2.40738
2.41982
2.2841
3.60795
2.97658
2.43176
1.97991
1.71493
1.74457
2.08627
2.46013
2.43781
2.29126
3.5526
2.89359
2.3454
1.89971
1.67903
1.75608
2.16671
2.50462
2.45631
2.2977
3.49561
2.80955
2.25628
1.81762
1.65222
1.78105
2.25027
2.53949
2.47439
2.30425
3.43566
2.72301
2.16609
1.74173
1.62664
1.82925
2.32965
2.56467
2.48955
2.31001
3.37429
2.63564
2.07316
1.67585
1.61078
1.88912
2.39794
2.5819
2.50144
2.31409
3.30887
2.54241
1.98372
1.60786
1.60043
1.9624
2.45451
2.59299
2.5077
2.31789
3.23737
2.44381
1.90286
1.55279
1.59026
2.03473
2.5008
2.5977
2.51146
2.32123
3.15696
2.34306
1.81933
1.51211
1.58261
2.10417
2.5374
2.59776
2.51508
2.3251
3.06836
2.24052
1.74008
1.47532
1.57818
2.15988
2.56557
2.6024
2.52026
2.33004
2.97021
2.13216
1.66133
1.43882
1.57624
2.20595
2.58876
2.61154
2.52797
2.33662
2.86144
2.02166
1.58843
1.40513
1.57947
2.24695
2.60732
2.62271
2.53704
2.34384
2.73792
1.90538
1.52178
1.37045
1.59413
2.29043
2.62334
2.63328
2.54555
2.34998
2.59752
1.78925
1.46373
1.33632
1.6173
2.33653
2.63595
2.64328
2.5515
2.35323
2.42315
1.67972
1.41684
1.30636
1.66802
2.38164
2.65245
2.65866
2.55448
2.35433
2.21761
1.59602
1.38432
1.2861
1.73734
2.41974
2.66902
2.67915
2.55607
2.3572
1.95862
1.54498
1.3694
1.28638
1.81551
2.45062
2.6781
2.69351
2.55624
2.36327
1.71199
1.49094
1.36042
1.3112
1.88022
2.48381
2.68349
2.70008
2.55172
2.37081
4.65639
4.27387
3.91366
3.52893
3.1139
2.68081
2.28683
1.93213
1.54688
1.24622
4.64789
4.27454
3.90966
3.52139
3.10507
2.6735
2.28086
1.92536
1.5454
1.25062
4.63804
4.2746
3.90392
3.5098
3.09183
2.66235
2.27116
1.91374
1.54283
1.25752
4.61897
4.26959
3.89345
3.49349
3.07406
2.64714
2.25768
1.89727
1.54047
1.26776
4.59766
4.26008
3.87645
3.47141
3.05109
2.62799
2.2405
1.876
1.53814
1.28224
4.58472
4.24713
3.85482
3.44438
3.02354
2.60469
2.21949
1.85086
1.53604
1.30237
4.56509
4.23054
3.82836
3.41236
2.99017
2.57596
2.19417
1.82207
1.53343
1.33078
4.54433
4.20986
3.79853
3.37526
2.95039
2.54147
2.16356
1.79025
1.52716
1.37686
4.52224
4.18384
3.76344
3.33161
2.90337
2.50058
2.12705
1.75404
1.51458
1.44306
4.49714
4.15316
3.72336
3.28052
2.84944
2.45414
2.08272
1.71682
1.50905
1.52709
4.47079
4.11812
3.67745
3.22227
2.79079
2.40221
2.02859
1.68147
1.51694
1.6286
4.44448
4.07483
3.61818
3.15525
2.7286
2.34541
1.96654
1.66026
1.53841
1.73822
4.41524
4.02084
3.54675
3.0818
2.66347
2.28115
1.89936
1.65074
1.59215
1.85662
4.37176
3.94235
3.45354
2.99966
2.59082
2.20942
1.83739
1.64432
1.70872
1.97223
4.29926
3.83468
3.34544
2.90658
2.50849
2.12579
1.79753
1.67344
1.86933
2.07025
4.19302
3.70042
3.2368
2.80377
2.41078
2.03546
1.77121
1.72761
2.05076
2.14335
4.06218
3.57714
3.13051
2.69607
2.30194
1.9458
1.75713
1.82608
2.20295
2.19515
3.95749
3.47942
3.02348
2.58449
2.18534
1.87128
1.7696
1.95516
2.2978
2.23351
3.88044
3.38388
2.9142
2.46417
2.06021
1.82223
1.79252
2.08313
2.3512
2.23734
3.80933
3.28739
2.77951
2.32692
1.94142
1.77891
1.84046
2.20525
2.36839
2.25204
3.80982
3.28145
2.77021
2.36431
2.00056
1.72461
1.71809
2.08124
2.37878
2.22822
3.88392
3.37908
2.90942
2.48735
2.11605
1.77828
1.69519
1.92116
2.32006
2.20675
3.96263
3.47917
3.02691
2.60187
2.22263
1.86238
1.70311
1.80028
2.23225
2.19078
4.06802
3.58045
3.13669
2.71038
2.32835
1.95508
1.72927
1.71836
2.10503
2.1491
4.19904
3.70705
3.24519
2.81673
2.43041
2.05568
1.76604
1.68538
1.95318
2.0976
4.30452
3.84302
3.35486
2.92156
2.52525
2.14763
1.8052
1.67433
1.81556
2.02588
4.37577
3.95128
3.46577
3.01799
2.61142
2.22683
1.85403
1.66657
1.70421
1.9408
4.41749
4.02897
3.55978
3.10087
2.6837
2.29704
1.90888
1.67107
1.62599
1.84971
4.44484
4.08159
3.63054
3.17207
2.74712
2.35674
1.9648
1.68101
1.57233
1.75814
4.46978
4.12288
3.68768
3.23623
2.80546
2.41079
2.02144
1.69188
1.54248
1.67148
4.49538
4.15594
3.73081
3.29206
2.86058
2.46015
2.07278
1.71194
1.52888
1.58452
4.52007
4.18522
3.76884
3.34003
2.91182
2.5047
2.1186
1.74064
1.5242
1.50365
4.54212
4.20999
3.8021
3.38101
2.95616
2.54383
2.15685
1.77548
1.52916
1.42909
4.56318
4.22978
3.82989
3.41529
2.99325
2.57663
2.18857
1.80931
1.53627
1.36528
4.58332
4.24561
3.85441
3.44466
3.02388
2.60343
2.2142
1.84101
1.53696
1.32058
4.59705
4.25799
3.87429
3.46918
3.04864
2.62488
2.2346
1.8686
1.5357
1.28948
4.61895
4.26729
3.88993
3.4891
3.06904
2.64203
2.25093
1.89127
1.53628
1.2663
4.63858
4.2727
3.8994
3.50362
3.08455
2.65531
2.26323
1.90854
1.53806
1.24916
4.64884
4.27252
3.90467
3.5141
3.09615
2.66484
2.2718
1.92054
1.54119
1.23793
4.65759
4.27192
3.9085
3.52096
3.10381
2.6709
2.27681
1.92748
1.54318
1.23172
4.48178
4.79949
4.7282
4.68388
4.62629
4.5654
4.48897
4.39826
4.28593
4.14945
4.36899
4.78132
4.72225
4.67801
4.62101
4.56032
4.4912
4.41181
4.31294
4.19373
4.23613
4.77017
4.72928
4.68698
4.63404
4.58057
4.51886
4.44741
4.36119
4.25594
4.07012
4.77297
4.75991
4.72235
4.67763
4.62903
4.57568
4.51646
4.44116
4.34543
3.77085
4.75543
4.82808
4.79449
4.7528
4.71012
4.6606
4.60345
4.52899
4.44682
3.17666
4.66759
4.91685
4.88425
4.84132
4.79879
4.74648
4.68605
4.61387
4.53397
2.41794
4.45093
5.04654
4.97765
4.92336
4.86715
4.81115
4.74867
4.67664
4.58786
1.85082
3.90466
5.07078
5.02403
4.98205
4.92138
4.86395
4.78226
4.71584
4.61967
1.54421
3.15792
5.06766
5.0568
5.01561
4.95923
4.8982
4.81826
4.74247
4.64004
1.39644
2.40832
4.9438
5.07523
5.0603
4.9899
4.93081
4.85164
4.77321
4.66546
1.31851
1.84264
4.71736
5.13324
5.07327
5.02408
4.95846
4.88277
4.80124
4.69793
1.27034
1.44463
4.42408
5.2253
5.15667
5.06226
4.98929
4.90938
4.82434
4.72771
1.23747
1.27188
4.04888
5.2911
5.21979
5.12778
5.0166
4.93729
4.84718
4.75499
1.21427
1.22783
3.73911
5.27757
5.22732
5.16424
5.06542
4.94639
4.86937
4.77295
1.19711
1.20715
3.54236
5.24589
5.19399
5.16355
5.08966
4.97906
4.87027
4.79741
1.18422
1.1932
3.40491
5.22074
5.16728
5.14877
5.09639
5.01079
4.8841
4.81175
1.17496
1.18324
3.29982
5.19575
5.15535
5.13807
5.09979
5.02616
4.91169
4.81683
1.16883
1.17661
3.21862
5.17959
5.15115
5.13272
5.10405
5.0367
4.93347
4.81515
1.16521
1.17278
3.15844
5.17287
5.15087
5.13111
5.10997
5.04458
4.94479
4.81871
1.16334
1.17094
3.12959
5.16458
5.14726
5.12854
5.11556
5.05008
4.95248
4.8284
1.00235
1.00732
1.01286
1.01902
1.02596
1.03367
1.0425
1.0528
1.06091
2.14018
1.00235
1.00732
1.01287
1.01902
1.02597
1.03366
1.04253
1.05292
1.06093
2.03086
1.00235
1.00732
1.01287
1.01902
1.02597
1.03367
1.04253
1.05301
1.06097
1.91556
1.00235
1.00732
1.01287
1.01902
1.02597
1.03367
1.04251
1.05308
1.06104
1.79074
1.00235
1.00732
1.01287
1.01902
1.02597
1.03368
1.04247
1.05315
1.06112
1.66286
1.00235
1.00732
1.01287
1.01902
1.02597
1.03369
1.04243
1.0532
1.06121
1.53945
1.00235
1.00732
1.01287
1.01902
1.02597
1.0337
1.04239
1.05322
1.0613
1.42711
1.00235
1.00732
1.01287
1.01902
1.02596
1.03371
1.04236
1.05324
1.06139
1.33945
1.00235
1.00732
1.01287
1.01902
1.02596
1.03372
1.04234
1.05324
1.06146
1.2794
1.00235
1.00732
1.01287
1.01902
1.02595
1.03373
1.04233
1.05323
1.06153
1.2382
1.00235
1.00732
1.01286
1.01903
1.02594
1.03374
1.04232
1.05322
1.06158
1.20785
1.00235
1.00733
1.01286
1.01903
1.02594
1.03375
1.04232
1.05321
1.06162
1.18434
1.00235
1.00733
1.01286
1.01903
1.02593
1.03375
1.04232
1.05321
1.06165
1.16608
1.00235
1.00733
1.01286
1.01904
1.02593
1.03376
1.04231
1.05321
1.06168
1.15225
1.00235
1.00733
1.01286
1.01904
1.02592
1.03377
1.04231
1.05322
1.0617
1.14184
1.00234
1.00733
1.01286
1.01904
1.02592
1.03377
1.04231
1.05324
1.06172
1.13411
1.00234
1.00733
1.01286
1.01904
1.02592
1.03378
1.0423
1.05326
1.06173
1.12861
1.00234
1.00733
1.01285
1.01904
1.02592
1.03378
1.0423
1.05329
1.06174
1.12486
1.00234
1.00733
1.01285
1.01904
1.02591
1.03378
1.04229
1.05331
1.06175
1.12245
1.00234
1.00733
1.01285
1.01905
1.02591
1.03379
1.04229
1.05334
1.06175
1.12101
1.00234
1.00733
1.01285
1.01905
1.02591
1.03379
1.04229
1.05334
1.06175
1.12102
1.00234
1.00733
1.01285
1.01904
1.02591
1.03378
1.04229
1.05331
1.06175
1.12245
1.00234
1.00733
1.01285
1.01904
1.02592
1.03378
1.0423
1.05329
1.06174
1.12485
1.00234
1.00733
1.01286
1.01904
1.02592
1.03378
1.0423
1.05326
1.06173
1.12859
1.00234
1.00733
1.01286
1.01904
1.02592
1.03377
1.04231
1.05324
1.06172
1.13407
1.00235
1.00733
1.01286
1.01904
1.02592
1.03377
1.04231
1.05322
1.0617
1.14179
1.00235
1.00733
1.01286
1.01904
1.02593
1.03376
1.04231
1.05321
1.06168
1.15219
1.00235
1.00733
1.01286
1.01903
1.02593
1.03375
1.04232
1.05321
1.06165
1.16601
1.00235
1.00733
1.01286
1.01903
1.02594
1.03375
1.04232
1.05321
1.06162
1.18425
1.00235
1.00732
1.01286
1.01903
1.02594
1.03374
1.04232
1.05322
1.06158
1.20777
1.00235
1.00732
1.01287
1.01902
1.02595
1.03373
1.04233
1.05323
1.06153
1.23815
1.00235
1.00732
1.01287
1.01902
1.02596
1.03372
1.04234
1.05324
1.06146
1.27942
1.00235
1.00732
1.01287
1.01902
1.02596
1.03371
1.04236
1.05324
1.06139
1.33958
1.00235
1.00732
1.01287
1.01902
1.02597
1.0337
1.04239
1.05322
1.0613
1.42746
1.00235
1.00732
1.01287
1.01902
1.02597
1.03369
1.04243
1.0532
1.06121
1.54012
1.00235
1.00732
1.01287
1.01902
1.02597
1.03368
1.04247
1.05315
1.06112
1.66377
1.00235
1.00732
1.01287
1.01902
1.02597
1.03367
1.04251
1.05308
1.06104
1.79179
1.00235
1.00732
1.01287
1.01902
1.02597
1.03367
1.04253
1.05301
1.06097
1.91648
1.00235
1.00732
1.01287
1.01902
1.02597
1.03366
1.04253
1.05292
1.06093
2.03163
1.00235
1.00732
1.01286
1.01902
1.02596
1.03367
1.0425
1.0528
1.06091
2.1408
1.16334
1.17095
3.13064
5.16211
5.14437
5.12603
5.11264
5.04626
4.94855
4.82514
1.16519
1.17277
3.15948
5.17069
5.14825
5.12877
5.1073
5.04118
4.94128
4.81564
1.1688
1.17659
3.21992
5.1779
5.14901
5.13071
5.10161
5.03366
4.9306
4.81267
1.17491
1.18321
3.30121
5.19453
5.1538
5.13661
5.098
5.0241
4.91004
4.81542
1.18415
1.19315
3.40598
5.22006
5.1665
5.14814
5.09552
5.01008
4.88364
4.81166
1.19703
1.20708
3.54281
5.24584
5.19419
5.16377
5.09008
4.98005
4.8711
4.79859
1.21417
1.22769
3.73871
5.27812
5.22846
5.1656
5.06749
4.94856
4.87163
4.77531
1.23733
1.27146
4.04746
5.2924
5.222
5.13069
5.01959
4.94033
4.85043
4.75807
1.27016
1.44314
4.42343
5.22753
5.15971
5.06578
4.9927
4.91298
4.82798
4.73104
1.31828
1.84073
4.71786
5.13627
5.07651
5.02735
4.96205
4.8865
4.8049
4.70128
1.39617
2.40654
4.9456
5.07803
5.06354
4.99333
4.93434
4.85518
4.77661
4.66847
1.54391
3.15682
5.07005
5.05985
5.0187
4.96234
4.90124
4.8214
4.74522
4.64236
1.85072
3.90478
5.07308
5.02662
4.98439
4.92367
4.86624
4.78464
4.71746
4.6211
2.41858
4.45174
5.04827
4.97929
4.92473
4.86862
4.81256
4.75018
4.67748
4.58754
3.17852
4.66784
4.91701
4.88474
4.84181
4.79935
4.74714
4.68653
4.61345
4.53197
3.77324
4.7552
4.82737
4.79404
4.75255
4.70982
4.66015
4.60237
4.52673
4.44352
4.07152
4.77251
4.75895
4.72133
4.67652
4.62758
4.57368
4.51359
4.43735
4.34102
4.23732
4.76989
4.72838
4.68571
4.6321
4.57768
4.51519
4.44292
4.3562
4.25103
4.36978
4.7811
4.72118
4.67607
4.61784
4.55597
4.48607
4.40655
4.30784
4.18928
4.482
4.79879
4.7263
4.68086
4.6219
4.56017
4.48349
4.39335
4.28181
4.14648
)
;

boundaryField
{
    inlet
    {
        type            fixedValue;
        value           uniform 1;
    }
    outlet
    {
        type            zeroGradient;
    }
    triangle
    {
        type            zeroGradient;
    }
    top
    {
        type            symmetryPlane;
    }
    bottom
    {
        type            symmetryPlane;
    }
    defaultFaces
    {
        type            empty;
    }
}


// ************************************************************************* //
