/*--------------------------------*- C++ -*----------------------------------*\
  =========                 |
  \\      /  F ield         | OpenFOAM: The Open Source CFD Toolbox
   \\    /   O peration     | Website:  https://openfoam.org
    \\  /    A nd           | Version:  8
     \\/     M anipulation  |
\*---------------------------------------------------------------------------*/
FoamFile
{
    version     2.0;
    format      ascii;
    class       volScalarField;
    location    "4";
    object      rho;
}
// * * * * * * * * * * * * * * * * * * * * * * * * * * * * * * * * * * * * * //

dimensions      [1 -3 0 0 0 0 0];

internalField   nonuniform List<scalar> 
2600
(
1.25194
1.27242
1.31286
1.43479
1.91988
2.37206
2.38214
2.40476
2.38628
2.35595
1.2261
1.22634
1.2842
1.43098
1.90358
2.36011
2.31672
2.32585
2.33347
2.34321
1.21498
1.21717
1.27242
1.39157
1.8784
2.33593
2.25256
2.25118
2.27779
2.32474
1.20952
1.20726
1.2641
1.35396
1.85574
2.29834
2.19928
2.20092
2.23192
2.3019
1.20912
1.1953
1.24222
1.32846
1.83062
2.24515
2.15702
2.16658
2.20043
2.27354
1.20995
1.17608
1.20122
1.28837
1.7997
2.18877
2.13187
2.15384
2.18347
2.24357
1.20424
1.15747
1.16784
1.24247
1.76217
2.11831
2.11021
2.14513
2.17176
2.21095
1.19803
1.1411
1.15169
1.20699
1.72496
2.04537
2.09994
2.1405
2.16265
2.17422
1.18051
1.12011
1.14538
1.19967
1.6885
1.98091
2.0894
2.1565
2.16585
2.13602
1.16458
1.09787
1.14998
1.22318
1.66976
1.91574
2.1003
2.17999
2.17264
2.10085
1.14791
1.07043
1.14856
1.26445
1.66375
1.89842
2.1141
2.22236
2.18596
2.06892
1.13418
1.04121
1.15521
1.31038
1.68278
1.87081
2.15518
2.27139
2.20261
2.06142
1.12665
1.01293
1.15672
1.36884
1.69966
1.86947
2.19125
2.3237
2.23971
2.06251
1.11972
0.990633
1.16456
1.40578
1.72936
1.86578
2.2233
2.37239
2.2733
2.06942
1.11567
0.979929
1.17596
1.45692
1.7517
1.86228
2.25663
2.41574
2.31156
2.08366
1.11111
0.985078
1.21776
1.51354
1.76384
1.86571
2.29677
2.45301
2.35005
2.10057
1.10966
1.00981
1.27125
1.58129
1.7876
1.89523
2.34676
2.48992
2.38745
2.13827
1.10991
1.04439
1.33686
1.65631
1.85094
1.96146
2.39777
2.52735
2.42475
2.18519
1.12088
1.09091
1.36937
1.716
1.93135
2.04705
2.43954
2.55555
2.45671
2.23763
1.12953
1.13312
1.39553
1.75338
2.00484
2.11618
2.46856
2.57385
2.47984
2.28479
1.37426
1.17771
1.40886
1.774
2.06058
2.18009
2.49213
2.58672
2.4958
2.32258
1.66456
1.2471
1.42987
1.7903
2.09081
2.23072
2.51087
2.59194
2.50994
2.35263
1.91476
1.34131
1.47775
1.79496
2.09501
2.25802
2.52746
2.59227
2.52078
2.36465
2.11002
1.4605
1.52852
1.78357
2.07898
2.2816
2.54633
2.59387
2.528
2.36881
2.2692
1.60326
1.56984
1.76695
2.0504
2.29938
2.56705
2.59966
2.53476
2.37397
2.39802
1.74444
1.61061
1.75698
2.01425
2.29879
2.58172
2.61119
2.5431
2.38019
2.50906
1.87767
1.65143
1.75465
1.97417
2.27702
2.5858
2.62537
2.55237
2.3845
2.6084
1.99315
1.70343
1.76484
1.93384
2.22773
2.58159
2.63851
2.55962
2.38656
2.69977
2.09906
1.7607
1.78544
1.90062
2.16458
2.56226
2.64639
2.56293
2.38809
2.78371
2.19306
1.83317
1.80817
1.87709
2.10584
2.52998
2.64748
2.56489
2.39108
2.85864
2.2844
1.91414
1.82705
1.86286
2.05055
2.48897
2.64449
2.56654
2.39421
2.92417
2.37027
1.99088
1.85524
1.85069
1.99748
2.43885
2.63461
2.56604
2.39569
2.98228
2.45033
2.06675
1.89503
1.83396
1.94625
2.37845
2.61905
2.56209
2.39536
3.03369
2.52644
2.13696
1.94387
1.82471
1.89962
2.30521
2.58767
2.55122
2.39332
3.08127
2.59775
2.20821
1.99178
1.82573
1.86791
2.21956
2.54468
2.53769
2.39011
3.12453
2.66594
2.27678
2.04044
1.84117
1.85151
2.12441
2.49242
2.52261
2.38615
3.1658
2.73064
2.34472
2.08976
1.86697
1.83585
2.04
2.43107
2.50796
2.38153
3.20316
2.79163
2.41035
2.13802
1.9034
1.82123
1.97265
2.36639
2.4929
2.37642
3.23903
2.8472
2.47324
2.1877
1.94192
1.80826
1.92169
2.30082
2.47751
2.37093
3.27247
2.89688
2.53207
2.23853
1.97816
1.80516
1.88076
2.23326
2.46231
2.36434
4.24806
4.08414
3.96936
3.85863
3.7558
3.65995
3.56308
3.45679
3.30493
3.09392
4.04234
3.89563
3.82808
3.75083
3.67657
3.59807
3.50936
3.39793
3.23225
2.9729
4.01423
3.90933
3.85643
3.78093
3.70946
3.63175
3.54116
3.42517
3.25508
3.01588
3.96832
3.8903
3.84625
3.78284
3.72249
3.64602
3.5541
3.43233
3.26023
3.01519
3.93264
3.878
3.84584
3.79135
3.73684
3.6622
3.57206
3.44806
3.27485
3.03355
3.90962
3.86972
3.84522
3.7996
3.75236
3.68109
3.59282
3.46892
3.29749
3.06797
3.89921
3.87069
3.8529
3.81491
3.77214
3.70275
3.61593
3.49445
3.32646
3.11127
3.89702
3.87435
3.86371
3.83044
3.79078
3.72389
3.63914
3.52215
3.35967
3.15998
3.90798
3.88949
3.88
3.84785
3.80934
3.74468
3.6621
3.5507
3.39518
3.20919
3.9216
3.90548
3.89484
3.86218
3.82321
3.7602
3.68027
3.57523
3.4286
3.25474
3.93415
3.92372
3.90968
3.87461
3.83375
3.77185
3.69382
3.59472
3.45717
3.29403
3.94137
3.94349
3.92252
3.88454
3.84124
3.77996
3.70299
3.60917
3.48054
3.32696
3.94758
3.9631
3.93273
3.89229
3.84682
3.78606
3.71017
3.62059
3.50009
3.35506
3.9497
3.97856
3.93938
3.89873
3.85212
3.79175
3.71682
3.63053
3.51754
3.38039
3.94288
3.98442
3.94024
3.90091
3.85468
3.79579
3.72256
3.63968
3.53315
3.40393
3.92847
3.98214
3.93578
3.89877
3.85377
3.79777
3.72744
3.64814
3.54766
3.42546
3.90576
3.97471
3.92703
3.89356
3.85079
3.7981
3.73158
3.65586
3.56123
3.4457
3.87597
3.9647
3.91698
3.88681
3.84639
3.79734
3.73502
3.66306
3.57407
3.46528
3.84699
3.95774
3.9096
3.88081
3.84209
3.7965
3.7383
3.67026
3.58656
3.48462
3.82271
3.95805
3.90965
3.87801
3.83998
3.79656
3.74205
3.678
3.59955
3.50414
1.40235
1.40733
1.41284
1.419
1.42585
1.43352
1.44268
1.45042
1.50751
3.15588
1.40235
1.40733
1.41284
1.419
1.42585
1.43351
1.44268
1.45046
1.50449
3.16284
1.40235
1.40733
1.41284
1.419
1.42585
1.43352
1.44268
1.45037
1.50751
3.17568
1.40235
1.40733
1.41284
1.419
1.42585
1.43351
1.44269
1.45025
1.50655
3.18131
1.40235
1.40733
1.41284
1.419
1.42585
1.4335
1.44271
1.45021
1.50077
3.16743
1.40235
1.40733
1.41284
1.419
1.42585
1.43349
1.44272
1.45023
1.49479
3.13637
1.40235
1.40733
1.41284
1.41899
1.42586
1.43348
1.44273
1.45026
1.49055
3.09221
1.40235
1.40733
1.41284
1.41899
1.42586
1.43347
1.44273
1.45035
1.48793
3.03571
1.40235
1.40733
1.41284
1.41899
1.42586
1.43346
1.44272
1.45046
1.48442
2.97596
1.40235
1.40733
1.41284
1.41899
1.42587
1.43345
1.44272
1.45062
1.47736
2.91533
1.40235
1.40733
1.41284
1.41899
1.42587
1.43345
1.44272
1.45081
1.47012
2.8573
1.40235
1.40733
1.41284
1.41899
1.42587
1.43345
1.44272
1.45102
1.4652
2.80058
1.40235
1.40733
1.41284
1.41899
1.42587
1.43345
1.44268
1.45123
1.46236
2.74385
1.40235
1.40733
1.41284
1.41898
1.42587
1.43346
1.44261
1.45144
1.46124
2.68776
1.40235
1.40732
1.41284
1.41898
1.42587
1.43347
1.44252
1.45162
1.46082
2.63208
1.40235
1.40732
1.41284
1.41898
1.42587
1.43348
1.44244
1.45179
1.46067
2.57668
1.40235
1.40732
1.41284
1.41898
1.42587
1.43349
1.44237
1.45194
1.46059
2.52263
1.40235
1.40732
1.41284
1.41898
1.42587
1.4335
1.44231
1.45208
1.46053
2.4707
1.40235
1.40732
1.41285
1.41898
1.42587
1.43351
1.44228
1.4522
1.46048
2.42152
1.40235
1.40732
1.41285
1.41898
1.42587
1.43351
1.44226
1.45231
1.46044
2.37392
1.40235
1.40732
1.41285
1.41898
1.42587
1.43351
1.44226
1.45231
1.46044
2.37416
1.40235
1.40732
1.41285
1.41898
1.42587
1.43351
1.44228
1.4522
1.46048
2.42165
1.40235
1.40732
1.41284
1.41898
1.42587
1.4335
1.44231
1.45208
1.46053
2.47069
1.40235
1.40732
1.41284
1.41898
1.42587
1.43349
1.44237
1.45194
1.46059
2.52248
1.40235
1.40732
1.41284
1.41898
1.42587
1.43348
1.44244
1.45179
1.46068
2.57646
1.40235
1.40732
1.41284
1.41898
1.42587
1.43347
1.44252
1.45162
1.46083
2.63182
1.40235
1.40733
1.41284
1.41898
1.42587
1.43346
1.44261
1.45144
1.46126
2.68747
1.40235
1.40733
1.41284
1.41899
1.42587
1.43345
1.44268
1.45123
1.46238
2.74347
1.40235
1.40733
1.41284
1.41899
1.42587
1.43345
1.44272
1.45101
1.46523
2.80015
1.40235
1.40733
1.41284
1.41899
1.42587
1.43345
1.44272
1.45081
1.47015
2.85691
1.40235
1.40733
1.41284
1.41899
1.42587
1.43345
1.44272
1.45062
1.4774
2.915
1.40235
1.40733
1.41284
1.41899
1.42586
1.43346
1.44272
1.45046
1.48446
2.97567
1.40235
1.40733
1.41284
1.41899
1.42586
1.43347
1.44273
1.45035
1.48796
3.03543
1.40235
1.40733
1.41284
1.41899
1.42586
1.43348
1.44273
1.45026
1.49056
3.09192
1.40235
1.40733
1.41284
1.419
1.42585
1.43349
1.44272
1.45023
1.49476
3.13608
1.40235
1.40733
1.41284
1.419
1.42585
1.4335
1.44271
1.45021
1.50075
3.16715
1.40235
1.40733
1.41284
1.419
1.42585
1.43351
1.44269
1.45025
1.50653
3.18107
1.40235
1.40733
1.41284
1.419
1.42585
1.43352
1.44268
1.45037
1.50749
3.17549
1.40235
1.40733
1.41284
1.419
1.42585
1.43351
1.44268
1.45046
1.50446
3.16275
1.40235
1.40733
1.41284
1.419
1.42585
1.43352
1.44268
1.45042
1.50751
3.15581
3.82224
3.95698
3.90771
3.87547
3.83676
3.7932
3.73894
3.67554
3.59777
3.50316
3.8462
3.95635
3.90726
3.87795
3.83883
3.79337
3.73559
3.66833
3.58539
3.48433
3.87475
3.96289
3.91424
3.88369
3.84317
3.79447
3.73272
3.66166
3.57358
3.4657
3.90418
3.97257
3.92409
3.89046
3.8477
3.79557
3.72974
3.65497
3.56134
3.44673
3.92669
3.97982
3.93283
3.89591
3.851
3.79567
3.7261
3.64775
3.54833
3.42715
3.94105
3.98208
3.93738
3.89831
3.85237
3.79429
3.72182
3.63985
3.53433
3.40627
3.94773
3.97622
3.93688
3.89662
3.85051
3.79107
3.71681
3.63133
3.51921
3.3835
3.94565
3.96084
3.93071
3.89084
3.84601
3.78619
3.71091
3.62213
3.50233
3.3591
3.93952
3.94137
3.92082
3.88354
3.84098
3.78067
3.70424
3.61136
3.48339
3.33203
3.93238
3.92188
3.90832
3.87401
3.83384
3.77283
3.6952
3.59723
3.46039
3.30018
3.91979
3.90387
3.89371
3.8618
3.82348
3.76136
3.6817
3.57791
3.43214
3.26216
3.90602
3.88784
3.87888
3.84748
3.80968
3.74597
3.66369
3.55364
3.39925
3.21809
3.89507
3.87285
3.86258
3.83004
3.79113
3.72522
3.64096
3.52548
3.36442
3.17044
3.89772
3.8693
3.85173
3.81443
3.77243
3.70403
3.61793
3.49815
3.33184
3.12351
3.90834
3.86853
3.84428
3.79919
3.75264
3.68231
3.59494
3.47274
3.30334
3.08221
3.93168
3.87709
3.84513
3.79105
3.73712
3.66335
3.5742
3.45189
3.28112
3.0513
3.96746
3.88948
3.8456
3.78257
3.72276
3.64707
3.55617
3.43607
3.2666
3.0358
4.01346
3.90859
3.85582
3.7806
3.70963
3.6326
3.5433
3.42873
3.26274
3.03518
4.04164
3.89496
3.82753
3.7505
3.67668
3.59883
3.51125
3.4019
3.24161
2.99699
4.24733
4.08345
3.9688
3.85823
3.75575
3.66042
3.56449
3.4602
3.31256
3.11548
3.27354
2.90542
2.54166
2.20477
1.92736
1.85586
1.97615
2.31522
2.45358
2.38951
3.24103
2.85758
2.4836
2.14646
1.8817
1.85603
2.02091
2.37474
2.47188
2.39553
3.2062
2.80506
2.42229
2.08735
1.83889
1.85417
2.07504
2.44324
2.49143
2.39864
3.16978
2.74762
2.35868
2.02378
1.80456
1.85276
2.13772
2.50319
2.51049
2.40117
3.1303
2.68708
2.29311
1.95863
1.78034
1.86052
2.20904
2.55112
2.53014
2.40235
3.08893
2.62524
2.22608
1.88931
1.76556
1.88308
2.28417
2.58542
2.54638
2.40288
3.04402
2.56053
2.15829
1.82214
1.75335
1.92728
2.35979
2.60553
2.55395
2.40182
2.99573
2.49355
2.08749
1.7621
1.74747
1.98275
2.42957
2.61337
2.55424
2.39834
2.94149
2.42061
2.01692
1.70458
1.73952
2.04976
2.48875
2.6132
2.5486
2.39372
2.87952
2.34206
1.94987
1.66279
1.72925
2.1144
2.53363
2.6068
2.54026
2.38855
2.80831
2.26066
1.87796
1.63624
1.72086
2.17308
2.56067
2.59531
2.53182
2.38409
2.72872
2.17721
1.80628
1.61355
1.71771
2.21843
2.57157
2.58666
2.52524
2.38109
2.64064
2.08862
1.73263
1.58932
1.71985
2.25629
2.57393
2.58222
2.52166
2.38003
2.54387
1.9961
1.66235
1.56491
1.72762
2.29069
2.57224
2.58007
2.52014
2.38007
2.43532
1.89423
1.59722
1.5369
1.74297
2.32419
2.56936
2.577
2.51872
2.37989
2.31154
1.78496
1.53882
1.50558
1.76292
2.35316
2.56345
2.57161
2.51519
2.37805
2.15771
1.67555
1.4884
1.47353
1.79892
2.3723
2.55609
2.56626
2.50781
2.37456
1.97065
1.57944
1.4471
1.44673
1.84161
2.37865
2.53984
2.557
2.49516
2.37157
1.73025
1.48925
1.40962
1.43208
1.88446
2.37649
2.50356
2.52918
2.47313
2.36921
1.47401
1.37218
1.35789
1.42801
1.91202
2.37572
2.44594
2.47361
2.43466
2.36486
3.98987
3.74022
3.48188
3.20632
2.91361
2.60458
2.30821
2.02657
1.70687
1.46136
3.98653
3.74036
3.47854
3.20087
2.90742
2.59927
2.30365
2.02124
1.70543
1.46504
3.98499
3.73932
3.47259
3.19167
2.89762
2.59072
2.29583
2.0117
1.70269
1.47077
3.97774
3.7333
3.46202
3.17828
2.88396
2.57858
2.2845
1.99777
1.69962
1.47919
3.9659
3.72208
3.44571
3.16011
2.86598
2.56288
2.26971
1.97944
1.69597
1.49102
3.9556
3.70661
3.42532
3.13793
2.84422
2.54357
2.25144
1.95762
1.69183
1.50743
3.93732
3.68721
3.40123
3.11204
2.81804
2.51996
2.22952
1.9329
1.68619
1.53057
3.91455
3.66438
3.37478
3.0827
2.7873
2.49203
2.20346
1.90634
1.67556
1.56863
3.88864
3.63815
3.34525
3.04923
2.75162
2.4595
2.17302
1.87704
1.65856
1.62426
3.8598
3.60912
3.313
3.0111
2.71118
2.42292
2.13701
1.84633
1.65093
1.69323
3.82965
3.57717
3.27707
2.96825
2.66723
2.38208
2.09411
1.81392
1.66048
1.77415
3.79901
3.53979
3.23244
2.91917
2.62017
2.33706
2.04573
1.78951
1.68377
1.86501
3.76636
3.49557
3.17964
2.86493
2.56992
2.28565
1.99365
1.77467
1.73319
1.96832
3.72503
3.43632
3.11243
2.80373
2.51299
2.22779
1.94348
1.76631
1.82421
2.07473
3.66696
3.35995
3.0353
2.73397
2.44772
2.16061
1.9053
1.78971
1.94139
2.16663
3.59126
3.26819
2.95755
2.6565
2.37029
2.08807
1.87476
1.83637
2.08505
2.23724
3.50244
3.18389
2.88108
2.57468
2.28422
2.01406
1.85821
1.91492
2.2274
2.29206
3.42951
3.11554
2.80359
2.48929
2.19267
1.94743
1.86805
2.01285
2.33278
2.33565
3.37284
3.04732
2.72329
2.39695
2.09493
1.89816
1.8904
2.11442
2.3993
2.35306
3.31855
2.97637
2.6238
2.2918
1.99893
1.86445
1.92825
2.2294
2.42987
2.37438
3.31886
2.9724
2.61692
2.31682
2.04488
1.81831
1.83663
2.12849
2.43808
2.35065
3.37494
3.04405
2.71957
2.41228
2.13496
1.86764
1.81452
1.99766
2.37213
2.32614
3.43261
3.11517
2.80542
2.50069
2.2186
1.94369
1.81184
1.90103
2.27982
2.30374
3.50595
3.18582
2.88483
2.58403
2.30228
2.02285
1.82925
1.83763
2.15214
2.26013
3.59485
3.27224
2.96283
2.66497
2.38362
2.10379
1.86706
1.80767
2.01571
2.2058
3.67011
3.36508
3.0413
2.74384
2.45915
2.17695
1.90957
1.7929
1.90461
2.13479
3.72739
3.4418
3.12026
2.81588
2.52718
2.24051
1.95616
1.78329
1.82129
2.05342
3.76759
3.50056
3.188
2.87761
2.5839
2.29706
2.00198
1.78759
1.76153
1.96731
3.79907
3.54403
3.24042
2.9304
2.63297
2.34518
2.04549
1.8032
1.71353
1.88344
3.82888
3.58017
3.28374
2.97759
2.67736
2.38826
2.08936
1.81949
1.68372
1.80774
3.85859
3.61085
3.31788
3.01883
2.71884
2.42726
2.1299
1.84134
1.66874
1.73712
3.88723
3.63906
3.34883
3.05486
2.7574
2.46248
2.16687
1.86738
1.66463
1.67302
3.91318
3.66455
3.3772
3.08655
2.79124
2.49374
2.19859
1.89574
1.67485
1.61151
3.93618
3.68682
3.40229
3.114
2.82013
2.52047
2.2255
1.92344
1.68749
1.55898
3.95482
3.70573
3.42509
3.13813
2.84444
2.54274
2.24767
1.95022
1.69243
1.52251
3.96565
3.72084
3.44436
3.15864
2.86431
2.56076
2.2655
1.97388
1.69409
1.49703
3.97787
3.73192
3.45975
3.17536
2.88054
2.57505
2.27968
1.99323
1.69646
1.47788
3.98546
3.73818
3.46966
3.18756
2.89267
2.58583
2.29014
2.00769
1.69928
1.46365
3.98725
3.73914
3.47531
3.19602
2.90136
2.59324
2.29714
2.01746
1.70263
1.45423
3.99074
3.73904
3.47852
3.20102
2.90676
2.59768
2.301
2.0229
1.70453
1.44899
3.79391
3.96612
3.91931
3.88499
3.84335
3.80069
3.74952
3.6906
3.6192
3.53305
3.75286
3.9811
3.94004
3.90372
3.86011
3.81567
3.76735
3.714
3.64928
3.57237
3.70022
4.00218
3.96977
3.93269
3.88946
3.84732
3.80126
3.75056
3.69172
3.62197
3.6287
4.04007
4.0146
3.97754
3.93719
3.89619
3.85289
3.80724
3.75336
3.68789
3.46655
4.07598
4.08002
4.04655
4.00513
3.96442
3.92274
3.87661
3.82081
3.76147
3.09482
4.05906
4.16378
4.12905
4.08541
4.04145
3.99545
3.94574
3.88923
3.82902
2.58059
3.94834
4.26978
4.21731
4.16633
4.11098
4.05777
4.00486
3.94654
3.87869
2.1567
3.58655
4.29546
4.26472
4.22718
4.1725
4.11636
4.0481
3.99087
3.91559
1.9049
3.07483
4.2773
4.27854
4.25628
4.21451
4.16123
4.09339
4.02803
3.94648
1.77523
2.54968
4.17122
4.27994
4.27602
4.2384
4.19515
4.13312
4.0665
3.98002
1.70443
2.12703
3.99743
4.29743
4.26775
4.24881
4.21468
4.16374
4.10006
4.01733
1.65998
1.81024
3.77493
4.32247
4.29461
4.25321
4.2231
4.18176
4.12468
4.0505
1.62935
1.66127
3.5014
4.31982
4.30015
4.26799
4.22076
4.18915
4.14131
4.07742
1.60758
1.62043
3.28933
4.26991
4.26974
4.26143
4.22622
4.17672
4.14705
4.09281
1.59144
1.60096
3.16383
4.21998
4.2204
4.23338
4.21462
4.17331
4.1324
4.10363
1.57926
1.5878
3.07994
4.18546
4.18305
4.20182
4.19468
4.16864
4.1218
4.10187
1.5705
1.57839
3.01648
4.15897
4.16213
4.18023
4.17965
4.15921
4.12059
4.09278
1.56469
1.57212
2.9675
4.14167
4.15121
4.16863
4.17267
4.15452
4.12109
4.08098
1.56127
1.5685
2.93117
4.13287
4.1466
4.164
4.1723
4.15475
4.12164
4.07592
1.55948
1.56675
2.91344
4.12608
4.14323
4.16173
4.17484
4.15715
4.12468
4.07922
1.40235
1.40732
1.41285
1.41898
1.42588
1.43351
1.44226
1.45241
1.46042
2.31608
1.40235
1.40732
1.41285
1.41897
1.42588
1.43351
1.44229
1.45253
1.46044
2.24504
1.40235
1.40732
1.41285
1.41897
1.42588
1.43351
1.44229
1.45262
1.46048
2.16818
1.40235
1.40732
1.41285
1.41897
1.42589
1.43352
1.44227
1.45269
1.46054
2.08275
1.40235
1.40732
1.41285
1.41897
1.42589
1.43353
1.44223
1.45276
1.46062
1.99077
1.40235
1.40732
1.41285
1.41897
1.42588
1.43354
1.44219
1.4528
1.46071
1.89517
1.40235
1.40732
1.41285
1.41897
1.42588
1.43355
1.44215
1.45283
1.4608
1.80148
1.40235
1.40732
1.41285
1.41897
1.42588
1.43356
1.44213
1.45284
1.46088
1.72414
1.40235
1.40732
1.41285
1.41898
1.42587
1.43357
1.44211
1.45284
1.46096
1.66908
1.40235
1.40732
1.41285
1.41898
1.42586
1.43358
1.44209
1.45284
1.46102
1.63048
1.40235
1.40732
1.41285
1.41898
1.42585
1.43359
1.44209
1.45283
1.46107
1.6018
1.40235
1.40732
1.41285
1.41899
1.42585
1.43359
1.44208
1.45282
1.46111
1.57949
1.40235
1.40732
1.41284
1.41899
1.42584
1.4336
1.44208
1.45281
1.46114
1.56212
1.40235
1.40732
1.41284
1.41899
1.42584
1.43361
1.44208
1.45282
1.46117
1.54892
1.40235
1.40733
1.41284
1.41899
1.42584
1.43361
1.44207
1.45283
1.46119
1.53895
1.40235
1.40733
1.41284
1.419
1.42583
1.43362
1.44207
1.45284
1.46121
1.53153
1.40235
1.40733
1.41284
1.419
1.42583
1.43362
1.44206
1.45287
1.46122
1.52625
1.40235
1.40733
1.41284
1.419
1.42583
1.43363
1.44206
1.45289
1.46123
1.52266
1.40235
1.40733
1.41284
1.419
1.42583
1.43363
1.44206
1.45291
1.46124
1.52033
1.40235
1.40733
1.41284
1.419
1.42582
1.43364
1.44205
1.45295
1.46124
1.51894
1.40235
1.40733
1.41284
1.419
1.42582
1.43364
1.44205
1.45295
1.46124
1.51895
1.40235
1.40733
1.41284
1.419
1.42583
1.43363
1.44206
1.45291
1.46124
1.52033
1.40235
1.40733
1.41284
1.419
1.42583
1.43363
1.44206
1.45289
1.46123
1.52265
1.40235
1.40733
1.41284
1.419
1.42583
1.43362
1.44206
1.45287
1.46122
1.52623
1.40235
1.40733
1.41284
1.419
1.42583
1.43362
1.44207
1.45284
1.46121
1.5315
1.40235
1.40733
1.41284
1.41899
1.42584
1.43361
1.44207
1.45283
1.46119
1.5389
1.40235
1.40732
1.41284
1.41899
1.42584
1.43361
1.44208
1.45282
1.46117
1.54886
1.40235
1.40732
1.41284
1.41899
1.42584
1.4336
1.44208
1.45281
1.46114
1.56205
1.40235
1.40732
1.41285
1.41899
1.42585
1.43359
1.44208
1.45282
1.46111
1.57941
1.40235
1.40732
1.41285
1.41898
1.42585
1.43359
1.44209
1.45283
1.46107
1.60172
1.40235
1.40732
1.41285
1.41898
1.42586
1.43358
1.44209
1.45284
1.46102
1.63044
1.40235
1.40732
1.41285
1.41898
1.42587
1.43357
1.44211
1.45284
1.46096
1.6691
1.40235
1.40732
1.41285
1.41897
1.42588
1.43356
1.44213
1.45284
1.46088
1.72427
1.40235
1.40732
1.41285
1.41897
1.42588
1.43355
1.44215
1.45283
1.4608
1.80182
1.40235
1.40732
1.41285
1.41897
1.42588
1.43354
1.44219
1.4528
1.46071
1.89574
1.40235
1.40732
1.41285
1.41897
1.42589
1.43353
1.44223
1.45276
1.46062
1.99145
1.40235
1.40732
1.41285
1.41897
1.42589
1.43352
1.44227
1.45269
1.46054
2.08345
1.40235
1.40732
1.41285
1.41897
1.42588
1.43351
1.44229
1.45262
1.46048
2.16875
1.40235
1.40732
1.41285
1.41897
1.42588
1.43351
1.44229
1.45253
1.46044
2.2455
1.40235
1.40732
1.41285
1.41898
1.42588
1.43351
1.44226
1.45241
1.46042
2.31642
1.55949
1.56676
2.91418
4.12522
4.14199
4.16046
4.17313
4.15478
4.12217
4.07711
1.56125
1.56849
2.93191
4.13213
4.14547
4.16281
4.17073
4.15265
4.11941
4.07396
1.56467
1.57211
2.96837
4.1411
4.15026
4.16756
4.17122
4.1526
4.11928
4.0794
1.57046
1.57837
3.01738
4.15852
4.16138
4.17939
4.17852
4.15784
4.11951
4.09185
1.5792
1.58775
3.0806
4.18515
4.18262
4.20139
4.19407
4.16813
4.12149
4.10172
1.59136
1.60089
3.16407
4.21987
4.22042
4.23341
4.2148
4.17387
4.1329
4.10423
1.60748
1.62029
3.28891
4.27001
4.27026
4.26218
4.22743
4.17803
4.14836
4.09421
1.62922
1.66087
3.50013
4.32027
4.30125
4.26965
4.22253
4.19095
4.14325
4.07936
1.65981
1.80899
3.77401
4.32352
4.29625
4.25523
4.22512
4.18394
4.12696
4.05266
1.70422
2.12547
3.99724
4.29906
4.26958
4.25072
4.21688
4.16613
4.10246
4.01957
1.77498
2.54831
4.17197
4.28148
4.2779
4.24053
4.19747
4.13551
4.06879
3.98207
1.90465
3.07402
4.27861
4.28031
4.25821
4.2166
4.16336
4.09557
4.02991
3.94808
2.15666
3.58655
4.29688
4.2664
4.22877
4.17413
4.11802
4.04976
3.992
3.91661
2.58111
3.94884
4.27091
4.21843
4.1673
4.11202
4.05875
4.00592
3.94716
3.87864
3.09606
4.05915
4.16386
4.12927
4.08565
4.04176
3.99584
3.94604
3.88901
3.82786
3.46792
4.07557
4.07942
4.04605
4.00477
3.96409
3.92236
3.87588
3.8194
3.75946
3.62922
4.03934
4.01374
3.97667
3.9363
3.8951
3.8515
3.8054
3.75102
3.6852
3.7006
4.00165
3.96892
3.93164
3.88803
3.84537
3.79887
3.74771
3.68861
3.61893
3.75303
3.98065
3.93906
3.90228
3.85799
3.81286
3.7641
3.71069
3.64612
3.56965
3.79375
3.9654
3.91787
3.88291
3.84048
3.79734
3.74606
3.68751
3.61664
3.53123
)
;

boundaryField
{
    inlet
    {
        type            calculated;
        value           uniform 1.40001;
    }
    outlet
    {
        type            calculated;
        value           nonuniform List<scalar> 
100
(
2.35074
2.32645
2.30421
2.26067
2.20648
2.13553
2.0541
1.96784
1.88388
1.80813
1.73752
1.67338
1.61181
1.55923
1.52272
1.49721
1.47803
1.46378
1.45434
1.44909
2.32255
2.35277
2.36499
2.36908
2.3741
2.3803
2.38467
2.38676
2.38821
2.39113
2.39425
2.39574
2.39544
2.39342
2.39019
2.38619
2.38153
2.37639
2.37092
2.36437
2.35635
2.34383
2.32549
2.30262
2.2742
2.24421
2.21157
2.17468
2.13628
2.10109
2.069
2.06128
2.06232
2.06939
2.08346
2.10033
2.13808
2.18487
2.23737
2.28469
2.38948
2.39557
2.39871
2.40119
2.40227
2.40271
2.40162
2.39815
2.39357
2.38848
2.38412
2.38118
2.38016
2.38021
2.37998
2.37808
2.3746
2.3717
2.36943
2.36515
1.46146
1.46514
1.47087
1.47929
1.49113
1.50755
1.53073
1.56886
1.62464
1.69377
1.7748
1.86571
1.96912
2.0757
2.16758
2.23802
2.2926
2.33587
2.35313
2.37436
)
;
    }
    triangle
    {
        type            calculated;
        value           nonuniform List<scalar> 
40
(
4.24806
4.08414
3.96936
3.85863
3.7558
3.65995
3.56308
3.45679
3.30493
3.09392
1.25194
1.2261
1.21498
1.20952
1.20912
1.20995
1.20424
1.19803
1.18051
1.16458
1.14791
1.13418
1.12665
1.11972
1.11567
1.11111
1.10966
1.10991
1.12088
1.12953
4.24733
4.08345
3.9688
3.85823
3.75575
3.66042
3.56449
3.4602
3.31256
3.11548
)
;
    }
    top
    {
        type            symmetryPlane;
    }
    bottom
    {
        type            symmetryPlane;
    }
    defaultFaces
    {
        type            empty;
    }
}


// ************************************************************************* //
