/*--------------------------------*- C++ -*----------------------------------*\
  =========                 |
  \\      /  F ield         | OpenFOAM: The Open Source CFD Toolbox
   \\    /   O peration     | Website:  https://openfoam.org
    \\  /    A nd           | Version:  8
     \\/     M anipulation  |
\*---------------------------------------------------------------------------*/
FoamFile
{
    version     2.0;
    format      ascii;
    class       volScalarField;
    location    "4";
    object      T;
}
// * * * * * * * * * * * * * * * * * * * * * * * * * * * * * * * * * * * * * //

dimensions      [0 0 0 1 0 0 0];

internalField   nonuniform List<scalar> 
2600
(
1.67606
1.60501
1.46686
1.32909
1.40122
1.48174
1.58272
1.57881
1.49505
1.41229
1.70346
1.65065
1.52251
1.37521
1.42034
1.50042
1.63188
1.63675
1.52953
1.42405
1.70267
1.66171
1.55149
1.40526
1.44139
1.52455
1.6822
1.69611
1.56781
1.43916
1.69958
1.65805
1.56644
1.43669
1.46697
1.55567
1.72945
1.74408
1.60211
1.45665
1.69803
1.65708
1.59779
1.48192
1.49727
1.59191
1.76782
1.76956
1.62696
1.47526
1.69743
1.66326
1.65208
1.5446
1.53572
1.63401
1.79485
1.7793
1.64501
1.4964
1.69379
1.67319
1.6959
1.61821
1.58457
1.67723
1.80709
1.77931
1.66025
1.52107
1.69093
1.67725
1.70774
1.67559
1.64935
1.7219
1.8122
1.77176
1.67252
1.54906
1.68128
1.66828
1.70126
1.71179
1.71916
1.76326
1.8066
1.75557
1.68131
1.57886
1.67141
1.65044
1.69243
1.7282
1.77797
1.78651
1.79368
1.72473
1.68367
1.60663
1.66002
1.62869
1.67986
1.73152
1.81458
1.80384
1.76681
1.68641
1.681
1.62419
1.64955
1.60807
1.67573
1.7378
1.8391
1.80058
1.7345
1.64694
1.66858
1.63263
1.6424
1.58755
1.67258
1.76
1.84985
1.80108
1.69856
1.61038
1.65215
1.63351
1.63548
1.5664
1.66915
1.77291
1.867
1.80157
1.66797
1.57675
1.62773
1.63063
1.62988
1.54463
1.64716
1.78049
1.87812
1.80241
1.64255
1.54681
1.59921
1.62146
1.62201
1.52449
1.61068
1.76011
1.87461
1.79553
1.61769
1.52132
1.56849
1.60053
1.6109
1.49771
1.55391
1.70102
1.84586
1.76179
1.58912
1.50198
1.53792
1.57208
1.59485
1.45275
1.49906
1.62321
1.7795
1.68886
1.55542
1.48878
1.51049
1.53616
1.57834
1.40688
1.4453
1.55528
1.68511
1.60187
1.52094
1.47876
1.4874
1.49958
1.55846
1.36701
1.40928
1.50807
1.59717
1.52979
1.49177
1.47089
1.46955
1.46798
1.56557
1.3357
1.37781
1.46908
1.52908
1.4802
1.4673
1.46388
1.45581
1.44203
1.55397
1.32968
1.353
1.43265
1.47768
1.44446
1.44591
1.45582
1.44606
1.42327
1.54684
1.33546
1.33618
1.39833
1.43842
1.41807
1.42901
1.4482
1.43945
1.41017
1.54554
1.35502
1.31952
1.3712
1.40622
1.39935
1.41682
1.44168
1.4339
1.40131
1.5482
1.37369
1.31223
1.35339
1.38039
1.38577
1.40814
1.43609
1.42869
1.39571
1.55245
1.38413
1.31813
1.34173
1.35908
1.37178
1.4001
1.43098
1.42343
1.39145
1.55689
1.39491
1.32665
1.3353
1.34092
1.35818
1.39196
1.42571
1.4178
1.38693
1.56048
1.40624
1.33755
1.33282
1.32543
1.34626
1.38599
1.42025
1.4114
1.38169
1.56315
1.41936
1.34631
1.33389
1.31546
1.33737
1.38208
1.41417
1.40389
1.37613
1.56536
1.43185
1.35575
1.33904
1.31146
1.33284
1.3798
1.40676
1.39593
1.37077
1.56752
1.44465
1.36697
1.34424
1.31101
1.33037
1.37856
1.39859
1.38795
1.3654
1.57009
1.45674
1.37954
1.34844
1.3155
1.3281
1.37741
1.38967
1.37995
1.35987
1.57352
1.46821
1.39365
1.3525
1.32261
1.32179
1.37588
1.38154
1.37306
1.35445
1.57762
1.47976
1.4066
1.3601
1.32909
1.3119
1.37394
1.37569
1.36845
1.34926
1.58247
1.49109
1.41939
1.36901
1.33489
1.30666
1.36887
1.37446
1.36653
1.34415
1.58746
1.50221
1.43091
1.37881
1.33924
1.30653
1.35967
1.3774
1.36502
1.33935
1.59253
1.51252
1.4417
1.38876
1.34126
1.31002
1.35017
1.38084
1.36366
1.33498
1.59684
1.52162
1.45151
1.39796
1.34474
1.31549
1.34104
1.38217
1.36264
1.33105
1.60058
1.52913
1.46058
1.4069
1.35008
1.31925
1.33159
1.38152
1.36229
1.32794
1.60356
1.53535
1.46908
1.41567
1.35623
1.32341
1.32079
1.37891
1.36281
1.3265
2.10476
2.07264
2.04744
2.02165
1.99702
1.9737
1.94979
1.9219
1.88105
1.85148
2.04205
2.01083
1.99574
1.97861
1.96275
1.94566
1.92544
1.89793
1.85512
1.7963
1.99668
1.97355
1.96303
1.94867
1.9365
1.92306
1.90576
1.88048
1.83943
1.77424
1.95195
1.93563
1.92762
1.91669
1.90727
1.89504
1.87908
1.85504
1.81623
1.74737
1.91374
1.90312
1.89761
1.88872
1.88063
1.86881
1.85344
1.82968
1.79215
1.72509
1.88247
1.8747
1.87087
1.86348
1.85646
1.84489
1.82948
1.80564
1.7691
1.70653
1.8579
1.85188
1.84874
1.84196
1.83477
1.82261
1.80675
1.78308
1.74773
1.6906
1.83857
1.83333
1.8301
1.82261
1.8145
1.80148
1.78506
1.7619
1.72824
1.67705
1.82364
1.81874
1.81459
1.8059
1.79654
1.78258
1.76556
1.74307
1.71132
1.66572
1.8098
1.80501
1.8002
1.79076
1.78042
1.76586
1.74859
1.72697
1.69736
1.65679
1.7966
1.79279
1.78726
1.77727
1.76635
1.75177
1.73464
1.71409
1.68656
1.6503
1.78357
1.78182
1.77501
1.7649
1.754
1.74004
1.72349
1.70424
1.67878
1.64616
1.77193
1.77085
1.76325
1.75371
1.74339
1.73044
1.71486
1.69698
1.67354
1.64393
1.75986
1.76043
1.75275
1.7443
1.73473
1.72276
1.7082
1.69163
1.67017
1.64309
1.74486
1.75138
1.74326
1.7358
1.72711
1.71621
1.70277
1.68754
1.66787
1.64304
1.73002
1.74195
1.73392
1.72765
1.71998
1.7104
1.69818
1.68423
1.66623
1.64332
1.71557
1.73226
1.72466
1.71992
1.71344
1.70513
1.69417
1.68139
1.66492
1.64385
1.7007
1.72258
1.71553
1.71231
1.70711
1.70007
1.69041
1.67876
1.66372
1.6444
1.6861
1.71314
1.70644
1.70446
1.70048
1.6948
1.68652
1.67607
1.66241
1.64473
1.67206
1.70453
1.69826
1.69672
1.69367
1.68919
1.68228
1.67312
1.66085
1.64484
1.00067
1.00209
1.00365
1.0054
1.00734
1.0095
1.0121
1.01417
1.06741
1.72193
1.00067
1.00209
1.00365
1.0054
1.00734
1.0095
1.0121
1.01418
1.05443
1.70992
1.00067
1.00209
1.00365
1.0054
1.00734
1.0095
1.0121
1.01418
1.04024
1.6853
1.00067
1.00209
1.00365
1.0054
1.00734
1.0095
1.0121
1.01417
1.03234
1.65724
1.00067
1.00209
1.00365
1.0054
1.00734
1.0095
1.0121
1.01418
1.02834
1.63024
1.00067
1.00209
1.00366
1.0054
1.00734
1.00949
1.0121
1.01419
1.02632
1.60611
1.00067
1.00209
1.00366
1.0054
1.00734
1.00949
1.0121
1.0142
1.02514
1.58372
1.00067
1.00209
1.00366
1.0054
1.00734
1.00949
1.0121
1.01422
1.02446
1.56099
1.00067
1.00209
1.00366
1.0054
1.00735
1.00949
1.01209
1.01426
1.02355
1.53821
1.00067
1.00209
1.00366
1.0054
1.00735
1.00948
1.01209
1.0143
1.02165
1.51516
1.00067
1.00209
1.00366
1.0054
1.00735
1.00948
1.01209
1.01436
1.01967
1.49227
1.00067
1.00209
1.00366
1.0054
1.00735
1.00948
1.01209
1.01441
1.0183
1.46945
1.00067
1.00209
1.00366
1.0054
1.00735
1.00948
1.01208
1.01448
1.01752
1.44702
1.00067
1.00209
1.00366
1.0054
1.00735
1.00949
1.01206
1.01454
1.01722
1.42558
1.00067
1.00209
1.00366
1.0054
1.00735
1.00949
1.01203
1.01459
1.01711
1.40531
1.00067
1.00209
1.00366
1.0054
1.00735
1.00949
1.01201
1.01463
1.01708
1.38606
1.00067
1.00209
1.00366
1.0054
1.00735
1.0095
1.01199
1.01468
1.01706
1.36769
1.00067
1.00209
1.00366
1.0054
1.00735
1.0095
1.01197
1.01472
1.01705
1.34992
1.00067
1.00209
1.00366
1.0054
1.00735
1.0095
1.01196
1.01475
1.01704
1.33265
1.00067
1.00209
1.00366
1.0054
1.00735
1.0095
1.01196
1.01478
1.01703
1.31545
1.00067
1.00209
1.00366
1.0054
1.00735
1.0095
1.01196
1.01478
1.01703
1.31561
1.00067
1.00209
1.00366
1.0054
1.00735
1.0095
1.01196
1.01475
1.01704
1.33278
1.00067
1.00209
1.00366
1.0054
1.00735
1.0095
1.01197
1.01472
1.01705
1.34999
1.00067
1.00209
1.00366
1.0054
1.00735
1.0095
1.01199
1.01468
1.01706
1.36771
1.00067
1.00209
1.00366
1.0054
1.00735
1.00949
1.01201
1.01463
1.01708
1.38603
1.00067
1.00209
1.00366
1.0054
1.00735
1.00949
1.01203
1.01459
1.01712
1.40525
1.00067
1.00209
1.00366
1.0054
1.00735
1.00949
1.01206
1.01454
1.01723
1.4255
1.00067
1.00209
1.00366
1.0054
1.00735
1.00948
1.01208
1.01448
1.01753
1.4469
1.00067
1.00209
1.00366
1.0054
1.00735
1.00948
1.01209
1.01441
1.01831
1.4693
1.00067
1.00209
1.00366
1.0054
1.00735
1.00948
1.01209
1.01436
1.01967
1.49211
1.00067
1.00209
1.00366
1.0054
1.00735
1.00948
1.01209
1.0143
1.02167
1.515
1.00067
1.00209
1.00366
1.0054
1.00735
1.00949
1.01209
1.01425
1.02356
1.53806
1.00067
1.00209
1.00366
1.0054
1.00734
1.00949
1.0121
1.01422
1.02447
1.56085
1.00067
1.00209
1.00366
1.0054
1.00734
1.00949
1.0121
1.0142
1.02515
1.58361
1.00067
1.00209
1.00366
1.0054
1.00734
1.00949
1.0121
1.01419
1.02631
1.60602
1.00067
1.00209
1.00365
1.0054
1.00734
1.0095
1.0121
1.01418
1.02834
1.63016
1.00067
1.00209
1.00365
1.0054
1.00734
1.0095
1.0121
1.01417
1.03235
1.65718
1.00067
1.00209
1.00365
1.0054
1.00734
1.0095
1.0121
1.01418
1.04025
1.68525
1.00067
1.00209
1.00365
1.0054
1.00734
1.0095
1.0121
1.01418
1.05444
1.70988
1.00067
1.00209
1.00365
1.0054
1.00734
1.0095
1.0121
1.01417
1.06743
1.7219
1.67214
1.70453
1.69814
1.69645
1.69326
1.68873
1.68184
1.67278
1.66061
1.64474
1.68611
1.71306
1.7062
1.70412
1.70005
1.69439
1.68617
1.67585
1.66232
1.64477
1.7006
1.72239
1.71518
1.71191
1.70669
1.69972
1.69016
1.67867
1.66379
1.64459
1.71536
1.73199
1.72426
1.71951
1.71305
1.70484
1.69402
1.68141
1.66512
1.6442
1.7297
1.74162
1.73349
1.72726
1.71962
1.71019
1.69813
1.68436
1.66654
1.64382
1.74447
1.75101
1.74282
1.73543
1.72683
1.71612
1.70283
1.68777
1.66828
1.64368
1.75939
1.76003
1.75234
1.744
1.73456
1.72278
1.70836
1.69196
1.67068
1.64386
1.77145
1.77041
1.76288
1.75348
1.74331
1.73057
1.71513
1.69742
1.67415
1.64485
1.78308
1.78137
1.77466
1.76469
1.75397
1.74022
1.72381
1.70477
1.67948
1.64724
1.79615
1.79234
1.78692
1.77709
1.76632
1.75196
1.73494
1.71463
1.68727
1.65154
1.80934
1.80459
1.79989
1.7906
1.78041
1.76605
1.74884
1.72748
1.69807
1.65819
1.82316
1.81834
1.81431
1.80577
1.79655
1.78279
1.76582
1.74359
1.71209
1.66736
1.83814
1.83299
1.82984
1.82251
1.81454
1.8017
1.78535
1.76248
1.72911
1.679
1.85758
1.85159
1.8485
1.84187
1.83482
1.82283
1.80708
1.78374
1.74872
1.69306
1.88219
1.87445
1.87069
1.86341
1.85652
1.84512
1.82986
1.80635
1.77024
1.70975
1.91354
1.90294
1.89748
1.88866
1.88068
1.86902
1.85383
1.83043
1.79349
1.72962
1.95177
1.93546
1.92747
1.91661
1.9073
1.89522
1.87949
1.8558
1.81767
1.75337
1.99652
1.97339
1.96287
1.94857
1.93651
1.92322
1.90622
1.88122
1.84105
1.78059
2.04189
2.01067
1.99561
1.97853
1.96275
1.94582
1.92583
1.89873
1.85694
1.80304
2.10457
2.07247
2.04731
2.02156
1.997
1.97378
1.95006
1.92249
1.88225
1.85699
1.60384
1.53715
1.47076
1.4055
1.34926
1.32747
1.34565
1.38483
1.3611
1.32883
1.60109
1.53144
1.46236
1.39407
1.34433
1.32133
1.35273
1.38262
1.36014
1.33077
1.5976
1.52475
1.45338
1.38225
1.33846
1.31765
1.35964
1.37946
1.35976
1.33315
1.59354
1.51667
1.44338
1.36966
1.33047
1.31826
1.36631
1.37592
1.35948
1.33592
1.58888
1.5076
1.43193
1.35789
1.32034
1.32141
1.37318
1.37448
1.35915
1.33902
1.58433
1.4983
1.419
1.34688
1.31013
1.32415
1.37923
1.37514
1.36043
1.34254
1.58013
1.48885
1.40506
1.33822
1.29883
1.3288
1.38213
1.37805
1.3647
1.34649
1.57692
1.47978
1.39039
1.33148
1.29049
1.33389
1.38178
1.38314
1.37106
1.35083
1.57486
1.47045
1.37695
1.32056
1.28806
1.34034
1.38074
1.38918
1.37754
1.35565
1.57399
1.46082
1.36625
1.30739
1.28748
1.34725
1.38186
1.39512
1.38413
1.36055
1.57382
1.45103
1.3563
1.2938
1.28753
1.35561
1.38728
1.40133
1.39075
1.36536
1.57426
1.44071
1.34869
1.28006
1.28628
1.36306
1.39674
1.40852
1.39725
1.36999
1.57473
1.42919
1.34239
1.26743
1.28311
1.36877
1.40807
1.4159
1.4035
1.37447
1.57478
1.41793
1.33775
1.25706
1.27995
1.37327
1.4191
1.42314
1.40939
1.37869
1.57396
1.40825
1.33388
1.24838
1.28046
1.37967
1.42942
1.43058
1.41492
1.38241
1.57321
1.40337
1.33169
1.24262
1.28436
1.39011
1.4396
1.43902
1.42022
1.38539
1.57224
1.40349
1.33269
1.24117
1.29813
1.40552
1.45278
1.45042
1.42606
1.38808
1.57545
1.41471
1.33927
1.24456
1.32074
1.42419
1.47121
1.46689
1.43419
1.39153
1.58478
1.4524
1.36006
1.25756
1.34878
1.44368
1.4976
1.49097
1.44705
1.3965
1.62604
1.52118
1.40261
1.28548
1.37672
1.4637
1.53597
1.52818
1.46732
1.40353
1.63388
1.59976
1.57362
1.54087
1.49625
1.44098
1.38704
1.33477
1.26878
1.1939
1.63226
1.59995
1.57352
1.5402
1.49518
1.43999
1.38616
1.3336
1.26863
1.19511
1.62943
1.60042
1.5739
1.53955
1.49384
1.43871
1.38496
1.33183
1.26856
1.19702
1.62569
1.60112
1.57447
1.53885
1.49229
1.43723
1.38357
1.32958
1.26891
1.19989
1.62302
1.60236
1.57501
1.53792
1.49043
1.43557
1.38199
1.32684
1.26972
1.20396
1.62267
1.60416
1.57555
1.53673
1.48828
1.43365
1.38014
1.32366
1.27108
1.20956
1.62322
1.6063
1.57582
1.53511
1.48552
1.43112
1.3778
1.31973
1.27317
1.21726
1.62524
1.60841
1.57579
1.53287
1.48192
1.42778
1.37465
1.31475
1.27601
1.22885
1.62812
1.60999
1.57502
1.52966
1.47722
1.42339
1.37039
1.30826
1.27847
1.24382
1.63118
1.61105
1.57341
1.52527
1.4714
1.41805
1.36444
1.30181
1.27969
1.26263
1.63438
1.61172
1.57105
1.51982
1.46486
1.41183
1.3562
1.29778
1.27898
1.28515
1.63787
1.61162
1.56707
1.51323
1.45794
1.40501
1.34581
1.29889
1.27914
1.30483
1.6412
1.61038
1.56164
1.50599
1.45097
1.39725
1.33379
1.30224
1.28608
1.32055
1.64307
1.60617
1.55344
1.49784
1.44336
1.38846
1.32358
1.30332
1.31137
1.33084
1.64141
1.59781
1.54305
1.4884
1.43476
1.37744
1.32082
1.30905
1.34804
1.33773
1.63459
1.58516
1.53219
1.47762
1.42392
1.36474
1.32268
1.31709
1.37698
1.34125
1.62375
1.57292
1.52121
1.46601
1.41086
1.35256
1.32386
1.33505
1.38464
1.34081
1.61554
1.56352
1.50981
1.45355
1.39533
1.34526
1.32622
1.35988
1.37901
1.33878
1.6107
1.55463
1.49815
1.43927
1.3768
1.344
1.32752
1.37929
1.37194
1.33115
1.60705
1.5463
1.48309
1.42146
1.35972
1.33577
1.33626
1.38484
1.36458
1.32787
1.60711
1.54557
1.48202
1.4287
1.36966
1.32786
1.30964
1.36892
1.36595
1.32709
1.61114
1.55409
1.49774
1.44357
1.38761
1.33302
1.30794
1.34639
1.36927
1.32815
1.61617
1.56359
1.51054
1.45665
1.40255
1.34144
1.31599
1.3258
1.37079
1.33136
1.62445
1.57343
1.52224
1.46846
1.41585
1.3531
1.32348
1.30913
1.36936
1.33123
1.6353
1.58604
1.53343
1.47973
1.42749
1.36799
1.32426
1.3053
1.35658
1.33133
1.64201
1.59885
1.54434
1.49068
1.43764
1.38115
1.32348
1.30742
1.33455
1.32858
1.64354
1.60725
1.55503
1.50049
1.44667
1.39146
1.32691
1.30838
1.31001
1.32323
1.64151
1.61133
1.56327
1.50862
1.45408
1.4
1.33489
1.30875
1.29228
1.31632
1.63798
1.61236
1.56855
1.51547
1.4607
1.40691
1.34478
1.30513
1.28464
1.30686
1.63435
1.61223
1.57222
1.52161
1.46699
1.41322
1.35449
1.30182
1.28256
1.29448
1.63105
1.61135
1.57424
1.52672
1.47299
1.41898
1.36246
1.30162
1.28267
1.27702
1.62792
1.61012
1.57559
1.5307
1.47841
1.42401
1.36882
1.30498
1.28189
1.25828
1.62502
1.60839
1.57614
1.53357
1.48273
1.42812
1.37342
1.3112
1.27822
1.24152
1.62302
1.60618
1.57596
1.53546
1.48595
1.4312
1.37677
1.31693
1.27455
1.22606
1.6225
1.60397
1.57549
1.53676
1.48832
1.43342
1.37916
1.32161
1.2714
1.21433
1.62291
1.60211
1.57476
1.53765
1.4901
1.43506
1.38091
1.32534
1.26911
1.20591
1.62563
1.60085
1.57408
1.53833
1.49162
1.43642
1.38235
1.3284
1.26782
1.19958
1.62943
1.60019
1.5734
1.53882
1.49287
1.43762
1.38355
1.33086
1.26718
1.19485
1.6323
1.59971
1.57297
1.53934
1.49399
1.43866
1.38456
1.33275
1.26726
1.19176
1.63394
1.59953
1.57306
1.53993
1.49491
1.43947
1.38529
1.33397
1.26748
1.19008
1.65384
1.69418
1.68894
1.6879
1.6852
1.68169
1.6761
1.66845
1.65791
1.64426
1.62985
1.68141
1.67794
1.67769
1.67597
1.67322
1.669
1.66305
1.65461
1.64352
1.60277
1.66866
1.66786
1.66853
1.66802
1.66683
1.6643
1.66012
1.65389
1.64505
1.57031
1.65398
1.65992
1.66216
1.66329
1.66333
1.66264
1.6608
1.65655
1.64962
1.5229
1.63338
1.65669
1.65877
1.66136
1.66334
1.66334
1.6625
1.65949
1.65509
1.43703
1.60989
1.65322
1.65607
1.65904
1.66236
1.66317
1.66268
1.66085
1.65775
1.31176
1.57821
1.6547
1.65241
1.65439
1.65752
1.65994
1.66002
1.65901
1.65598
1.20145
1.52418
1.6527
1.64927
1.65001
1.65128
1.65426
1.65391
1.65433
1.65175
1.13492
1.43783
1.6587
1.65466
1.64977
1.64739
1.64795
1.64792
1.64832
1.64604
1.10128
1.32238
1.65931
1.66015
1.65678
1.64824
1.64551
1.64339
1.64331
1.64111
1.08301
1.21282
1.65214
1.67229
1.66425
1.65546
1.64707
1.64177
1.63943
1.63719
1.07139
1.11725
1.64075
1.69242
1.68103
1.66631
1.654
1.6436
1.63749
1.63408
1.06328
1.07186
1.61891
1.71479
1.69941
1.68204
1.66398
1.65003
1.63863
1.63265
1.05747
1.06081
1.59144
1.7304
1.71398
1.69661
1.678
1.65799
1.64385
1.63266
1.05312
1.05563
1.56751
1.74036
1.72297
1.70762
1.69067
1.67031
1.64999
1.6367
1.0498
1.05208
1.54772
1.7463
1.72941
1.71552
1.70096
1.68283
1.65893
1.64229
1.0474
1.04951
1.53151
1.74901
1.73409
1.7208
1.70821
1.69183
1.66879
1.64768
1.0458
1.04779
1.51848
1.75085
1.73724
1.72379
1.7125
1.69728
1.67598
1.65186
1.04486
1.0468
1.50855
1.75231
1.73908
1.72516
1.71464
1.69985
1.67961
1.65514
1.04437
1.04632
1.50387
1.75237
1.73927
1.72524
1.71547
1.70072
1.68098
1.65713
1.00067
1.00209
1.00366
1.0054
1.00735
1.0095
1.01196
1.01481
1.01702
1.29368
1.00067
1.00209
1.00366
1.0054
1.00735
1.0095
1.01197
1.01484
1.01703
1.26644
1.00067
1.00209
1.00366
1.0054
1.00735
1.0095
1.01197
1.01487
1.01704
1.23689
1.00067
1.00209
1.00366
1.0054
1.00735
1.00951
1.01196
1.01489
1.01706
1.20372
1.00067
1.00209
1.00366
1.0054
1.00735
1.00951
1.01195
1.01491
1.01708
1.16941
1.00067
1.00209
1.00366
1.0054
1.00735
1.00951
1.01194
1.01492
1.01711
1.13723
1.00067
1.00209
1.00366
1.0054
1.00735
1.00951
1.01193
1.01493
1.01713
1.10906
1.00067
1.00209
1.00366
1.0054
1.00735
1.00952
1.01192
1.01493
1.01716
1.08764
1.00067
1.00209
1.00366
1.0054
1.00735
1.00952
1.01191
1.01493
1.01718
1.07315
1.00067
1.00209
1.00366
1.0054
1.00734
1.00952
1.01191
1.01493
1.0172
1.06317
1.00067
1.00209
1.00366
1.0054
1.00734
1.00952
1.01191
1.01493
1.01721
1.05569
1.00067
1.00209
1.00366
1.0054
1.00734
1.00953
1.01191
1.01493
1.01722
1.04975
1.00067
1.00209
1.00366
1.0054
1.00734
1.00953
1.01191
1.01492
1.01723
1.04506
1.00067
1.00209
1.00366
1.0054
1.00734
1.00953
1.01191
1.01493
1.01724
1.04147
1.00067
1.00209
1.00366
1.0054
1.00734
1.00953
1.01191
1.01493
1.01724
1.03874
1.00067
1.00209
1.00366
1.0054
1.00734
1.00953
1.0119
1.01493
1.01725
1.03671
1.00067
1.00209
1.00366
1.0054
1.00734
1.00953
1.0119
1.01494
1.01725
1.03525
1.00067
1.00209
1.00366
1.0054
1.00733
1.00954
1.0119
1.01495
1.01726
1.03426
1.00067
1.00209
1.00366
1.0054
1.00733
1.00954
1.0119
1.01495
1.01726
1.03361
1.00067
1.00209
1.00365
1.0054
1.00733
1.00954
1.0119
1.01496
1.01726
1.03323
1.00067
1.00209
1.00365
1.0054
1.00733
1.00954
1.0119
1.01496
1.01726
1.03323
1.00067
1.00209
1.00366
1.0054
1.00733
1.00954
1.0119
1.01495
1.01726
1.03361
1.00067
1.00209
1.00366
1.0054
1.00733
1.00954
1.0119
1.01495
1.01726
1.03425
1.00067
1.00209
1.00366
1.0054
1.00734
1.00953
1.0119
1.01494
1.01725
1.03525
1.00067
1.00209
1.00366
1.0054
1.00734
1.00953
1.0119
1.01493
1.01725
1.0367
1.00067
1.00209
1.00366
1.0054
1.00734
1.00953
1.01191
1.01493
1.01724
1.03873
1.00067
1.00209
1.00366
1.0054
1.00734
1.00953
1.01191
1.01493
1.01724
1.04146
1.00067
1.00209
1.00366
1.0054
1.00734
1.00953
1.01191
1.01492
1.01723
1.04505
1.00067
1.00209
1.00366
1.0054
1.00734
1.00953
1.01191
1.01493
1.01722
1.04973
1.00067
1.00209
1.00366
1.0054
1.00734
1.00952
1.01191
1.01493
1.01721
1.05567
1.00067
1.00209
1.00366
1.0054
1.00734
1.00952
1.01191
1.01493
1.0172
1.06316
1.00067
1.00209
1.00366
1.0054
1.00735
1.00952
1.01191
1.01493
1.01718
1.07315
1.00067
1.00209
1.00366
1.0054
1.00735
1.00952
1.01192
1.01493
1.01716
1.08766
1.00067
1.00209
1.00366
1.0054
1.00735
1.00951
1.01193
1.01493
1.01713
1.10913
1.00067
1.00209
1.00366
1.0054
1.00735
1.00951
1.01194
1.01492
1.01711
1.13738
1.00067
1.00209
1.00366
1.0054
1.00735
1.00951
1.01195
1.01491
1.01708
1.16964
1.00067
1.00209
1.00366
1.0054
1.00735
1.00951
1.01196
1.01489
1.01706
1.20402
1.00067
1.00209
1.00366
1.0054
1.00735
1.0095
1.01197
1.01487
1.01704
1.23716
1.00067
1.00209
1.00366
1.0054
1.00735
1.0095
1.01197
1.01484
1.01703
1.26667
1.00067
1.00209
1.00366
1.0054
1.00735
1.0095
1.01196
1.01481
1.01702
1.29386
1.04437
1.04632
1.50399
1.7519
1.73881
1.72492
1.71519
1.7004
1.68067
1.65686
1.04485
1.04679
1.50867
1.75188
1.73866
1.72487
1.71438
1.69956
1.67932
1.65488
1.04579
1.04779
1.51865
1.75052
1.73691
1.72356
1.71228
1.69705
1.67575
1.65166
1.04739
1.04951
1.5317
1.74879
1.73388
1.72065
1.70808
1.69169
1.66866
1.64757
1.04979
1.05206
1.54788
1.7462
1.72933
1.71548
1.70092
1.6828
1.65889
1.64232
1.0531
1.05561
1.56759
1.74039
1.72302
1.70768
1.69074
1.67041
1.65007
1.63686
1.05745
1.06078
1.59147
1.73053
1.71415
1.69675
1.67821
1.6582
1.6441
1.63291
1.06325
1.07176
1.61893
1.71503
1.6997
1.68234
1.66428
1.65034
1.63896
1.63293
1.07135
1.11687
1.64092
1.69273
1.68138
1.66668
1.65435
1.64395
1.63781
1.63435
1.08296
1.21245
1.6524
1.67264
1.6646
1.65579
1.6474
1.64208
1.63972
1.63744
1.10122
1.32212
1.65961
1.66047
1.65712
1.64854
1.64578
1.64364
1.64355
1.64133
1.13484
1.43772
1.65897
1.65498
1.65004
1.64761
1.64813
1.64812
1.6485
1.6462
1.2014
1.52422
1.6529
1.64947
1.65017
1.6514
1.65438
1.65405
1.65442
1.65183
1.31185
1.5783
1.65482
1.65252
1.65446
1.6576
1.66002
1.66011
1.65904
1.65589
1.43729
1.60994
1.65324
1.65614
1.65911
1.66242
1.66323
1.66272
1.6608
1.65753
1.52326
1.63347
1.65669
1.65882
1.66142
1.66338
1.66334
1.66242
1.65928
1.65475
1.57063
1.65412
1.65994
1.66216
1.66328
1.66328
1.66251
1.66055
1.65617
1.64915
1.60306
1.66878
1.6679
1.66852
1.66793
1.66662
1.66399
1.65971
1.65339
1.64454
1.63008
1.68153
1.67798
1.67761
1.67575
1.67286
1.66853
1.66255
1.65409
1.64302
1.65399
1.69424
1.68889
1.68771
1.68486
1.68124
1.6756
1.66798
1.65749
1.64393
)
;

boundaryField
{
    inlet
    {
        type            fixedValue;
        value           uniform 1;
    }
    outlet
    {
        type            inletOutlet;
        inletValue      uniform 1;
        value           nonuniform List<scalar> 
100
(
1.32704
1.32797
1.33109
1.33091
1.33092
1.32812
1.32279
1.31596
1.30656
1.2942
1.27672
1.258
1.24129
1.22586
1.21416
1.20577
1.19945
1.19474
1.19167
1.19
1.44205
1.42318
1.40997
1.40115
1.39564
1.39139
1.38683
1.38158
1.37605
1.37074
1.36538
1.35984
1.3544
1.34921
1.34411
1.33932
1.33498
1.33107
1.32795
1.32649
1.41205
1.42368
1.4387
1.45619
1.47483
1.49598
1.52065
1.54873
1.57867
1.60644
1.62413
1.63273
1.63365
1.63066
1.62162
1.60071
1.57222
1.53639
1.49976
1.46804
1.32885
1.33075
1.33311
1.33591
1.33906
1.34263
1.3466
1.35093
1.35574
1.36059
1.36535
1.36994
1.37439
1.37861
1.38235
1.38538
1.38805
1.39145
1.39637
1.40336
1.19381
1.19502
1.19694
1.19981
1.20388
1.20946
1.21713
1.22867
1.24353
1.26223
1.28468
1.30434
1.32002
1.33022
1.33714
1.34079
1.3405
1.33866
1.33111
1.32788
)
;
    }
    triangle
    {
        type            zeroGradient;
    }
    top
    {
        type            symmetryPlane;
    }
    bottom
    {
        type            symmetryPlane;
    }
    defaultFaces
    {
        type            empty;
    }
}


// ************************************************************************* //
