/*--------------------------------*- C++ -*----------------------------------*\
  =========                 |
  \\      /  F ield         | OpenFOAM: The Open Source CFD Toolbox
   \\    /   O peration     | Website:  https://openfoam.org
    \\  /    A nd           | Version:  8
     \\/     M anipulation  |
\*---------------------------------------------------------------------------*/
FoamFile
{
    version     2.0;
    format      ascii;
    class       volVectorField;
    location    "4";
    object      U;
}
// * * * * * * * * * * * * * * * * * * * * * * * * * * * * * * * * * * * * * //

dimensions      [0 1 -1 0 0 0 0];

internalField   nonuniform List<vector> 
2600
(
(0.717445 0.0290843 0)
(1.25177 0.125164 0)
(1.6926 0.221339 0)
(1.83199 0.416707 0)
(1.57739 0.336159 0)
(1.25319 0.179304 0)
(1.23983 -0.00347964 0)
(1.34979 -0.0242541 0)
(1.47717 0.0572232 0)
(1.50173 0.0500709 0)
(0.236643 -0.132941 0)
(0.824899 0.0731339 0)
(1.46588 0.14878 0)
(1.79398 0.365614 0)
(1.57243 0.344256 0)
(1.2497 0.177779 0)
(1.18095 -0.00934745 0)
(1.2624 -0.0366772 0)
(1.44899 0.0542904 0)
(1.48747 0.0497638 0)
(0.0176323 -0.140836 0)
(0.440379 0.00354206 0)
(1.12496 0.0812306 0)
(1.69114 0.346395 0)
(1.56794 0.357284 0)
(1.24299 0.180526 0)
(1.08728 0.00151915 0)
(1.13589 -0.0443396 0)
(1.39263 0.0460632 0)
(1.46845 0.04933 0)
(-0.074595 -0.161036 0)
(0.182435 -0.0710355 0)
(0.770729 -0.018536 0)
(1.51568 0.300224 0)
(1.55063 0.359392 0)
(1.21973 0.184543 0)
(0.966148 0.00496455 0)
(0.986449 -0.0509617 0)
(1.31071 0.0315937 0)
(1.4419 0.048001 0)
(-0.133585 -0.136335 0)
(0.00128741 -0.111937 0)
(0.446929 -0.0890054 0)
(1.28742 0.20847 0)
(1.50908 0.355606 0)
(1.16789 0.197245 0)
(0.833664 0.0246946 0)
(0.847202 -0.0617396 0)
(1.21777 0.00915743 0)
(1.406 0.0459878 0)
(-0.190402 -0.122524 0)
(-0.14398 -0.14211 0)
(0.162414 -0.180229 0)
(1.03535 0.109258 0)
(1.43608 0.343469 0)
(1.08002 0.216402 0)
(0.708294 0.0396962 0)
(0.750857 -0.0623739 0)
(1.12882 -0.014709 0)
(1.35952 0.044264 0)
(-0.235618 -0.0851773 0)
(-0.273299 -0.139099 0)
(-0.107443 -0.223701 0)
(0.759335 0.00760128 0)
(1.31715 0.323736 0)
(0.955888 0.2369 0)
(0.611952 0.0524648 0)
(0.708989 -0.0775947 0)
(1.04981 -0.040139 0)
(1.30184 0.0374782 0)
(-0.27626 -0.0536526 0)
(-0.380701 -0.139727 0)
(-0.328154 -0.278924 0)
(0.437787 -0.10557 0)
(1.13112 0.2937 0)
(0.798865 0.270343 0)
(0.555952 0.0643721 0)
(0.706335 -0.0999053 0)
(0.98519 -0.0611046 0)
(1.23435 0.0330622 0)
(-0.290035 -0.0096034 0)
(-0.458613 -0.137674 0)
(-0.477949 -0.294733 0)
(0.095844 -0.179926 0)
(0.868905 0.250908 0)
(0.61952 0.291579 0)
(0.534008 0.0631085 0)
(0.744818 -0.121714 0)
(0.949139 -0.0713605 0)
(1.16547 0.0274127 0)
(-0.300978 0.0304125 0)
(-0.50293 -0.120448 0)
(-0.539736 -0.306126 0)
(-0.180511 -0.247749 0)
(0.55659 0.222987 0)
(0.449671 0.285243 0)
(0.552893 0.0423529 0)
(0.827974 -0.13197 0)
(0.941979 -0.0861761 0)
(1.10873 0.0281549 0)
(-0.294114 0.074469 0)
(-0.514623 -0.0908355 0)
(-0.547033 -0.319162 0)
(-0.334089 -0.283237 0)
(0.253208 0.179824 0)
(0.344064 0.311972 0)
(0.649394 0.0251493 0)
(0.930216 -0.147417 0)
(0.950633 -0.0996439 0)
(1.0786 0.0197691 0)
(-0.27343 0.114303 0)
(-0.479658 -0.0606336 0)
(-0.492877 -0.332535 0)
(-0.368485 -0.296663 0)
(0.0228444 0.150659 0)
(0.306854 0.292182 0)
(0.80586 -0.0103917 0)
(1.02957 -0.149909 0)
(0.97973 -0.0914731 0)
(1.07132 0.0222265 0)
(-0.261902 0.15689 0)
(-0.372961 -0.0380637 0)
(-0.317503 -0.323428 0)
(-0.341687 -0.293414 0)
(-0.0706523 0.107273 0)
(0.319289 0.254738 0)
(0.964149 -0.0463147 0)
(1.11623 -0.155676 0)
(1.03019 -0.0932227 0)
(1.07423 0.0238673 0)
(-0.228672 0.183874 0)
(-0.201489 -0.0185241 0)
(-0.00715842 -0.333995 0)
(-0.18447 -0.271232 0)
(-0.0586294 0.059312 0)
(0.398656 0.215014 0)
(1.10139 -0.0810242 0)
(1.18827 -0.154688 0)
(1.08928 -0.0842892 0)
(1.08628 0.0250928 0)
(-0.180603 0.202237 0)
(0.0120939 -0.0383417 0)
(0.416144 -0.303283 0)
(0.133738 -0.241529 0)
(0.0568006 0.0507601 0)
(0.563243 0.150999 0)
(1.2179 -0.114217 0)
(1.24451 -0.157804 0)
(1.14659 -0.0752272 0)
(1.11776 0.0222981 0)
(-0.118888 0.199683 0)
(0.256434 -0.0706243 0)
(0.871201 -0.325241 0)
(0.543827 -0.220658 0)
(0.318688 0.0308873 0)
(0.820116 0.0949094 0)
(1.31589 -0.133034 0)
(1.28656 -0.157415 0)
(1.1985 -0.0704918 0)
(1.17408 0.0280551 0)
(-0.0376725 0.198037 0)
(0.536681 -0.154388 0)
(1.25509 -0.343299 0)
(0.93537 -0.179874 0)
(0.689524 0.0507446 0)
(1.11321 0.0321995 0)
(1.38799 -0.144293 0)
(1.31712 -0.154748 0)
(1.24287 -0.0618044 0)
(1.24795 0.0283483 0)
(0.0743666 0.15256 0)
(0.884376 -0.239525 0)
(1.50879 -0.350886 0)
(1.22061 -0.176615 0)
(1.0556 0.0339453 0)
(1.36118 -0.0104666 0)
(1.43107 -0.146514 0)
(1.3396 -0.146864 0)
(1.27963 -0.0559422 0)
(1.32416 0.0246669 0)
(0.338281 0.120809 0)
(1.25972 -0.334168 0)
(1.63529 -0.390613 0)
(1.38368 -0.172228 0)
(1.31341 0.0402776 0)
(1.51497 -0.0484422 0)
(1.45185 -0.150567 0)
(1.35507 -0.139784 0)
(1.3093 -0.050267 0)
(1.3889 0.0293853 0)
(0.895348 -0.0880156 0)
(1.56506 -0.403513 0)
(1.68123 -0.387215 0)
(1.46108 -0.183372 0)
(1.44924 0.0168371 0)
(1.58846 -0.0819478 0)
(1.45977 -0.152447 0)
(1.36588 -0.132457 0)
(1.33322 -0.0484533 0)
(1.43498 0.0253015 0)
(1.50601 -0.0382368 0)
(1.74045 -0.421825 0)
(1.68987 -0.40869 0)
(1.49945 -0.20153 0)
(1.5149 -0.00199927 0)
(1.62255 -0.0940392 0)
(1.4627 -0.151525 0)
(1.37641 -0.125859 0)
(1.35422 -0.0487252 0)
(1.46636 0.0251949 0)
(1.61208 0.0984831 0)
(1.7891 -0.362303 0)
(1.72022 -0.407463 0)
(1.53425 -0.217313 0)
(1.55134 -0.0340326 0)
(1.63879 -0.107569 0)
(1.46536 -0.150199 0)
(1.38772 -0.122348 0)
(1.37291 -0.0478647 0)
(1.48802 0.0242338 0)
(1.58978 0.128138 0)
(1.77889 -0.312362 0)
(1.73209 -0.406036 0)
(1.5653 -0.239099 0)
(1.56621 -0.0764265 0)
(1.64621 -0.123538 0)
(1.46887 -0.146433 0)
(1.39879 -0.120601 0)
(1.3884 -0.0483614 0)
(1.50189 0.018449 0)
(1.52915 0.169908 0)
(1.75102 -0.236818 0)
(1.72204 -0.397247 0)
(1.59618 -0.262642 0)
(1.57849 -0.113339 0)
(1.65421 -0.130037 0)
(1.4741 -0.140572 0)
(1.40927 -0.118528 0)
(1.40235 -0.0500927 0)
(1.51184 0.0130753 0)
(1.48827 0.180534 0)
(1.7388 -0.201002 0)
(1.70555 -0.37277 0)
(1.63235 -0.280619 0)
(1.6058 -0.148813 0)
(1.66631 -0.133007 0)
(1.4802 -0.129493 0)
(1.41806 -0.115292 0)
(1.41628 -0.0518624 0)
(1.52001 0.0107648 0)
(1.45543 0.193495 0)
(1.70894 -0.141807 0)
(1.71333 -0.357908 0)
(1.65897 -0.298596 0)
(1.63257 -0.184189 0)
(1.67716 -0.147074 0)
(1.4874 -0.118425 0)
(1.42586 -0.111499 0)
(1.43095 -0.0522981 0)
(1.52706 0.00971966 0)
(1.43132 0.199599 0)
(1.684 -0.111988 0)
(1.72036 -0.333763 0)
(1.68579 -0.30517 0)
(1.66064 -0.218964 0)
(1.68896 -0.164758 0)
(1.49535 -0.11115 0)
(1.43333 -0.106797 0)
(1.44592 -0.0511397 0)
(1.53345 0.00808856 0)
(1.41192 0.205325 0)
(1.65764 -0.0728415 0)
(1.72108 -0.309647 0)
(1.70582 -0.310656 0)
(1.69605 -0.252917 0)
(1.70158 -0.18606 0)
(1.50918 -0.109438 0)
(1.44142 -0.101721 0)
(1.45973 -0.0497238 0)
(1.5391 0.00569583 0)
(1.3966 0.20859 0)
(1.63909 -0.0492602 0)
(1.71607 -0.283777 0)
(1.72065 -0.308894 0)
(1.72454 -0.279008 0)
(1.71203 -0.210074 0)
(1.52993 -0.110883 0)
(1.45081 -0.0983863 0)
(1.47068 -0.0503005 0)
(1.54365 0.00359463 0)
(1.38492 0.211335 0)
(1.61977 -0.0241344 0)
(1.70709 -0.247923 0)
(1.73471 -0.307609 0)
(1.74411 -0.296395 0)
(1.72614 -0.232397 0)
(1.55793 -0.115426 0)
(1.45992 -0.098743 0)
(1.47805 -0.0509467 0)
(1.54657 0.00285151 0)
(1.37673 0.21256 0)
(1.60143 -0.00479738 0)
(1.70978 -0.228052 0)
(1.74279 -0.300219 0)
(1.761 -0.307194 0)
(1.74756 -0.253661 0)
(1.59161 -0.122076 0)
(1.46743 -0.0987848 0)
(1.48215 -0.0511985 0)
(1.54787 0.00215075 0)
(1.37112 0.213253 0)
(1.58571 0.0095459 0)
(1.70865 -0.194072 0)
(1.74339 -0.290926 0)
(1.78319 -0.315879 0)
(1.7702 -0.274189 0)
(1.62752 -0.1334 0)
(1.47425 -0.0999312 0)
(1.48435 -0.0526338 0)
(1.54826 0.000536398 0)
(1.36717 0.212538 0)
(1.57162 0.0237172 0)
(1.70554 -0.174267 0)
(1.74231 -0.279494 0)
(1.8043 -0.325893 0)
(1.78763 -0.298498 0)
(1.66277 -0.149286 0)
(1.48102 -0.101741 0)
(1.48756 -0.0541673 0)
(1.54884 -0.00156379 0)
(1.36359 0.21096 0)
(1.56022 0.0337584 0)
(1.69476 -0.148322 0)
(1.74612 -0.263711 0)
(1.81047 -0.329975 0)
(1.8016 -0.322941 0)
(1.69696 -0.16945 0)
(1.48857 -0.103188 0)
(1.49363 -0.0567467 0)
(1.55131 -0.00406861 0)
(1.35873 0.209481 0)
(1.54863 0.0436846 0)
(1.68354 -0.130049 0)
(1.74628 -0.248194 0)
(1.81903 -0.326851 0)
(1.8142 -0.340147 0)
(1.72847 -0.19642 0)
(1.50386 -0.102946 0)
(1.506 -0.0594397 0)
(1.55571 -0.00650678 0)
(1.35115 0.206456 0)
(1.53555 0.0520347 0)
(1.66978 -0.111527 0)
(1.74042 -0.229022 0)
(1.82385 -0.326503 0)
(1.82508 -0.348442 0)
(1.75311 -0.222711 0)
(1.5319 -0.107927 0)
(1.52053 -0.0618878 0)
(1.56213 -0.00785783 0)
(1.33951 0.204203 0)
(1.51979 0.0594946 0)
(1.65365 -0.094898 0)
(1.73368 -0.215598 0)
(1.82038 -0.321053 0)
(1.83034 -0.350654 0)
(1.77599 -0.249506 0)
(1.56894 -0.115304 0)
(1.53457 -0.0633217 0)
(1.56997 -0.00813438 0)
(1.32503 0.200262 0)
(1.50119 0.0657027 0)
(1.63541 -0.0809618 0)
(1.72309 -0.198604 0)
(1.80937 -0.30919 0)
(1.8378 -0.355285 0)
(1.79759 -0.274721 0)
(1.6056 -0.122992 0)
(1.54775 -0.0636251 0)
(1.57796 -0.00760228 0)
(1.30948 0.195999 0)
(1.48083 0.070019 0)
(1.61447 -0.0680252 0)
(1.70979 -0.184945 0)
(1.79726 -0.299537 0)
(1.84476 -0.359386 0)
(1.81577 -0.295579 0)
(1.64394 -0.13439 0)
(1.56035 -0.062951 0)
(1.58514 -0.00583179 0)
(1.29385 0.19196 0)
(1.45791 0.0743648 0)
(1.59234 -0.0575593 0)
(1.69261 -0.171253 0)
(1.78105 -0.280251 0)
(1.8475 -0.359881 0)
(1.82792 -0.315522 0)
(1.67606 -0.144461 0)
(1.57205 -0.0614428 0)
(1.59234 -0.00308415 0)
(0.45939 0.141855 0)
(0.552193 0.193309 0)
(0.600473 0.265869 0)
(0.651653 0.317558 0)
(0.693124 0.357595 0)
(0.731817 0.387763 0)
(0.771947 0.413777 0)
(0.823469 0.437379 0)
(0.901527 0.470158 0)
(1.05788 0.503188 0)
(0.493739 0.190857 0)
(0.560272 0.222909 0)
(0.591369 0.277872 0)
(0.638933 0.321771 0)
(0.680785 0.359905 0)
(0.72278 0.389171 0)
(0.767037 0.41471 0)
(0.822486 0.438329 0)
(0.903435 0.467279 0)
(1.05486 0.487941 0)
(0.567903 0.1972 0)
(0.611435 0.218534 0)
(0.623453 0.257748 0)
(0.656764 0.296144 0)
(0.689198 0.333163 0)
(0.728714 0.364111 0)
(0.774754 0.392081 0)
(0.834619 0.417407 0)
(0.922835 0.444134 0)
(1.08457 0.449005 0)
(0.633014 0.227976 0)
(0.663793 0.250702 0)
(0.667026 0.278002 0)
(0.690807 0.30198 0)
(0.714064 0.328 0)
(0.748636 0.351927 0)
(0.792259 0.376907 0)
(0.852796 0.398639 0)
(0.945243 0.422399 0)
(1.10181 0.41128 0)
(0.686217 0.242704 0)
(0.709137 0.263717 0)
(0.710511 0.287722 0)
(0.73062 0.306503 0)
(0.74846 0.328559 0)
(0.779986 0.347386 0)
(0.822022 0.367648 0)
(0.883123 0.384954 0)
(0.973847 0.400179 0)
(1.12826 0.387699 0)
(0.723609 0.26253 0)
(0.741468 0.277996 0)
(0.744522 0.298313 0)
(0.764088 0.312709 0)
(0.78284 0.330954 0)
(0.815024 0.345423 0)
(0.857327 0.361665 0)
(0.919004 0.375974 0)
(1.00609 0.383537 0)
(1.1487 0.367427 0)
(0.758271 0.270209 0)
(0.771914 0.282173 0)
(0.776411 0.298673 0)
(0.79527 0.309742 0)
(0.81552 0.325809 0)
(0.848952 0.338724 0)
(0.891823 0.352632 0)
(0.95361 0.365289 0)
(1.03607 0.367678 0)
(1.16455 0.3501 0)
(0.789751 0.282572 0)
(0.80089 0.28892 0)
(0.80708 0.30078 0)
(0.826189 0.307974 0)
(0.847544 0.321145 0)
(0.881396 0.332525 0)
(0.924056 0.343777 0)
(0.984604 0.355085 0)
(1.06224 0.354684 0)
(1.17767 0.337294 0)
(0.820979 0.284483 0)
(0.831556 0.288017 0)
(0.838993 0.297784 0)
(0.858136 0.303812 0)
(0.879737 0.314998 0)
(0.912873 0.325411 0)
(0.95422 0.33468 0)
(1.01189 0.344302 0)
(1.08407 0.341883 0)
(1.18771 0.325107 0)
(0.852094 0.284913 0)
(0.861984 0.287541 0)
(0.870655 0.295956 0)
(0.889844 0.300975 0)
(0.911519 0.310299 0)
(0.943411 0.319331 0)
(0.982624 0.326386 0)
(1.03638 0.334183 0)
(1.10293 0.331017 0)
(1.19614 0.315494 0)
(0.883198 0.28537 0)
(0.89048 0.286479 0)
(0.90037 0.292852 0)
(0.919521 0.297795 0)
(0.941114 0.305909 0)
(0.971766 0.314198 0)
(1.00888 0.319192 0)
(1.0586 0.324802 0)
(1.11928 0.320342 0)
(1.20313 0.305648 0)
(0.910977 0.283376 0)
(0.913346 0.28468 0)
(0.925765 0.289199 0)
(0.944745 0.294528 0)
(0.966283 0.301331 0)
(0.995901 0.308322 0)
(1.03139 0.311628 0)
(1.07779 0.316246 0)
(1.13357 0.311631 0)
(1.2093 0.29801 0)
(0.932429 0.281208 0)
(0.930921 0.28155 0)
(0.94543 0.284429 0)
(0.963867 0.290077 0)
(0.985489 0.295843 0)
(1.01453 0.302151 0)
(1.0491 0.304601 0)
(1.09294 0.308275 0)
(1.14452 0.303244 0)
(1.21351 0.290511 0)
(0.949429 0.274146 0)
(0.944206 0.278123 0)
(0.960407 0.280996 0)
(0.977748 0.286041 0)
(0.998782 0.289909 0)
(1.02687 0.29484 0)
(1.06067 0.296578 0)
(1.10287 0.300594 0)
(1.15166 0.296271 0)
(1.21542 0.28463 0)
(0.963343 0.270073 0)
(0.954869 0.274069 0)
(0.971205 0.27598 0)
(0.987161 0.280411 0)
(1.00686 0.282886 0)
(1.03332 0.286605 0)
(1.06577 0.287358 0)
(1.10605 0.290925 0)
(1.15346 0.287755 0)
(1.21388 0.278266 0)
(0.976731 0.265628 0)
(0.963504 0.270052 0)
(0.979921 0.272035 0)
(0.994567 0.275695 0)
(1.01264 0.276734 0)
(1.03679 0.279116 0)
(1.06684 0.278767 0)
(1.10445 0.281302 0)
(1.15011 0.278554 0)
(1.2083 0.270594 0)
(0.990618 0.261694 0)
(0.97107 0.266022 0)
(0.987586 0.267491 0)
(1.00084 0.27065 0)
(1.01754 0.271053 0)
(1.03962 0.272474 0)
(1.06694 0.271438 0)
(1.10146 0.272748 0)
(1.14425 0.269947 0)
(1.19968 0.262871 0)
(1.0062 0.258596 0)
(0.978135 0.261631 0)
(0.994302 0.262389 0)
(1.00617 0.2649 0)
(1.02168 0.26505 0)
(1.04191 0.266305 0)
(1.06685 0.264898 0)
(1.09869 0.265196 0)
(1.1382 0.262077 0)
(1.18981 0.255233 0)
(1.02209 0.260838 0)
(0.983857 0.257732 0)
(0.998624 0.256868 0)
(1.00898 0.258288 0)
(1.02338 0.258182 0)
(1.0422 0.25956 0)
(1.06545 0.258346 0)
(1.09507 0.258324 0)
(1.13171 0.255178 0)
(1.17919 0.248005 0)
(1.03737 0.26242 0)
(0.98945 0.256401 0)
(1.00378 0.254933 0)
(1.01237 0.253133 0)
(1.02543 0.251764 0)
(1.04258 0.252654 0)
(1.06405 0.251496 0)
(1.0916 0.251409 0)
(1.126 0.248517 0)
(1.16941 0.240855 0)
(2.36272 1.25576e-07 0)
(2.35443 -5.04512e-07 0)
(2.34537 1.08185e-06 0)
(2.33544 -2.58573e-06 0)
(2.32453 4.11426e-06 0)
(2.31271 -1.04258e-05 0)
(2.29859 1.17803e-05 0)
(2.28831 -3.51764e-05 0)
(2.16368 0.0163518 0)
(0.630836 0.025269 0)
(2.36272 3.62661e-07 0)
(2.35443 -1.44618e-06 0)
(2.34537 3.09252e-06 0)
(2.33544 -7.20996e-06 0)
(2.32453 1.14879e-05 0)
(2.31271 -2.51119e-05 0)
(2.29859 3.54061e-05 0)
(2.28821 -0.000119423 0)
(2.19787 0.044538 0)
(0.687493 0.0640071 0)
(2.36272 5.99331e-07 0)
(2.35443 -2.37617e-06 0)
(2.34537 5.0926e-06 0)
(2.33544 -1.18069e-05 0)
(2.32453 1.88698e-05 0)
(2.31271 -3.95305e-05 0)
(2.29859 6.10589e-05 0)
(2.28791 -0.000247655 0)
(2.24443 0.0455855 0)
(0.764831 0.0979644 0)
(2.36272 8.32034e-07 0)
(2.35443 -3.26942e-06 0)
(2.34537 7.01827e-06 0)
(2.33544 -1.60623e-05 0)
(2.32453 2.57179e-05 0)
(2.31272 -5.46888e-05 0)
(2.29859 8.87406e-05 0)
(2.28763 -0.000230494 0)
(2.27577 0.0433062 0)
(0.83687 0.133406 0)
(2.36272 1.0579e-06 0)
(2.35443 -4.1116e-06 0)
(2.34537 8.85018e-06 0)
(2.33544 -1.99696e-05 0)
(2.32453 3.21308e-05 0)
(2.31273 -6.80225e-05 0)
(2.29861 0.000122147 0)
(2.28749 -0.000274858 0)
(2.29123 0.0369124 0)
(0.9031 0.16037 0)
(2.36272 1.27404e-06 0)
(2.35443 -4.88929e-06 0)
(2.34537 1.056e-05 0)
(2.33544 -2.3464e-05 0)
(2.32453 3.81579e-05 0)
(2.31273 -7.98162e-05 0)
(2.29864 0.000152257 0)
(2.28741 -0.000274272 0)
(2.30053 0.0303722 0)
(0.961831 0.191877 0)
(2.36272 1.47763e-06 0)
(2.35443 -5.59281e-06 0)
(2.34537 1.21297e-05 0)
(2.33544 -2.65164e-05 0)
(2.32453 4.36888e-05 0)
(2.31273 -9.01888e-05 0)
(2.29867 0.000180129 0)
(2.28735 -0.000288189 0)
(2.30732 0.0244263 0)
(1.02562 0.216192 0)
(2.36272 1.66602e-06 0)
(2.35443 -6.2155e-06 0)
(2.34537 1.35459e-05 0)
(2.33545 -2.91348e-05 0)
(2.32453 4.86438e-05 0)
(2.31274 -9.8515e-05 0)
(2.29871 0.000205067 0)
(2.28727 -0.000312457 0)
(2.31336 0.0187271 0)
(1.0923 0.242614 0)
(2.36272 1.837e-06 0)
(2.35443 -6.75381e-06 0)
(2.34537 1.4801e-05 0)
(2.33545 -3.13439e-05 0)
(2.32453 5.29755e-05 0)
(2.31274 -0.000103743 0)
(2.29875 0.000226888 0)
(2.28714 -0.000346587 0)
(2.31531 0.0111157 0)
(1.16318 0.264678 0)
(2.36272 1.98888e-06 0)
(2.35443 -7.20663e-06 0)
(2.34537 1.58897e-05 0)
(2.33545 -3.31693e-05 0)
(2.32453 5.66822e-05 0)
(2.31274 -0.00010429 0)
(2.29882 0.000232808 0)
(2.28692 -0.000407418 0)
(2.30941 0.00692617 0)
(1.23474 0.284045 0)
(2.36272 2.12055e-06 0)
(2.35443 -7.57518e-06 0)
(2.34537 1.68124e-05 0)
(2.33545 -3.46592e-05 0)
(2.32453 6.0006e-05 0)
(2.31273 -0.000102499 0)
(2.29893 0.000225659 0)
(2.28656 -0.000464921 0)
(2.29758 0.00384469 0)
(1.30349 0.298552 0)
(2.36272 2.23146e-06 0)
(2.35443 -7.86215e-06 0)
(2.34537 1.75695e-05 0)
(2.33545 -3.58209e-05 0)
(2.32453 6.31049e-05 0)
(2.31272 -0.000100612 0)
(2.29906 0.000198926 0)
(2.28613 -0.000467654 0)
(2.28645 0.000982019 0)
(1.36702 0.307009 0)
(2.36272 2.32145e-06 0)
(2.35443 -8.07111e-06 0)
(2.34537 1.81614e-05 0)
(2.33545 -3.66448e-05 0)
(2.32453 6.54368e-05 0)
(2.31271 -9.95953e-05 0)
(2.29918 0.00018259 0)
(2.28572 -0.000448887 0)
(2.27932 -0.000147687 0)
(1.42492 0.310905 0)
(2.36272 2.39068e-06 0)
(2.35443 -8.20669e-06 0)
(2.34537 1.85964e-05 0)
(2.33545 -3.71938e-05 0)
(2.32454 6.80369e-05 0)
(2.31269 -0.000101818 0)
(2.2993 0.000188067 0)
(2.28538 -0.000419709 0)
(2.27586 -0.000649506 0)
(1.47775 0.311097 0)
(2.36272 2.43925e-06 0)
(2.35443 -8.26893e-06 0)
(2.34537 1.88682e-05 0)
(2.33545 -3.72559e-05 0)
(2.32454 6.97525e-05 0)
(2.31267 -0.000103862 0)
(2.29941 0.000194992 0)
(2.2851 -0.000389185 0)
(2.27438 -0.000763435 0)
(1.52653 0.307758 0)
(2.36272 2.46755e-06 0)
(2.35443 -8.25612e-06 0)
(2.34537 1.89887e-05 0)
(2.33545 -3.69519e-05 0)
(2.32455 7.07197e-05 0)
(2.31265 -0.000104918 0)
(2.29951 0.000204447 0)
(2.28486 -0.00036683 0)
(2.27373 -0.000733964 0)
(1.57248 0.301824 0)
(2.36272 2.4764e-06 0)
(2.35443 -8.17543e-06 0)
(2.34537 1.89528e-05 0)
(2.33545 -3.63085e-05 0)
(2.32455 7.11221e-05 0)
(2.31263 -0.000104209 0)
(2.2996 0.000218506 0)
(2.28464 -0.000341616 0)
(2.27338 -0.0007162 0)
(1.61599 0.293416 0)
(2.36272 2.46422e-06 0)
(2.35443 -8.03118e-06 0)
(2.34537 1.87534e-05 0)
(2.33545 -3.52603e-05 0)
(2.32455 6.99764e-05 0)
(2.31262 -0.000101041 0)
(2.29967 0.000225633 0)
(2.28444 -0.000311023 0)
(2.27314 -0.000698877 0)
(1.65904 0.283616 0)
(2.36272 2.43107e-06 0)
(2.35443 -7.82014e-06 0)
(2.34537 1.83762e-05 0)
(2.33545 -3.3844e-05 0)
(2.32455 6.78231e-05 0)
(2.3126 -9.54358e-05 0)
(2.29971 0.000222018 0)
(2.28426 -0.000271474 0)
(2.27296 -0.000693882 0)
(1.70194 0.272734 0)
(2.36272 2.37961e-06 0)
(2.35443 -7.54866e-06 0)
(2.34537 1.78361e-05 0)
(2.33545 -3.21194e-05 0)
(2.32455 6.44027e-05 0)
(2.31259 -8.71364e-05 0)
(2.29971 0.000205501 0)
(2.28412 -0.000223123 0)
(2.27281 -0.000693369 0)
(1.74435 0.261596 0)
(2.36272 -2.37987e-06 0)
(2.35443 7.54945e-06 0)
(2.34537 -1.78377e-05 0)
(2.33545 3.21194e-05 0)
(2.32455 -6.43942e-05 0)
(2.31259 8.709e-05 0)
(2.29971 -0.000205368 0)
(2.28412 0.000223101 0)
(2.27281 0.000693188 0)
(1.74379 -0.261638 0)
(2.36272 -2.43136e-06 0)
(2.35443 7.82095e-06 0)
(2.34537 -1.83779e-05 0)
(2.33545 3.38449e-05 0)
(2.32455 -6.78215e-05 0)
(2.3126 9.54072e-05 0)
(2.29971 -0.000221925 0)
(2.28426 0.000271566 0)
(2.27296 0.000693503 0)
(1.70144 -0.272696 0)
(2.36272 -2.46454e-06 0)
(2.35443 8.03202e-06 0)
(2.34537 -1.87553e-05 0)
(2.33545 3.5262e-05 0)
(2.32455 -6.99796e-05 0)
(2.31262 0.000101031 0)
(2.29967 -0.000225608 0)
(2.28444 0.00031123 0)
(2.27314 0.00069801 0)
(1.65864 -0.28348 0)
(2.36272 -2.47677e-06 0)
(2.35443 8.17633e-06 0)
(2.34537 -1.89549e-05 0)
(2.33545 3.63111e-05 0)
(2.32455 -7.11303e-05 0)
(2.31263 0.000104224 0)
(2.2996 -0.000218569 0)
(2.28464 0.000342001 0)
(2.27338 0.00071432 0)
(1.61568 -0.293189 0)
(2.36272 -2.46796e-06 0)
(2.35443 8.25711e-06 0)
(2.34537 -1.89912e-05 0)
(2.33545 3.69556e-05 0)
(2.32455 -7.07325e-05 0)
(2.31265 0.000104953 0)
(2.29951 -0.000204624 0)
(2.28486 0.000367392 0)
(2.27373 0.00073023 0)
(1.57236 -0.301555 0)
(2.36272 -2.43972e-06 0)
(2.35443 8.27007e-06 0)
(2.34537 -1.8871e-05 0)
(2.33545 3.72604e-05 0)
(2.32454 -6.97697e-05 0)
(2.31267 0.000103911 0)
(2.29941 -0.000195161 0)
(2.2851 0.000389935 0)
(2.27438 0.000757382 0)
(1.52655 -0.307475 0)
(2.36272 -2.39122e-06 0)
(2.35443 8.20802e-06 0)
(2.34537 -1.85997e-05 0)
(2.33545 3.72002e-05 0)
(2.32454 -6.80588e-05 0)
(2.31269 0.000101885 0)
(2.2993 -0.000188268 0)
(2.28538 0.000420437 0)
(2.27586 0.000641965 0)
(1.47788 -0.310813 0)
(2.36272 -2.32207e-06 0)
(2.35443 8.07265e-06 0)
(2.34537 -1.81652e-05 0)
(2.33545 3.66521e-05 0)
(2.32453 -6.54604e-05 0)
(2.31271 9.96747e-05 0)
(2.29918 -0.000182893 0)
(2.28572 0.000449405 0)
(2.27933 0.00014113 0)
(1.42512 -0.310618 0)
(2.36272 -2.23216e-06 0)
(2.35443 7.86394e-06 0)
(2.34537 -1.75739e-05 0)
(2.33545 3.58294e-05 0)
(2.32453 -6.31323e-05 0)
(2.31272 0.00010074 0)
(2.29906 -0.000199623 0)
(2.28614 0.000468138 0)
(2.28648 -0.000985895 0)
(1.36727 -0.306713 0)
(2.36272 -2.12134e-06 0)
(2.35443 7.57727e-06 0)
(2.34537 -1.68173e-05 0)
(2.33545 3.46691e-05 0)
(2.32453 -6.00343e-05 0)
(2.31273 0.000102617 0)
(2.29893 -0.000226047 0)
(2.28656 0.000464869 0)
(2.29763 -0.00385484 0)
(1.30375 -0.298325 0)
(2.36272 -1.98976e-06 0)
(2.35443 7.20905e-06 0)
(2.34537 -1.58953e-05 0)
(2.33545 3.31803e-05 0)
(2.32453 -5.67104e-05 0)
(2.31274 0.000104395 0)
(2.29882 -0.000233047 0)
(2.28692 0.000407178 0)
(2.30946 -0.00692792 0)
(1.23499 -0.283859 0)
(2.36272 -1.83798e-06 0)
(2.35443 6.7566e-06 0)
(2.34537 -1.48073e-05 0)
(2.33545 3.13563e-05 0)
(2.32453 -5.30032e-05 0)
(2.31274 0.000103818 0)
(2.29875 -0.00022698 0)
(2.28714 0.000346502 0)
(2.31534 -0.0111336 0)
(1.16342 -0.264532 0)
(2.36272 -1.66708e-06 0)
(2.35443 6.21868e-06 0)
(2.34537 -1.35529e-05 0)
(2.33545 2.91487e-05 0)
(2.32453 -4.86719e-05 0)
(2.31274 9.85761e-05 0)
(2.29871 -0.00020511 0)
(2.28727 0.000312483 0)
(2.31338 -0.0187515 0)
(1.09252 -0.242527 0)
(2.36272 -1.47877e-06 0)
(2.35443 5.5964e-06 0)
(2.34537 -1.21374e-05 0)
(2.33544 2.65322e-05 0)
(2.32453 -4.37188e-05 0)
(2.31273 9.02495e-05 0)
(2.29867 -0.000180171 0)
(2.28735 0.000288202 0)
(2.30732 -0.0244444 0)
(1.02581 -0.216149 0)
(2.36272 -1.27526e-06 0)
(2.35443 4.89328e-06 0)
(2.34537 -1.05685e-05 0)
(2.33544 2.34818e-05 0)
(2.32453 -3.81906e-05 0)
(2.31273 7.98802e-05 0)
(2.29864 -0.000152281 0)
(2.28741 0.00027424 0)
(2.30045 -0.0303638 0)
(0.961997 -0.191899 0)
(2.36272 -1.05919e-06 0)
(2.35443 4.11599e-06 0)
(2.34537 -8.85942e-06 0)
(2.33544 1.99895e-05 0)
(2.32453 -3.21663e-05 0)
(2.31273 6.80924e-05 0)
(2.29861 -0.000122186 0)
(2.28749 0.000274881 0)
(2.29113 -0.0368981 0)
(0.903241 -0.160467 0)
(2.36272 -8.33392e-07 0)
(2.35443 3.27418e-06 0)
(2.34537 -7.02813e-06 0)
(2.33544 1.6084e-05 0)
(2.32453 -2.5754e-05 0)
(2.31272 5.47489e-05 0)
(2.29859 -8.87496e-05 0)
(2.28763 0.00023041 0)
(2.27567 -0.0432954 0)
(0.837045 -0.133524 0)
(2.36272 -6.00738e-07 0)
(2.35443 2.38125e-06 0)
(2.34537 -5.10299e-06 0)
(2.33544 1.18301e-05 0)
(2.32453 -1.89068e-05 0)
(2.31271 3.96003e-05 0)
(2.29859 -6.11248e-05 0)
(2.28791 0.000247876 0)
(2.24437 -0.0455709 0)
(0.765007 -0.0981735 0)
(2.36272 -3.64097e-07 0)
(2.35443 1.45145e-06 0)
(2.34537 -3.10324e-06 0)
(2.33544 7.23413e-06 0)
(2.32453 -1.15242e-05 0)
(2.31271 2.51738e-05 0)
(2.29859 -3.54526e-05 0)
(2.28821 0.000119439 0)
(2.19785 -0.0445135 0)
(0.687669 -0.0642198 0)
(2.36272 -1.27041e-07 0)
(2.35443 5.09949e-07 0)
(2.34537 -1.09284e-06 0)
(2.33544 2.61035e-06 0)
(2.32453 -4.14889e-06 0)
(2.31271 1.0477e-05 0)
(2.29859 -1.1803e-05 0)
(2.28831 3.51856e-05 0)
(2.16366 -0.016301 0)
(0.630923 -0.0256071 0)
(1.03722 -0.262239 0)
(0.989534 -0.256098 0)
(1.00414 -0.254552 0)
(1.01295 -0.252765 0)
(1.02621 -0.251337 0)
(1.04347 -0.252266 0)
(1.06492 -0.251107 0)
(1.0924 -0.251095 0)
(1.12668 -0.24816 0)
(1.16994 -0.240518 0)
(1.02206 -0.260701 0)
(0.984029 -0.257475 0)
(0.999096 -0.256547 0)
(1.00964 -0.257855 0)
(1.02417 -0.257684 0)
(1.04299 -0.259232 0)
(1.06613 -0.258071 0)
(1.09563 -0.258227 0)
(1.13211 -0.255094 0)
(1.17945 -0.247923 0)
(1.00634 -0.258404 0)
(0.978394 -0.261266 0)
(0.994846 -0.261931 0)
(1.00688 -0.26446 0)
(1.02246 -0.26457 0)
(1.04263 -0.266035 0)
(1.06745 -0.264736 0)
(1.09913 -0.265249 0)
(1.13843 -0.262188 0)
(1.18989 -0.255429 0)
(0.990871 -0.261382 0)
(0.971501 -0.265645 0)
(0.988305 -0.267026 0)
(1.00163 -0.270265 0)
(1.01835 -0.270648 0)
(1.04025 -0.272278 0)
(1.06739 -0.271389 0)
(1.10171 -0.272926 0)
(1.14426 -0.270223 0)
(1.19959 -0.263285 0)
(0.977141 -0.265377 0)
(0.964069 -0.269722 0)
(0.980722 -0.271602 0)
(0.995351 -0.275349 0)
(1.01338 -0.276379 0)
(1.03731 -0.278928 0)
(1.06716 -0.2788 0)
(1.1045 -0.28157 0)
(1.14989 -0.278959 0)
(1.20801 -0.27118 0)
(0.963854 -0.269818 0)
(0.955549 -0.273768 0)
(0.972065 -0.275623 0)
(0.987936 -0.280138 0)
(1.00753 -0.282532 0)
(1.03375 -0.286588 0)
(1.06596 -0.287491 0)
(1.10591 -0.29126 0)
(1.15307 -0.288255 0)
(1.21332 -0.27897 0)
(0.950009 -0.274049 0)
(0.944938 -0.277902 0)
(0.961216 -0.280686 0)
(0.978412 -0.285881 0)
(0.999325 -0.289794 0)
(1.02711 -0.294955 0)
(1.06071 -0.29682 0)
(1.10258 -0.301025 0)
(1.15113 -0.296886 0)
(1.21448 -0.285451 0)
(0.933056 -0.281044 0)
(0.931632 -0.281362 0)
(0.94612 -0.284247 0)
(0.964381 -0.290103 0)
(0.985837 -0.295886 0)
(1.01461 -0.302453 0)
(1.04901 -0.305039 0)
(1.09252 -0.308873 0)
(1.1438 -0.303948 0)
(1.21205 -0.291479 0)
(0.911574 -0.283347 0)
(0.914019 -0.284668 0)
(0.926335 -0.289129 0)
(0.945111 -0.294641 0)
(0.966463 -0.301492 0)
(0.995841 -0.308775 0)
(1.03119 -0.312161 0)
(1.07722 -0.316924 0)
(1.13268 -0.312398 0)
(1.20727 -0.299155 0)
(0.8838 -0.285343 0)
(0.891103 -0.286501 0)
(0.900851 -0.292864 0)
(0.919795 -0.297999 0)
(0.941209 -0.306177 0)
(0.971639 -0.314756 0)
(1.0086 -0.319721 0)
(1.05791 -0.325489 0)
(1.11822 -0.3211 0)
(1.20049 -0.306923 0)
(0.852769 -0.285058 0)
(0.862599 -0.287725 0)
(0.871112 -0.296141 0)
(0.890099 -0.301344 0)
(0.911589 -0.310677 0)
(0.943224 -0.319975 0)
(0.982246 -0.326759 0)
(1.03549 -0.334676 0)
(1.1016 -0.331571 0)
(1.19281 -0.31676 0)
(0.8217 -0.284675 0)
(0.832171 -0.28828 0)
(0.839433 -0.298077 0)
(0.858362 -0.304274 0)
(0.879745 -0.315395 0)
(0.912556 -0.326051 0)
(0.953675 -0.33493 0)
(1.0108 -0.344713 0)
(1.08242 -0.342405 0)
(1.18368 -0.326464 0)
(0.790326 -0.282587 0)
(0.801475 -0.289159 0)
(0.807508 -0.301132 0)
(0.826346 -0.308486 0)
(0.847434 -0.321509 0)
(0.880903 -0.333088 0)
(0.923281 -0.343847 0)
(0.983271 -0.355387 0)
(1.06017 -0.355039 0)
(1.17303 -0.338619 0)
(0.758773 -0.270482 0)
(0.772393 -0.282553 0)
(0.776753 -0.299034 0)
(0.795295 -0.310176 0)
(0.81527 -0.326062 0)
(0.848291 -0.339147 0)
(0.890829 -0.352588 0)
(0.952063 -0.365576 0)
(1.0336 -0.367978 0)
(1.15939 -0.351337 0)
(0.724083 -0.262616 0)
(0.741893 -0.278155 0)
(0.744786 -0.298466 0)
(0.764031 -0.313051 0)
(0.782519 -0.331168 0)
(0.814267 -0.345733 0)
(0.856181 -0.361479 0)
(0.917293 -0.376186 0)
(1.0033 -0.383637 0)
(1.14265 -0.368709 0)
(0.686559 -0.242876 0)
(0.709441 -0.263968 0)
(0.710721 -0.287938 0)
(0.73058 -0.306757 0)
(0.748168 -0.328697 0)
(0.779248 -0.347571 0)
(0.820854 -0.367454 0)
(0.881344 -0.385012 0)
(0.97098 -0.400476 0)
(1.12003 -0.387685 0)
(0.633342 -0.228093 0)
(0.664091 -0.250882 0)
(0.667239 -0.27818 0)
(0.690811 -0.302178 0)
(0.713862 -0.32809 0)
(0.748018 -0.351981 0)
(0.791186 -0.376586 0)
(0.85118 -0.398903 0)
(0.9415 -0.421928 0)
(1.09343 -0.413689 0)
(0.568217 -0.197371 0)
(0.61173 -0.218701 0)
(0.623714 -0.257881 0)
(0.656845 -0.296308 0)
(0.689102 -0.333244 0)
(0.72828 -0.364121 0)
(0.773914 -0.391948 0)
(0.832948 -0.417119 0)
(0.919247 -0.444478 0)
(1.07365 -0.450594 0)
(0.494039 -0.191025 0)
(0.560546 -0.223071 0)
(0.591624 -0.278002 0)
(0.639066 -0.321919 0)
(0.680764 -0.359985 0)
(0.72248 -0.389175 0)
(0.766312 -0.414491 0)
(0.820936 -0.437936 0)
(0.899133 -0.466936 0)
(1.04324 -0.487921 0)
(0.459663 -0.142017 0)
(0.552439 -0.193458 0)
(0.600713 -0.26599 0)
(0.651816 -0.317689 0)
(0.693147 -0.357686 0)
(0.731582 -0.387785 0)
(0.77128 -0.413634 0)
(0.822069 -0.436971 0)
(0.897152 -0.469319 0)
(1.04546 -0.501173 0)
(1.29355 -0.192702 0)
(1.45694 -0.0798005 0)
(1.59817 0.050242 0)
(1.71171 0.188787 0)
(1.79274 0.323689 0)
(1.80416 0.342097 0)
(1.77218 0.257461 0)
(1.66114 0.0980682 0)
(1.60504 0.0400089 0)
(1.60548 0.00268257 0)
(1.30877 -0.197066 0)
(1.47894 -0.0769259 0)
(1.62061 0.0591299 0)
(1.73435 0.208904 0)
(1.80578 0.341549 0)
(1.80353 0.346933 0)
(1.75472 0.242467 0)
(1.63596 0.0914079 0)
(1.59693 0.0411402 0)
(1.59733 0.00583123 0)
(1.32396 -0.201687 0)
(1.4988 -0.0741483 0)
(1.64218 0.0712193 0)
(1.75353 0.227044 0)
(1.81283 0.358443 0)
(1.80193 0.351375 0)
(1.73227 0.224574 0)
(1.61025 0.084371 0)
(1.58871 0.0400989 0)
(1.59003 0.00767205 0)
(1.3379 -0.206123 0)
(1.51631 -0.0702035 0)
(1.66041 0.083612 0)
(1.77232 0.248714 0)
(1.81578 0.373513 0)
(1.79648 0.355909 0)
(1.70489 0.205535 0)
(1.58445 0.0739567 0)
(1.57818 0.0373941 0)
(1.58305 0.00897652 0)
(1.34877 -0.209029 0)
(1.5308 -0.065122 0)
(1.67674 0.0995539 0)
(1.79062 0.270293 0)
(1.81452 0.388743 0)
(1.78618 0.354886 0)
(1.67182 0.186009 0)
(1.56517 0.0678038 0)
(1.56486 0.0355933 0)
(1.57626 0.0104931 0)
(1.35578 -0.212733 0)
(1.54219 -0.0589577 0)
(1.69014 0.114359 0)
(1.80983 0.291925 0)
(1.80633 0.402433 0)
(1.76573 0.347032 0)
(1.63205 0.163841 0)
(1.54807 0.0608862 0)
(1.55334 0.0351244 0)
(1.57052 0.0133622 0)
(1.36007 -0.2153 0)
(1.55065 -0.053168 0)
(1.70347 0.132918 0)
(1.82815 0.315217 0)
(1.79393 0.410757 0)
(1.73641 0.330206 0)
(1.5948 0.145743 0)
(1.53394 0.0555785 0)
(1.54648 0.0367343 0)
(1.56585 0.0164077 0)
(1.36311 -0.218023 0)
(1.55818 -0.0448468 0)
(1.71584 0.147031 0)
(1.8369 0.341042 0)
(1.79057 0.419749 0)
(1.70434 0.309499 0)
(1.55786 0.128021 0)
(1.5254 0.0530628 0)
(1.54222 0.0382077 0)
(1.56334 0.0206601 0)
(1.36648 -0.219815 0)
(1.56478 -0.0382585 0)
(1.731 0.167807 0)
(1.83057 0.356083 0)
(1.80097 0.425015 0)
(1.66853 0.287514 0)
(1.52802 0.115404 0)
(1.5234 0.0496195 0)
(1.54058 0.0424192 0)
(1.56291 0.024896 0)
(1.37093 -0.220405 0)
(1.57333 -0.0279819 0)
(1.74403 0.189305 0)
(1.82785 0.37562 0)
(1.80416 0.425074 0)