/*--------------------------------*- C++ -*----------------------------------*\
  =========                 |
  \\      /  F ield         | OpenFOAM: The Open Source CFD Toolbox
   \\    /   O peration     | Website:  https://openfoam.org
    \\  /    A nd           | Version:  8
     \\/     M anipulation  |
\*---------------------------------------------------------------------------*/
FoamFile
{
    version     2.0;
    format      ascii;
    class       volVectorField;
    location    "1";
    object      U;
}
// * * * * * * * * * * * * * * * * * * * * * * * * * * * * * * * * * * * * * //

dimensions      [0 1 -1 0 0 0 0];

internalField   nonuniform List<vector> 
325
(
(3 -4.66826e-14 0)
(3 -3.90881e-14 0)
(3 -2.05959e-14 0)
(3 -1.72661e-13 0)
(3 -2.38004e-13 0)
(3 -5.93573e-14 0)
(3 -1.40698e-14 0)
(3 -1.04731e-13 0)
(3 -9.36974e-14 0)
(3 -1.23239e-14 0)
(3 -4.00835e-14 0)
(3 -2.22171e-12 0)
(3 -6.10033e-10 0)
(3 -1.65114e-13 0)
(3 -1.12815e-13 0)
(3 1.05916e-13 0)
(3 1.37594e-13 0)
(3 1.81199e-14 0)
(3 1.13319e-14 0)
(3 -3.37298e-12 0)
(3 -6.01862e-10 0)
(3 -2.74488e-14 0)
(3 1.48772e-13 0)
(3 1.96714e-13 0)
(3 2.00212e-13 0)
(3 1.01597e-13 0)
(3 1.01241e-13 0)
(3 -4.27682e-12 0)
(3 -5.89108e-10 0)
(3 4.04985e-14 0)
(3 2.20607e-13 0)
(3 1.75868e-13 0)
(3 -9.97468e-16 0)
(3 6.77402e-14 0)
(3 7.14846e-14 0)
(3 -5.13421e-12 0)
(3 -5.73779e-10 0)
(3 9.43667e-15 0)
(3 6.84419e-15 0)
(3 2.56702e-14 0)
(3 -7.82367e-15 0)
(3 1.0733e-14 0)
(3 4.4797e-14 0)
(3 -5.6935e-12 0)
(3 -5.55747e-10 0)
(3 2.83156e-14 0)
(3 1.06219e-14 0)
(3 6.00081e-14 0)
(3 -9.881e-15 0)
(3 7.58359e-14 0)
(3 1.58686e-13 0)
(3 -5.60271e-12 0)
(3 -5.32257e-10 0)
(3 2.02251e-14 0)
(3 7.13103e-14 0)
(3 6.92979e-14 0)
(3 -6.58981e-14 0)
(3 8.00348e-14 0)
(3 2.60736e-13 0)
(3 -5.56291e-12 0)
(3 -5.04761e-10 0)
(3 2.09286e-14 0)
(3 -3.23217e-14 0)
(3 2.69964e-14 0)
(3 -3.58212e-14 0)
(3 -5.91639e-14 0)
(3 7.57415e-14 0)
(3 -5.87193e-12 0)
(3 -4.74029e-10 0)
(3 -5.82235e-14 0)
(3 -3.43795e-14 0)
(3 1.9072e-14 0)
(3 -9.97833e-14 0)
(3 -1.76403e-13 0)
(3 5.11776e-14 0)
(3 -5.94296e-12 0)
(3 -4.39383e-10 0)
(3 -3.61424e-14 0)
(3 -2.23603e-15 0)
(3 7.78628e-15 0)
(3 -4.23352e-14 0)
(3 -1.54662e-13 0)
(3 -5.16123e-14 0)
(3 -5.69865e-12 0)
(3 -4.03136e-10 0)
(3 6.02398e-14 0)
(3 -6.17523e-14 0)
(3 -3.48647e-14 0)
(3 1.98307e-13 0)
(3 9.93841e-14 0)
(3 -6.69564e-14 0)
(3 -5.43706e-12 0)
(3 -3.6489e-10 0)
(3 1.07603e-13 0)
(3 8.31606e-14 0)
(3 -2.09651e-14 0)
(3 1.20348e-13 0)
(3 1.95027e-13 0)
(3 6.85174e-14 0)
(3 -5.11473e-12 0)
(3 -3.22573e-10 0)
(3 1.70324e-14 0)
(3 1.59347e-13 0)
(3 6.69751e-14 0)
(3 4.88389e-14 0)
(3 8.41883e-14 0)
(3 9.93216e-14 0)
(3 -4.5814e-12 0)
(3 -2.81398e-10 0)
(3 -1.63198e-14 0)
(3 -3.19504e-14 0)
(3 8.28531e-14 0)
(3 -2.16567e-14 0)
(3 1.27017e-13 0)
(3 2.11083e-13 0)
(3 -3.98896e-12 0)
(3 -2.34747e-10 0)
(3 -4.32517e-15 0)
(3 -1.84166e-13 0)
(3 -9.04859e-14 0)
(3 -9.00713e-14 0)
(3 5.53779e-14 0)
(3 5.61262e-14 0)
(3 -3.35556e-12 0)
(3 -1.88672e-10 0)
(3 1.78541e-14 0)
(3 -2.62617e-14 0)
(3 -3.41161e-14 0)
(3 6.40789e-14 0)
(3 3.69073e-14 0)
(3 2.4842e-14 0)
(3 -2.80057e-12 0)
(3 -1.48008e-10 0)
(3 -3.26914e-14 0)
(3 4.07919e-14 0)
(3 1.60139e-13 0)
(3 2.40028e-13 0)
(3 1.03841e-13 0)
(3 -3.33429e-14 0)
(3 -2.27861e-12 0)
(3 -1.03469e-10 0)
(3 -5.87681e-14 0)
(3 -3.53246e-15 0)
(3 1.02707e-13 0)
(3 2.10932e-13 0)
(3 6.89611e-14 0)
(3 -1.54592e-13 0)
(3 -1.66049e-12 0)
(3 -7.10771e-11 0)
(3 2.82032e-14 0)
(3 1.17099e-13 0)
(3 -1.54369e-13 0)
(3 -1.09754e-14 0)
(3 7.77247e-14 0)
(3 -1.34467e-13 0)
(3 -1.05037e-12 0)
(3 -3.88172e-11 0)
(3 6.82108e-15 0)
(3 6.40488e-14 0)
(3 -1.86972e-13 0)
(3 -2.06321e-13 0)
(3 -1.42634e-13 0)
(3 -7.496e-14 0)
(3 -2.15461e-13 0)
(3 -1.30946e-11 0)
(3 -3.2308e-14 0)
(3 -1.44905e-15 0)
(3 1.57674e-13 0)
(3 1.83289e-13 0)
(3 1.59129e-13 0)
(3 4.38822e-14 0)
(3 3.37393e-13 0)
(3 -1.8095e-11 0)
(3 -1.3655e-13 0)
(3 -2.55731e-14 0)
(3 1.04484e-13 0)
(3 1.46916e-13 0)
(3 1.17518e-13 0)
(3 4.35772e-14 0)
(3 6.70266e-13 0)
(3 -2.75313e-11 0)
(3 -9.04524e-14 0)
(3 -1.11895e-13 0)
(3 -4.54787e-14 0)
(3 1.0874e-13 0)
(3 1.29907e-13 0)
(3 3.63541e-14 0)
(3 1.65889e-12 0)
(3 -5.26468e-11 0)
(3 6.59779e-14 0)
(3 4.43207e-15 0)
(3 6.0024e-14 0)
(3 6.31321e-14 0)
(3 1.23676e-13 0)
(3 8.62862e-14 0)
(3 2.67501e-12 0)
(3 -1.01697e-10 0)
(3 8.51046e-14 0)
(3 1.95172e-13 0)
(3 2.07155e-13 0)
(3 1.64284e-13 0)
(3 3.54993e-14 0)
(3 -6.47606e-14 0)
(3 3.82827e-12 0)
(3 -1.57807e-10 0)
(3 9.94632e-14 0)
(3 1.9186e-13 0)
(3 1.6033e-13 0)
(3 1.39596e-13 0)
(3 1.15532e-14 0)
(3 -7.59171e-14 0)
(3 4.55604e-12 0)
(3 -2.18534e-10 0)
(3 7.6151e-14 0)
(3 1.17179e-13 0)
(3 2.96791e-15 0)
(3 3.21024e-14 0)
(3 -1.67106e-14 0)
(3 -2.03864e-13 0)
(3 4.9983e-12 0)
(3 -2.74069e-10 0)
(3 -1.48488e-14 0)
(3 -4.3775e-14 0)
(3 -1.32686e-13 0)
(3 -1.44854e-13 0)
(3 -1.10954e-13 0)
(3 -2.21384e-13 0)
(3 5.98803e-12 0)
(3 -3.3256e-10 0)
(3 -8.47733e-14 0)
(3 -2.0609e-13 0)
(3 -2.0759e-13 0)
(3 -2.57585e-13 0)
(3 -9.95456e-14 0)
(3 -1.60019e-13 0)
(3 6.80253e-12 0)
(3 -3.8824e-10 0)
(3 -4.33322e-14 0)
(3 -1.41735e-13 0)
(3 -2.05833e-13 0)
(3 -2.54828e-13 0)
(3 -1.50314e-14 0)
(3 -1.05821e-13 0)
(3 7.37721e-12 0)
(3 -4.34806e-10 0)
(3 7.46756e-14 0)
(3 -7.80169e-14 0)
(3 -1.85715e-13 0)
(3 -2.32234e-13 0)
(3 2.93084e-14 0)
(3 -3.50353e-14 0)
(3 8.23069e-12 0)
(3 -4.75224e-10 0)
(3 6.2024e-14 0)
(3 -7.59751e-15 0)
(3 -4.01455e-14 0)
(3 -1.23784e-13 0)
(3 1.93329e-14 0)
(3 1.37647e-13 0)
(3 8.54605e-12 0)
(3 -5.01828e-10 0)
(3 -2.98851e-14 0)
(3 -3.89302e-14 0)
(3 -3.39956e-14 0)
(3 5.63597e-14 0)
(3 9.39101e-14 0)
(3 -4.87359e-14 0)
(3 8.04467e-12 0)
(3 -5.32123e-10 0)
(3 -1.87703e-14 0)
(3 -2.68893e-14 0)
(3 1.18742e-14 0)
(3 1.1565e-13 0)
(3 9.31689e-14 0)
(3 -2.02919e-14 0)
(3 7.37112e-12 0)
(3 -5.49478e-10 0)
(3 -2.44297e-14 0)
(3 1.54705e-13 0)
(3 1.74508e-13 0)
(3 1.2252e-13 0)
(3 9.53204e-15 0)
(3 1.08322e-13 0)
(3 6.33554e-12 0)
(3 -5.72707e-10 0)
(3 -8.67299e-14 0)
(3 7.31409e-15 0)
(3 2.96885e-14 0)
(3 2.86127e-14 0)
(3 6.07183e-16 0)
(3 5.91392e-14 0)
(3 4.78944e-12 0)
(3 -5.86975e-10 0)
(3 1.91918e-14 0)
(3 -7.31988e-15 0)
(3 1.21124e-14 0)
(3 8.58531e-14 0)
(3 -3.89421e-14 0)
(3 4.0609e-14 0)
(3 3.34295e-12 0)
(3 -6.03669e-10 0)
(3 1.18021e-13 0)
(3 -3.84906e-14 0)
(3 -5.72722e-14 0)
(3 8.50074e-14 0)
(3 -3.73838e-14 0)
(3 -4.52436e-14 0)
(3 1.87689e-12 0)
(3 -6.13365e-10 0)
(3 2.14668e-14 0)
(3 -1.15061e-13 0)
(3 -1.87998e-13 0)
(3 -1.4845e-13 0)
(3 -1.35787e-13 0)
(3 -1.82436e-13 0)
(3 3.4526e-13 0)
(3 -6.19655e-10 0)
(3 -1.34573e-14 0)
(3 -2.00161e-14 0)
(3 -1.61412e-13 0)
(3 -1.91041e-13 0)
(3 -1.21134e-13 0)
(3 -1.358e-13 0)
(3 -1.14026e-12 0)
(3 -6.16971e-10 0)
)
;

boundaryField
{
    inlet
    {
        type            fixedValue;
        value           uniform (3 0 0);
    }
    outlet
    {
        type            inletOutlet;
        inletValue      nonuniform List<vector> 0();
        value           nonuniform List<vector> 0();
    }
    triangle
    {
        type            slip;
    }
    top
    {
        type            symmetryPlane;
    }
    bottom
    {
        type            symmetryPlane;
    }
    defaultFaces
    {
        type            empty;
    }
    procBoundary0to1
    {
        type            processor;
        value           nonuniform List<vector> 
40
(
(3 1.08886e-07 0)
(3 1.10299e-07 0)
(3 1.11686e-07 0)
(3 1.12387e-07 0)
(3 1.12977e-07 0)
(3 1.12818e-07 0)
(3 1.12567e-07 0)
(3 1.11586e-07 0)
(3 1.10654e-07 0)
(3 1.08878e-07 0)
(3 1.0749e-07 0)
(3 1.04747e-07 0)
(3 1.03359e-07 0)
(3 9.77633e-08 0)
(3 9.06548e-08 0)
(3 7.87218e-08 0)
(3 6.89266e-08 0)
(3 3.92694e-08 0)
(3 5.64122e-08 0)
(3 2.31491e-08 0)
(3 1.89304e-09 0)
(3 5.61848e-09 0)
(3 1.01516e-08 0)
(3 1.4542e-08 0)
(3 1.93609e-08 0)
(3 2.45899e-08 0)
(3 3.02854e-08 0)
(3 3.62824e-08 0)
(3 4.26428e-08 0)
(3 4.91275e-08 0)
(3 5.59334e-08 0)
(3 6.26425e-08 0)
(3 6.95321e-08 0)
(3 7.60169e-08 0)
(3 8.25297e-08 0)
(3 8.83051e-08 0)
(3 9.40158e-08 0)
(3 9.86949e-08 0)
(3 1.03163e-07 0)
(3 1.06373e-07 0)
)
;
    }
    procBoundary0to4
    {
        type            processor;
        value           nonuniform List<vector> 9((3 -5.40762e-15 0) (3 -1.23973e-13 0) (3 -1.22754e-13 0) (3 -1.73017e-13 0) (3 -7.11824e-14 0) (3 -1.7285e-13 0) (3 -7.11824e-14 0) (3 3.41832e-13 0) (3 8.50573e-12 0));
    }
}


// ************************************************************************* //
