/*--------------------------------*- C++ -*----------------------------------*\
  =========                 |
  \\      /  F ield         | OpenFOAM: The Open Source CFD Toolbox
   \\    /   O peration     | Website:  https://openfoam.org
    \\  /    A nd           | Version:  7
     \\/     M anipulation  |
\*---------------------------------------------------------------------------*/
FoamFile
{
    version     2.0;
    format      ascii;
    class       volVectorField;
    location    "1";
    object      U;
}
// * * * * * * * * * * * * * * * * * * * * * * * * * * * * * * * * * * * * * //

dimensions      [0 1 -1 0 0 0 0];

internalField   nonuniform List<vector> 
325
(
(3 5.81687e-16 0)
(3 -2.25312e-15 0)
(3 -2.80181e-15 0)
(3 -1.28431e-15 0)
(3 -1.97764e-15 0)
(3 1.81855e-15 0)
(3 -9.62996e-16 0)
(3 -2.54544e-15 0)
(3 1.3857e-15 0)
(3 1.17817e-16 0)
(3 5.87602e-14 0)
(3 -2.10909e-12 0)
(3 -6.10708e-10 0)
(3 -1.31595e-15 0)
(3 -7.608e-16 0)
(3 1.34183e-15 0)
(3 3.19305e-15 0)
(3 3.43679e-16 0)
(3 5.89579e-14 0)
(3 -3.37459e-12 0)
(3 -6.02838e-10 0)
(3 -1.66655e-15 0)
(3 1.98513e-15 0)
(3 1.40519e-15 0)
(3 2.86117e-15 0)
(3 3.60484e-15 0)
(3 6.05937e-14 0)
(3 -4.20075e-12 0)
(3 -5.89981e-10 0)
(3 2.63196e-15 0)
(3 1.08639e-15 0)
(3 -5.65642e-16 0)
(3 1.08802e-15 0)
(3 5.20811e-15 0)
(3 6.22454e-14 0)
(3 -4.93042e-12 0)
(3 -5.74418e-10 0)
(3 2.71229e-15 0)
(3 -2.0979e-16 0)
(3 1.81138e-15 0)
(3 2.97898e-15 0)
(3 5.98433e-15 0)
(3 6.11145e-14 0)
(3 -5.49976e-12 0)
(3 -5.56089e-10 0)
(3 2.0214e-16 0)
(3 2.6952e-15 0)
(3 2.12065e-15 0)
(3 2.86503e-15 0)
(3 6.43472e-15 0)
(3 6.15963e-14 0)
(3 -5.81909e-12 0)
(3 -5.33e-10 0)
(3 -5.87109e-16 0)
(3 1.99882e-15 0)
(3 -1.31342e-15 0)
(3 1.04962e-15 0)
(3 2.94915e-15 0)
(3 5.6292e-14 0)
(3 -5.97678e-12 0)
(3 -5.05674e-10 0)
(3 -1.46247e-15 0)
(3 -7.86931e-16 0)
(3 2.03256e-15 0)
(3 3.18396e-15 0)
(3 -3.107e-16 0)
(3 5.153e-14 0)
(3 -5.99609e-12 0)
(3 -4.74918e-10 0)
(3 -3.98313e-15 0)
(3 -3.26448e-15 0)
(3 2.48395e-15 0)
(3 2.64461e-15 0)
(3 -1.82532e-15 0)
(3 5.03861e-14 0)
(3 -5.86839e-12 0)
(3 -4.40018e-10 0)
(3 -1.71361e-15 0)
(3 -2.1592e-15 0)
(3 -2.56285e-15 0)
(3 4.59986e-16 0)
(3 1.07761e-15 0)
(3 4.87044e-14 0)
(3 -5.65343e-12 0)
(3 -4.03743e-10 0)
(3 4.31995e-16 0)
(3 -4.12974e-16 0)
(3 -5.39935e-16 0)
(3 2.05344e-15 0)
(3 1.44479e-15 0)
(3 4.40879e-14 0)
(3 -5.33697e-12 0)
(3 -3.6533e-10 0)
(3 4.50482e-16 0)
(3 -1.69055e-15 0)
(3 -3.55616e-15 0)
(3 -2.13921e-15 0)
(3 -1.02743e-15 0)
(3 3.83698e-14 0)
(3 -4.98627e-12 0)
(3 -3.23044e-10 0)
(3 2.6916e-15 0)
(3 4.2459e-16 0)
(3 -1.13926e-15 0)
(3 -2.76346e-15 0)
(3 -1.92763e-15 0)
(3 3.12028e-14 0)
(3 -4.51357e-12 0)
(3 -2.82071e-10 0)
(3 1.2856e-15 0)
(3 6.29517e-16 0)
(3 -2.07538e-16 0)
(3 -1.399e-16 0)
(3 -2.3537e-15 0)
(3 2.84305e-14 0)
(3 -4.03099e-12 0)
(3 -2.35392e-10 0)
(3 -1.25826e-15 0)
(3 5.56281e-16 0)
(3 -3.11265e-16 0)
(3 -7.45278e-18 0)
(3 -3.70589e-15 0)
(3 2.36914e-14 0)
(3 -3.33035e-12 0)
(3 -1.89188e-10 0)
(3 -1.32757e-16 0)
(3 2.9286e-15 0)
(3 2.39867e-15 0)
(3 5.86874e-16 0)
(3 -2.41768e-15 0)
(3 1.87862e-14 0)
(3 -2.87134e-12 0)
(3 -1.48595e-10 0)
(3 -2.15078e-16 0)
(3 2.28782e-15 0)
(3 9.38203e-16 0)
(3 -1.21198e-15 0)
(3 -1.20963e-15 0)
(3 1.58875e-14 0)
(3 -2.17517e-12 0)
(3 -1.03744e-10 0)
(3 1.32857e-15 0)
(3 1.06724e-15 0)
(3 3.90145e-16 0)
(3 -2.67847e-15 0)
(3 -1.24351e-15 0)
(3 9.30272e-15 0)
(3 -1.50375e-12 0)
(3 -7.11034e-11 0)
(3 2.5869e-15 0)
(3 2.37914e-15 0)
(3 -3.25099e-16 0)
(3 -4.79094e-16 0)
(3 -8.41349e-16 0)
(3 3.47857e-15 0)
(3 -9.27135e-13 0)
(3 -3.90964e-11 0)
(3 1.98453e-15 0)
(3 9.05109e-16 0)
(3 -1.96051e-15 0)
(3 -7.63815e-16 0)
(3 -1.04961e-15 0)
(3 -3.8984e-15 0)
(3 -2.64966e-13 0)
(3 -1.30919e-11 0)
(3 -6.63619e-16 0)
(3 -3.73556e-15 0)
(3 -3.07407e-15 0)
(3 -2.57426e-15 0)
(3 8.83959e-16 0)
(3 -1.65549e-15 0)
(3 5.33328e-13 0)
(3 -1.78451e-11 0)
(3 -7.08147e-16 0)
(3 -4.2742e-15 0)
(3 -3.5019e-15 0)
(3 -9.95213e-16 0)
(3 1.67835e-15 0)
(3 -8.28028e-15 0)
(3 7.98886e-13 0)
(3 -2.73443e-11 0)
(3 3.29284e-16 0)
(3 -1.70363e-15 0)
(3 -9.70661e-16 0)
(3 2.83933e-15 0)
(3 5.20244e-16 0)
(3 -2.81664e-14 0)
(3 1.62026e-12 0)
(3 -5.24913e-11 0)
(3 -5.09723e-16 0)
(3 -3.84031e-15 0)
(3 -2.45059e-15 0)
(3 -1.02105e-15 0)
(3 -1.12431e-15 0)
(3 -2.87499e-14 0)
(3 2.75521e-12 0)
(3 -1.01704e-10 0)
(3 -2.68399e-16 0)
(3 -3.85827e-15 0)
(3 -9.82477e-15 0)
(3 -9.06132e-15 0)
(3 -4.19282e-16 0)
(3 -4.52965e-14 0)
(3 3.48821e-12 0)
(3 -1.58394e-10 0)
(3 1.00764e-15 0)
(3 1.35939e-15 0)
(3 -7.08678e-15 0)
(3 -4.65472e-15 0)
(3 3.73773e-15 0)
(3 -5.23019e-14 0)
(3 4.28003e-12 0)
(3 -2.1873e-10 0)
(3 -1.64638e-15 0)
(3 1.16252e-15 0)
(3 2.44344e-15 0)
(3 2.89295e-15 0)
(3 3.97483e-15 0)
(3 -6.30278e-14 0)
(3 5.09333e-12 0)
(3 -2.74228e-10 0)
(3 -1.32346e-15 0)
(3 -2.76383e-16 0)
(3 2.58206e-15 0)
(3 3.48528e-15 0)
(3 6.66891e-16 0)
(3 -7.87574e-14 0)
(3 5.85026e-12 0)
(3 -3.3296e-10 0)
(3 -6.18189e-16 0)
(3 -1.13446e-15 0)
(3 1.64217e-15 0)
(3 3.57715e-15 0)
(3 1.72447e-15 0)
(3 -9.01689e-14 0)
(3 6.74773e-12 0)
(3 -3.88326e-10 0)
(3 -3.75378e-16 0)
(3 -3.39668e-16 0)
(3 4.40029e-15 0)
(3 2.19589e-15 0)
(3 2.56842e-15 0)
(3 -9.19388e-14 0)
(3 7.48514e-12 0)
(3 -4.347e-10 0)
(3 2.37471e-15 0)
(3 3.96203e-15 0)
(3 1.82955e-15 0)
(3 -3.40425e-16 0)
(3 2.5532e-15 0)
(3 -8.2656e-14 0)
(3 8.12414e-12 0)
(3 -4.75249e-10 0)
(3 3.85473e-15 0)
(3 5.71618e-15 0)
(3 2.46896e-15 0)
(3 1.36051e-15 0)
(3 2.19054e-15 0)
(3 -6.88765e-14 0)
(3 8.47274e-12 0)
(3 -5.01803e-10 0)
(3 1.06092e-15 0)
(3 2.20976e-15 0)
(3 2.95132e-15 0)
(3 1.84034e-15 0)
(3 9.96863e-16 0)
(3 -5.26227e-14 0)
(3 8.08297e-12 0)
(3 -5.32243e-10 0)
(3 1.4707e-16 0)
(3 -2.1551e-15 0)
(3 -1.41479e-15 0)
(3 -6.86254e-16 0)
(3 -2.16197e-15 0)
(3 -3.24764e-14 0)
(3 7.32727e-12 0)
(3 -5.49682e-10 0)
(3 -2.6669e-16 0)
(3 -4.67641e-15 0)
(3 -3.94238e-15 0)
(3 -7.07037e-16 0)
(3 -3.4103e-15 0)
(3 -9.00434e-15 0)
(3 6.09818e-12 0)
(3 -5.73165e-10 0)
(3 -8.63052e-16 0)
(3 -7.79718e-16 0)
(3 -1.90108e-15 0)
(3 2.21387e-15 0)
(3 2.3521e-15 0)
(3 1.18634e-14 0)
(3 4.76783e-12 0)
(3 -5.87303e-10 0)
(3 -7.49998e-16 0)
(3 -7.11277e-17 0)
(3 3.00921e-15 0)
(3 5.82169e-15 0)
(3 5.24668e-15 0)
(3 3.02298e-14 0)
(3 3.3121e-12 0)
(3 -6.03869e-10 0)
(3 -4.98358e-16 0)
(3 1.59397e-15 0)
(3 6.9986e-15 0)
(3 6.28226e-15 0)
(3 2.09732e-15 0)
(3 4.0295e-14 0)
(3 1.93617e-12 0)
(3 -6.13703e-10 0)
(3 -2.65086e-15 0)
(3 6.24245e-16 0)
(3 3.55813e-15 0)
(3 5.23066e-16 0)
(3 -1.49552e-15 0)
(3 4.64601e-14 0)
(3 4.88267e-13 0)
(3 -6.20428e-10 0)
(3 -2.7518e-16 0)
(3 -1.77277e-15 0)
(3 -2.30761e-15 0)
(3 -3.31765e-16 0)
(3 -8.44372e-16 0)
(3 5.46861e-14 0)
(3 -9.15954e-13 0)
(3 -6.17519e-10 0)
)
;

boundaryField
{
    inlet
    {
        type            fixedValue;
        value           uniform (3 0 0);
    }
    outlet
    {
        type            inletOutlet;
        inletValue      nonuniform 0();
        value           nonuniform 0();
    }
    triangle
    {
        type            slip;
    }
    top
    {
        type            symmetryPlane;
    }
    bottom
    {
        type            symmetryPlane;
    }
    defaultFaces
    {
        type            empty;
    }
    procBoundary0to1
    {
        type            processor;
        value           nonuniform List<vector> 
40
(
(3 1.08888e-07 0)
(3 1.10298e-07 0)
(3 1.11682e-07 0)
(3 1.12381e-07 0)
(3 1.12969e-07 0)
(3 1.12808e-07 0)
(3 1.12554e-07 0)
(3 1.1157e-07 0)
(3 1.10635e-07 0)
(3 1.08858e-07 0)
(3 1.07468e-07 0)
(3 1.04724e-07 0)
(3 1.03333e-07 0)
(3 9.77347e-08 0)
(3 9.0623e-08 0)
(3 7.86897e-08 0)
(3 6.88928e-08 0)
(3 3.92387e-08 0)
(3 5.63753e-08 0)
(3 2.31083e-08 0)
(3 1.89102e-09 0)
(3 5.61443e-09 0)
(3 1.01475e-08 0)
(3 1.45411e-08 0)
(3 1.9365e-08 0)
(3 2.45986e-08 0)
(3 3.02977e-08 0)
(3 3.6297e-08 0)
(3 4.266e-08 0)
(3 4.91454e-08 0)
(3 5.59525e-08 0)
(3 6.26612e-08 0)
(3 6.95508e-08 0)
(3 7.60344e-08 0)
(3 8.25461e-08 0)
(3 8.83196e-08 0)
(3 9.40286e-08 0)
(3 9.87055e-08 0)
(3 1.0317e-07 0)
(3 1.06378e-07 0)
)
;
    }
    procBoundary0to4
    {
        type            processor;
        value           nonuniform List<vector> 9((3 -1.05625e-15 0) (3 -3.73474e-15 0) (3 -1.86156e-15 0) (3 4.08602e-15 0) (3 -4.25193e-15 0) (3 4.49946e-16 0) (3 -4.25193e-15 0) (3 3.62005e-13 0) (3 8.70761e-12 0));
    }
}


// ************************************************************************* //
