/*--------------------------------*- C++ -*----------------------------------*\
  =========                 |
  \\      /  F ield         | OpenFOAM: The Open Source CFD Toolbox
   \\    /   O peration     | Website:  https://openfoam.org
    \\  /    A nd           | Version:  8
     \\/     M anipulation  |
\*---------------------------------------------------------------------------*/
FoamFile
{
    version     2.0;
    format      ascii;
    class       volScalarField;
    location    "2.9";
    object      p;
}
// * * * * * * * * * * * * * * * * * * * * * * * * * * * * * * * * * * * * * //

dimensions      [1 -1 -2 0 0 0 0];

internalField   nonuniform List<scalar> 
2600
(
1.06856
1.00485
0.992086
1.03678
1.26765
1.69139
1.93116
1.96558
1.8948
1.75261
1.05839
0.99106
0.982823
1.05141
1.30152
1.70879
1.93746
1.97882
1.90733
1.75765
1.06067
0.973299
0.973099
1.07157
1.33691
1.7256
1.93671
1.98311
1.92728
1.7752
1.06587
0.961964
0.964333
1.08095
1.37494
1.76127
1.93544
1.95105
1.93563
1.788
1.06981
0.96105
0.958259
1.09018
1.40153
1.79854
1.97872
1.96751
1.90715
1.76349
1.07411
0.968272
0.965252
1.11424
1.41736
1.76384
1.96818
1.99805
1.92361
1.76865
1.07737
0.970394
0.980416
1.13656
1.45927
1.76948
1.96641
1.98085
1.93928
1.78004
1.08071
0.966756
0.983414
1.15219
1.47514
1.7621
1.95975
1.99048
1.92989
1.78209
1.07624
0.957529
0.962788
1.13352
1.44266
1.75902
1.97581
2.00299
1.91098
1.7985
1.07693
0.950157
0.951591
1.12453
1.45363
1.77412
1.94971
1.96949
1.92518
1.79557
1.075
0.952229
0.965844
1.14525
1.44782
1.764
1.96404
1.99322
1.93355
1.77064
1.07378
0.956628
0.971509
1.19067
1.48435
1.75483
1.94145
1.98469
1.94514
1.75555
1.07175
0.955981
0.98462
1.22062
1.50658
1.73373
1.94179
2.00981
1.9325
1.77486
1.06422
0.947526
0.96626
1.19463
1.52114
1.73522
1.94
2.01852
1.93391
1.77591
1.05608
0.939171
0.94389
1.1537
1.47639
1.72315
1.94531
1.9787
1.92371
1.78316
1.04943
0.931532
0.947622
1.15395
1.46497
1.72998
1.9313
1.96906
1.92586
1.78833
1.04564
0.939666
0.961619
1.15976
1.46692
1.70153
1.93091
2.00992
1.93243
1.75578
1.04106
0.953032
0.970634
1.14745
1.43622
1.67523
1.93147
1.99493
1.91561
1.75139
1.04267
0.968859
0.967412
1.1158
1.40321
1.6607
1.91932
1.96529
1.90547
1.76939
1.04642
0.982024
0.970477
1.09959
1.37477
1.64205
1.90045
1.95628
1.90552
1.76662
1.25134
1.00183
0.983631
1.08239
1.33542
1.61546
1.88095
1.95972
1.90409
1.75859
1.47247
1.04425
1.01166
1.07091
1.28181
1.57966
1.86621
1.95891
1.8994
1.7472
1.69224
1.12095
1.03278
1.06684
1.22584
1.53231
1.85674
1.94967
1.89216
1.74232
1.8689
1.224
1.0681
1.07287
1.18484
1.47652
1.83013
1.93462
1.88351
1.7415
2.02058
1.33502
1.12182
1.08804
1.16393
1.41989
1.79337
1.92405
1.87636
1.73906
2.15021
1.44199
1.17537
1.10978
1.15289
1.36776
1.75338
1.91354
1.87098
1.73294
2.26162
1.55353
1.22971
1.12503
1.15227
1.31704
1.70921
1.90114
1.86453
1.72656
2.35397
1.66272
1.29495
1.13629
1.14931
1.26879
1.65923
1.88248
1.85744
1.72167
2.43264
1.7577
1.3768
1.16811
1.14696
1.22948
1.60052
1.85955
1.84988
1.71645
2.50249
1.84108
1.45257
1.22553
1.14964
1.20272
1.53267
1.83622
1.84328
1.71001
2.56408
1.92323
1.51882
1.28486
1.16225
1.18619
1.46325
1.80976
1.83523
1.70278
2.61963
2.00381
1.58564
1.33027
1.18568
1.18517
1.40041
1.77563
1.82849
1.69536
2.67036
2.07789
1.65666
1.37657
1.208
1.18398
1.34304
1.73456
1.81956
1.6876
2.71693
2.14415
1.72393
1.43335
1.22994
1.18653
1.29352
1.68449
1.80989
1.67892
2.75832
2.20486
1.78433
1.49255
1.26302
1.18797
1.25382
1.62786
1.79773
1.67029
2.79501
2.26165
1.84187
1.54452
1.30841
1.19223
1.22558
1.56699
1.7829
1.65963
2.82811
2.31505
1.89985
1.59238
1.35194
1.20429
1.20789
1.50433
1.76498
1.64932
2.85855
2.36555
1.95619
1.64153
1.39031
1.22135
1.19789
1.44102
1.7423
1.63815
2.88676
2.41326
2.00912
1.69048
1.43103
1.23687
1.19467
1.38077
1.71323
1.62672
2.91276
2.4583
2.05893
1.73702
1.4734
1.2565
1.19421
1.32612
1.67785
1.61637
5.35189
5.07739
4.88078
4.68647
4.50056
4.32855
4.15285
3.96206
3.68746
3.38943
4.94642
4.69193
4.57233
4.43589
4.30578
4.16976
4.01534
3.82412
3.54643
3.16683
4.82092
4.62773
4.52837
4.40601
4.29156
4.16219
4.00572
3.8079
3.52952
3.15861
4.63071
4.49686
4.42621
4.32291
4.22238
4.09705
3.94542
3.75029
3.48162
3.11303
4.47607
4.39006
4.33968
4.24529
4.15368
4.03455
3.89225
3.7017
3.44412
3.07697
4.34776
4.28349
4.24157
4.16219
4.08497
3.9733
3.83905
3.65313
3.40866
3.0538
4.2413
4.19069
4.15661
4.09003
4.02189
3.91588
3.79
3.60992
3.37914
3.04717
4.14625
4.11325
4.08594
4.02822
3.96556
3.86469
3.7465
3.5732
3.35697
3.05157
4.06981
4.04891
4.02491
3.97392
3.91528
3.81956
3.70834
3.54285
3.34084
3.0616
4.01746
4.00087
3.97674
3.92821
3.87066
3.77923
3.6741
3.51696
3.32882
3.07337
3.98363
3.96299
3.93615
3.88838
3.83164
3.74453
3.6446
3.49624
3.32049
3.08585
3.95813
3.92978
3.9005
3.85308
3.79721
3.71418
3.61908
3.47952
3.31523
3.10035
3.93383
3.89941
3.86872
3.82161
3.76677
3.68769
3.59708
3.46595
3.31274
3.11583
3.91033
3.87198
3.84042
3.7937
3.73999
3.66454
3.5781
3.45542
3.31193
3.13059
3.88738
3.84677
3.81481
3.76874
3.71638
3.64436
3.56188
3.44717
3.31259
3.14473
3.8655
3.82363
3.79157
3.74633
3.69548
3.62673
3.54805
3.44068
3.31438
3.15831
3.84446
3.80185
3.76993
3.72574
3.67657
3.61104
3.53607
3.43546
3.31685
3.17123
3.8244
3.78141
3.74981
3.70679
3.65941
3.59706
3.52569
3.43129
3.31967
3.18336
3.80428
3.76145
3.73043
3.68876
3.64331
3.58415
3.51635
3.42783
3.32271
3.19479
3.78377
3.74218
3.71204
3.67192
3.62839
3.57225
3.50773
3.42459
3.32533
3.20504
1.00353
1.01112
1.01975
1.02953
1.04089
1.05402
1.07008
1.08276
2.84297
4.19459
1.00353
1.01112
1.01975
1.02953
1.04089
1.05402
1.07008
1.08283
2.83754
4.18273
1.00353
1.01112
1.01975
1.02953
1.04089
1.05401
1.07008
1.08286
2.8313
4.16781
1.00353
1.01112
1.01975
1.02953
1.04088
1.05401
1.07009
1.08291
2.821
4.15113
1.00353
1.01112
1.01975
1.02953
1.04088
1.054
1.07009
1.08298
2.80778
4.13271
1.00353
1.01112
1.01975
1.02953
1.04087
1.05399
1.0701
1.08305
2.79156
4.11302
1.00353
1.01112
1.01974
1.02954
1.04086
1.05399
1.07012
1.08307
2.77329
4.08985
1.00353
1.01112
1.01974
1.02954
1.04085
1.05398
1.07014
1.08307
2.75274
4.06568
1.00353
1.01112
1.01974
1.02954
1.04084
1.05398
1.07017
1.08307
2.72892
4.04009
1.00353
1.01112
1.01973
1.02955
1.04083
1.05398
1.07021
1.08309
2.70161
4.0135
1.00353
1.01112
1.01973
1.02955
1.04081
1.05398
1.07025
1.08312
2.67116
3.98689
1.00353
1.01112
1.01973
1.02956
1.0408
1.05399
1.0703
1.08315
2.63864
3.96134
1.00353
1.01112
1.01973
1.02956
1.04079
1.054
1.07035
1.08319
2.60507
3.9372
1.00353
1.01113
1.01972
1.02957
1.04078
1.054
1.0704
1.08324
2.57119
3.91425
1.00353
1.01113
1.01972
1.02957
1.04078
1.05401
1.07045
1.0833
2.53736
3.89262
1.00353
1.01113
1.01972
1.02958
1.04077
1.05401
1.0705
1.08336
2.50403
3.87222
1.00353
1.01113
1.01972
1.02958
1.04077
1.05401
1.07054
1.08343
2.47131
3.85309
1.00353
1.01113
1.01971
1.02959
1.04077
1.054
1.07058
1.0835
2.43927
3.83549
1.00353
1.01113
1.01971
1.02959
1.04078
1.05399
1.07061
1.08356
2.40801
3.8191
1.00353
1.01113
1.01971
1.02959
1.04078
1.05398
1.07064
1.08362
2.37737
3.80465
1.00353
1.01113
1.01971
1.02959
1.04078
1.05398
1.07064
1.08362
2.37739
3.80471
1.00353
1.01113
1.01971
1.02959
1.04078
1.05399
1.07061
1.08356
2.40802
3.81915
1.00353
1.01113
1.01971
1.02959
1.04077
1.054
1.07058
1.0835
2.43929
3.83553
1.00353
1.01113
1.01972
1.02958
1.04077
1.05401
1.07054
1.08343
2.47133
3.85311
1.00353
1.01113
1.01972
1.02958
1.04077
1.05401
1.0705
1.08336
2.50403
3.87222
1.00353
1.01113
1.01972
1.02957
1.04078
1.05401
1.07045
1.0833
2.53736
3.8926
1.00353
1.01113
1.01972
1.02957
1.04078
1.054
1.0704
1.08324
2.57117
3.91422
1.00353
1.01112
1.01973
1.02956
1.04079
1.054
1.07035
1.08319
2.60505
3.93715
1.00353
1.01112
1.01973
1.02956
1.0408
1.05399
1.0703
1.08315
2.63862
3.9613
1.00353
1.01112
1.01973
1.02955
1.04081
1.05398
1.07025
1.08312
2.67115
3.98684
1.00353
1.01112
1.01973
1.02955
1.04083
1.05398
1.07021
1.08309
2.7016
4.01345
1.00353
1.01112
1.01974
1.02954
1.04084
1.05398
1.07017
1.08307
2.72893
4.04006
1.00353
1.01112
1.01974
1.02954
1.04085
1.05398
1.07014
1.08307
2.75277
4.06568
1.00353
1.01112
1.01974
1.02954
1.04086
1.05399
1.07012
1.08307
2.77332
4.08986
1.00353
1.01112
1.01975
1.02953
1.04087
1.05399
1.0701
1.08305
2.79159
4.11303
1.00353
1.01112
1.01975
1.02953
1.04088
1.054
1.07009
1.08298
2.80781
4.13274
1.00353
1.01112
1.01975
1.02953
1.04088
1.05401
1.07009
1.08291
2.82101
4.15118
1.00353
1.01112
1.01975
1.02953
1.04089
1.05401
1.07008
1.08286
2.83131
4.16786
1.00353
1.01112
1.01975
1.02953
1.04089
1.05402
1.07008
1.08282
2.83753
4.1828
1.00353
1.01112
1.01975
1.02953
1.04089
1.05402
1.07008
1.08281
2.84296
4.19461
3.78369
3.74204
3.71184
3.67163
3.62802
3.5718
3.50722
3.42409
3.32487
3.20476
3.80418
3.76128
3.7302
3.68845
3.64291
3.58369
3.51585
3.42735
3.32231
3.19465
3.82429
3.78123
3.74957
3.70647
3.65901
3.59662
3.52523
3.43085
3.3194
3.1834
3.84435
3.80167
3.76968
3.72542
3.67619
3.61062
3.53565
3.43507
3.31672
3.17148
3.8654
3.82345
3.79133
3.74603
3.69513
3.62634
3.54767
3.44037
3.31443
3.15876
3.88731
3.8466
3.81459
3.76845
3.71605
3.644
3.56156
3.44699
3.3128
3.14539
3.9103
3.87183
3.8402
3.79342
3.73967
3.66422
3.57785
3.45541
3.31229
3.13148
3.93383
3.89927
3.86852
3.82135
3.76647
3.68742
3.59692
3.46608
3.31327
3.11701
3.95814
3.92966
3.90031
3.85283
3.79694
3.71397
3.61901
3.47977
3.31598
3.10192
3.98363
3.96289
3.93598
3.88817
3.83141
3.74439
3.64461
3.4966
3.3215
3.08782
4.01745
4.00079
3.9766
3.92804
3.87047
3.77913
3.67419
3.51746
3.3301
3.07566
4.06969
4.04877
4.02473
3.97374
3.91511
3.8195
3.7085
3.54348
3.34236
3.06423
4.14603
4.11305
4.08574
4.02803
3.9654
3.86464
3.74671
3.57393
3.35864
3.05448
4.24105
4.19043
4.15636
4.0898
4.0217
3.91583
3.79022
3.6107
3.3809
3.05042
4.34753
4.28322
4.24129
4.16193
4.08476
3.97323
3.83927
3.65391
3.41047
3.05734
4.47588
4.38985
4.33944
4.24505
4.15346
4.03445
3.89244
3.70246
3.44592
3.08084
4.63058
4.49668
4.42598
4.32266
4.22215
4.09691
3.94551
3.75095
3.48331
3.1171
4.82086
4.6276
4.5282
4.40579
4.29135
4.16205
4.00575
3.80843
3.53094
3.16256
4.94652
4.69188
4.57222
4.43572
4.30557
4.16961
4.01534
3.82455
3.54776
3.1702
5.35221
5.07754
4.88082
4.68642
4.50041
4.32842
4.15277
3.96234
3.68841
3.39274
2.91351
2.46073
2.06174
1.73633
1.46864
1.25411
1.19581
1.33209
1.68155
1.61951
2.88779
2.41625
2.01192
1.68913
1.4247
1.2357
1.19772
1.38874
1.71582
1.6297
2.85979
2.36889
1.95908
1.63902
1.38332
1.22112
1.20183
1.44859
1.74326
1.64068
2.82951
2.31847
1.90248
1.58865
1.34465
1.20477
1.21474
1.51164
1.76504
1.65191
2.79658
2.26509
1.84396
1.53989
1.29994
1.19393
1.23503
1.57689
1.78254
1.6624
2.76023
2.20817
1.78618
1.4869
1.25413
1.19056
1.26709
1.64015
1.79674
1.67313
2.71932
2.14758
1.72558
1.42629
1.22321
1.18925
1.3097
1.69469
1.80822
1.67955
2.67333
2.08162
1.65776
1.36907
1.20266
1.18751
1.36047
1.73913
1.81759
1.68826
2.62296
2.00742
1.58581
1.32383
1.17899
1.18586
1.41895
1.7759
1.82567
1.69731
2.56761
1.92634
1.51912
1.27907
1.15318
1.18992
1.48585
1.81192
1.83199
1.70558
2.50623
1.84257
1.45511
1.22094
1.13741
1.2079
1.55504
1.84437
1.83769
1.71238
2.43638
1.75839
1.38188
1.1624
1.13192
1.23786
1.61529
1.86779
1.84464
1.71761
2.35804
1.66217
1.30291
1.12849
1.13288
1.27941
1.66751
1.88263
1.85396
1.7223
2.26643
1.55247
1.24008
1.11089
1.13012
1.33155
1.71992
1.8943
1.86036
1.72744
2.15678
1.43786
1.19518
1.09149
1.12594
1.38668
1.77078
1.90919
1.86416
1.73271
2.03026
1.32579
1.14939
1.06619
1.11605
1.43878
1.81096
1.92713
1.86883
1.7376
1.88156
1.21276
1.10515
1.04333
1.12349
1.49563
1.83778
1.93804
1.87933
1.74323
1.70947
1.11303
1.0697
1.03412
1.148
1.56229
1.85573
1.9428
1.89185
1.75051
1.49519
1.05149
1.0361
1.02802
1.18872
1.62674
1.87455
1.94036
1.89831
1.75448
1.27173
1.02178
1.00477
1.02765
1.23155
1.66743
1.90632
1.94425
1.89444
1.75434
3.23704
3.04383
2.7935
2.53683
2.25664
1.96729
1.68567
1.43914
1.16468
0.886871
3.23607
3.04164
2.79086
2.53296
2.25244
1.96336
1.68254
1.43485
1.16106
0.888895
3.23438
3.0377
2.78778
2.52663
2.24534
1.95665
1.67689
1.42726
1.1549
0.892293
3.23165
3.03179
2.78245
2.51692
2.23486
1.94678
1.66859
1.41613
1.14717
0.897855
3.22783
3.02413
2.77417
2.50454
2.22111
1.93374
1.65744
1.40127
1.13771
0.906146
3.2228
3.01449
2.76288
2.48909
2.20401
1.91756
1.64331
1.38264
1.12826
0.917606
3.21653
3.00289
2.74837
2.47042
2.18346
1.89805
1.62598
1.36016
1.11924
0.93277
3.20897
2.98909
2.73051
2.44828
2.15942
1.87537
1.60516
1.33441
1.11247
0.953511
3.20001
2.97286
2.70908
2.42252
2.1317
1.84936
1.58078
1.30552
1.10625
0.981559
3.18953
2.95394
2.6839
2.39281
2.10038
1.81994
1.55224
1.2755
1.0987
1.02194
3.17741
2.93205
2.65467
2.35879
2.06499
1.78719
1.51933
1.24445
1.08903
1.07541
3.16352
2.90688
2.62102
2.32037
2.02565
1.75036
1.48216
1.21554
1.08348
1.13618
3.14766
2.87797
2.58278
2.27687
1.98204
1.70962
1.44014
1.19133
1.08493
1.2046
3.12946
2.84504
2.53926
2.22854
1.93371
1.664
1.39507
1.1755
1.09736
1.27893
3.10863
2.80734
2.48996
2.17421
1.8812
1.61299
1.34701
1.16579
1.1288
1.35325
3.08473
2.76425
2.43432
2.11411
1.82294
1.55702
1.30179
1.15726
1.18639
1.42467
3.05748
2.71503
2.37153
2.0476
1.76002
1.49416
1.26183
1.15595
1.27131
1.48666
3.02646
2.65875
2.30074
1.974
1.69089
1.42854
1.23258
1.1665
1.38218
1.5341
2.99064
2.59472
2.2209
1.89335
1.61544
1.35967
1.21142
1.19932
1.5016
1.57103
2.94884
2.52166
2.13268
1.80519
1.53427
1.29602
1.19955
1.26191
1.6131
1.60045
2.9485
2.51988
2.13041
1.80482
1.5371
1.29884
1.19793
1.25993
1.61064
1.59806
2.99067
2.59364
2.21889
1.89244
1.61661
1.36151
1.21119
1.20017
1.50195
1.56955
3.02672
2.65807
2.2994
1.97292
1.69091
1.4291
1.2327
1.16813
1.3849
1.53322
3.05786
2.71483
2.37067
2.04666
1.75957
1.49392
1.26215
1.15668
1.27492
1.48677
3.0852
2.76437
2.43397
2.11353
1.82239
1.55626
1.30102
1.15789
1.18966
1.42613
3.10911
2.80767
2.48998
2.17397
1.88079
1.6121
1.34606
1.16605
1.13117
1.35542
3.12991
2.84548
2.53958
2.22863
1.93349
1.6633
1.39378
1.17542
1.09874
1.28122
3.14802
2.87845
2.58328
2.27721
1.98215
1.70918
1.43912
1.19095
1.08539
1.20678
3.16378
2.90734
2.6216
2.32091
2.02596
1.75025
1.48144
1.21494
1.08358
1.13785
3.17757
2.93244
2.65525
2.35941
2.06551
1.78733
1.51896
1.24392
1.08885
1.07663
3.18959
2.95425
2.68442
2.39344
2.10096
1.82028
1.5522
1.27515
1.09851
1.02259
3.19998
2.97308
2.7095
2.42306
2.13227
1.84978
1.58094
1.3054
1.1061
0.981709
3.20889
2.98921
2.73081
2.4487
2.15992
1.8758
1.60542
1.33448
1.11233
0.953406
3.21641
3.00292
2.74854
2.47071
2.18384
1.89841
1.62627
1.36034
1.11912
0.932546
3.22266
3.01445
2.76293
2.48924
2.20425
1.91782
1.64355
1.38287
1.12827
0.917391
3.22769
3.02404
2.77411
2.50458
2.22122
1.93389
1.65762
1.4015
1.13781
0.905988
3.23153
3.03165
2.7823
2.51683
2.23484
1.94681
1.66868
1.41632
1.14738
0.897786
3.23428
3.03753
2.78757
2.52645
2.24522
1.95659
1.67689
1.42739
1.15518
0.892308
3.23599
3.04144
2.79063
2.53272
2.25225
1.96323
1.68248
1.43492
1.16135
0.888983
3.23698
3.04359
2.79327
2.53656
2.2564
1.96712
1.68558
1.43917
1.16497
0.887002
3.75517
3.71775
3.68966
3.65198
3.61104
3.55861
3.49804
3.42144
3.32937
3.21908
3.71726
3.6871
3.66253
3.62851
3.5909
3.54287
3.48702
3.41795
3.33441
3.23607
3.6849
3.66092
3.63934
3.60894
3.57445
3.53057
3.47884
3.416
3.33964
3.25096
3.66123
3.64024
3.62053
3.59299
3.56108
3.52089
3.47287
3.41532
3.34528
3.26422
3.64426
3.62423
3.6056
3.58008
3.55017
3.51306
3.4683
3.41522
3.35077
3.27609
3.63237
3.61246
3.59436
3.57015
3.54171
3.50707
3.46499
3.41557
3.35602
3.28665
3.62421
3.60408
3.58617
3.56277
3.53541
3.5025
3.46269
3.41639
3.36092
3.29608
3.61894
3.59831
3.58042
3.55753
3.53087
3.49918
3.46146
3.4177
3.3655
3.30448
3.61571
3.59461
3.57661
3.55395
3.52778
3.49717
3.46108
3.41925
3.36977
3.312
3.6141
3.59255
3.57437
3.55181
3.52608
3.49628
3.46134
3.42105
3.37381
3.31878
3.61393
3.59168
3.57331
3.55082
3.52534
3.49605
3.46204
3.42301
3.37761
3.32487
3.61488
3.59177
3.57316
3.55059
3.52523
3.4963
3.46302
3.425
3.38112
3.33028
3.61663
3.59256
3.57367
3.55093
3.52562
3.49691
3.46419
3.42696
3.3843
3.33502
3.61887
3.5938
3.57464
3.55169
3.52635
3.49777
3.46546
3.42883
3.38714
3.33915
3.62134
3.59527
3.57586
3.55268
3.52729
3.49876
3.46675
3.43055
3.38963
3.34265
3.6238
3.59677
3.57716
3.55375
3.52829
3.49975
3.46795
3.43206
3.39175
3.34557
3.62597
3.59811
3.57832
3.5547
3.52917
3.50059
3.46893
3.43326
3.3934
3.34784
3.62777
3.59926
3.57933
3.55554
3.52993
3.5013
3.46973
3.4342
3.39465
3.34954
3.62876
3.59991
3.57991
3.55602
3.53038
3.50172
3.47022
3.43478
3.39544
3.3506
3.62912
3.6003
3.58043
3.55655
3.53093
3.50223
3.47073
3.43528
3.39604
3.35134
1.00353
1.01113
1.01971
1.02959
1.04079
1.05396
1.07067
1.0837
2.34019
3.7885
1.00353
1.01113
1.01971
1.0296
1.0408
1.05393
1.0707
1.08377
2.29716
3.77282
1.00353
1.01113
1.01971
1.02959
1.04082
1.0539
1.07071
1.08384
2.25604
3.75897
1.00353
1.01113
1.01971
1.02959
1.04083
1.05388
1.07072
1.0839
2.21778
3.7448
1.00352
1.01113
1.01971
1.02959
1.04084
1.05385
1.07073
1.08395
2.18178
3.73123
1.00352
1.01113
1.01971
1.02958
1.04086
1.05383
1.07073
1.08399
2.14756
3.71871
1.00352
1.01113
1.01971
1.02958
1.04087
1.05381
1.07072
1.08403
2.11536
3.70708
1.00353
1.01113
1.01972
1.02957
1.04088
1.0538
1.07072
1.08406
2.0852
3.69631
1.00353
1.01113
1.01972
1.02956
1.04089
1.05379
1.07071
1.08409
2.05716
3.68643
1.00353
1.01113
1.01972
1.02956
1.0409
1.05377
1.07071
1.08411
2.03128
3.67749
1.00353
1.01113
1.01973
1.02955
1.04091
1.05376
1.07071
1.08413
2.0076
3.66948
1.00353
1.01113
1.01973
1.02954
1.04092
1.05375
1.07071
1.08415
1.98616
3.66238
1.00353
1.01113
1.01973
1.02954
1.04094
1.05374
1.07073
1.08418
1.967
3.65617
1.00353
1.01112
1.01974
1.02953
1.04095
1.05373
1.07075
1.0842
1.95016
3.65082
1.00353
1.01112
1.01974
1.02952
1.04096
1.05372
1.07079
1.08421
1.93568
3.64629
1.00353
1.01112
1.01974
1.02952
1.04097
1.05371
1.07083
1.08423
1.92359
3.64256
1.00353
1.01112
1.01974
1.02951
1.04098
1.0537
1.07088
1.08424
1.91393
3.63952
1.00353
1.01112
1.01975
1.02951
1.04099
1.05369
1.07091
1.08424
1.90659
3.63725
1.00353
1.01112
1.01975
1.02951
1.04099
1.05369
1.07093
1.08425
1.90159
3.63548
1.00353
1.01112
1.01975
1.0295
1.041
1.05368
1.07098
1.08425
1.89917
3.63457
1.00353
1.01112
1.01975
1.0295
1.041
1.05368
1.07098
1.08425
1.89917
3.63454
1.00353
1.01112
1.01975
1.02951
1.04099
1.05369
1.07093
1.08425
1.90159
3.63546
1.00353
1.01112
1.01975
1.02951
1.04099
1.05369
1.07091
1.08424
1.90659
3.63723
1.00353
1.01112
1.01974
1.02951
1.04098
1.0537
1.07088
1.08424
1.91393
3.6395
1.00353
1.01112
1.01974
1.02952
1.04097
1.05371
1.07083
1.08423
1.92359
3.64254
1.00353
1.01112
1.01974
1.02952
1.04096
1.05372
1.07079
1.08421
1.93567
3.64627
1.00353
1.01112
1.01974
1.02953
1.04095
1.05373
1.07075
1.0842
1.95015
3.65081
1.00353
1.01113
1.01973
1.02954
1.04094
1.05374
1.07073
1.08418
1.96698
3.65616
1.00353
1.01113
1.01973
1.02954
1.04092
1.05375
1.07071
1.08415
1.98614
3.66238
1.00353
1.01113
1.01973
1.02955
1.04091
1.05376
1.07071
1.08413
2.00758
3.66948
1.00353
1.01113
1.01972
1.02956
1.0409
1.05377
1.07071
1.08411
2.03126
3.6775
1.00353
1.01113
1.01972
1.02956
1.04089
1.05379
1.07071
1.08409
2.05714
3.68645
1.00353
1.01113
1.01972
1.02957
1.04088
1.0538
1.07072
1.08406
2.08518
3.69633
1.00352
1.01113
1.01971
1.02958
1.04087
1.05381
1.07072
1.08403
2.11535
3.7071
1.00352
1.01113
1.01971
1.02958
1.04086
1.05383
1.07073
1.08399
2.14756
3.71874
1.00352
1.01113
1.01971
1.02959
1.04084
1.05385
1.07073
1.08395
2.18177
3.73127
1.00353
1.01113
1.01971
1.02959
1.04083
1.05388
1.07072
1.0839
2.21778
3.74484
1.00353
1.01113
1.01971
1.02959
1.04082
1.0539
1.07071
1.08384
2.25605
3.75902
1.00353
1.01113
1.01971
1.0296
1.0408
1.05393
1.0707
1.08377
2.29716
3.77288
1.00353
1.01113
1.01971
1.02959
1.04079
1.05396
1.07067
1.0837
2.3402
3.78857
3.62909
3.60026
3.58036
3.55648
3.53084
3.50212
3.47062
3.43518
3.39595
3.35129
3.62873
3.59986
3.57985
3.55595
3.5303
3.50163
3.47013
3.43469
3.39537
3.35058
3.62774
3.59922
3.57928
3.55548
3.52987
3.50123
3.46967
3.43415
3.39462
3.34955
3.62594
3.59807
3.57828
3.55466
3.52913
3.50055
3.46891
3.43325
3.39342
3.34789
3.62376
3.59674
3.57713
3.55373
3.52828
3.49975
3.46797
3.43211
3.39182
3.34567
3.6213
3.59524
3.57585
3.55268
3.52731
3.4988
3.46681
3.43064
3.38975
3.34279
3.61884
3.59379
3.57464
3.55172
3.52641
3.49786
3.46558
3.42897
3.38731
3.33932
3.61662
3.59257
3.5737
3.55099
3.52571
3.49704
3.46435
3.42714
3.38449
3.33521
3.61489
3.59181
3.57322
3.55068
3.52535
3.49645
3.4632
3.4252
3.38132
3.33045
3.61396
3.59175
3.57341
3.55094
3.5255
3.49623
3.46224
3.42321
3.37779
3.325
3.61416
3.59265
3.57449
3.55196
3.52626
3.49647
3.46154
3.42123
3.37395
3.31884
3.6158
3.59474
3.57676
3.55412
3.52797
3.49736
3.46126
3.41939
3.36984
3.31197
3.61906
3.59846
3.58059
3.55771
3.53106
3.49935
3.46159
3.41777
3.36548
3.30433
3.62435
3.60425
3.58635
3.56294
3.53557
3.50263
3.46275
3.41638
3.36079
3.29582
3.63253
3.61264
3.59453
3.5703
3.54182
3.50713
3.46496
3.41544
3.35576
3.28627
3.64444
3.6244
3.60575
3.58019
3.55021
3.51304
3.46817
3.41496
3.35039
3.2756
3.66143
3.6404
3.62064
3.59303
3.56104
3.52076
3.47262
3.41494
3.3448
3.26367
3.68507
3.66102
3.63938
3.6089
3.57433
3.53033
3.47848
3.41553
3.33909
3.2504
3.71736
3.68711
3.66248
3.62838
3.59068
3.54255
3.48658
3.41743
3.33383
3.23555
3.75516
3.71766
3.68951
3.65175
3.61071
3.55818
3.49753
3.4209
3.32884
3.21866
)
;

boundaryField
{
    inlet
    {
        type            fixedValue;
        value           uniform 1;
    }
    outlet
    {
        type            zeroGradient;
    }
    triangle
    {
        type            zeroGradient;
    }
    top
    {
        type            symmetryPlane;
    }
    bottom
    {
        type            symmetryPlane;
    }
    defaultFaces
    {
        type            empty;
    }
}


// ************************************************************************* //
