/*--------------------------------*- C++ -*----------------------------------*\
  =========                 |
  \\      /  F ield         | OpenFOAM: The Open Source CFD Toolbox
   \\    /   O peration     | Website:  https://openfoam.org
    \\  /    A nd           | Version:  8
     \\/     M anipulation  |
\*---------------------------------------------------------------------------*/
FoamFile
{
    version     2.0;
    format      ascii;
    class       volScalarField;
    location    "2.9";
    object      rho;
}
// * * * * * * * * * * * * * * * * * * * * * * * * * * * * * * * * * * * * * //

dimensions      [1 -3 0 0 0 0 0];

internalField   nonuniform List<scalar> 
2600
(
1.09987
1.09816
1.17454
1.31208
1.56451
1.95651
2.14858
2.19439
2.14415
2.0368
1.05727
1.03544
1.1122
1.29013
1.57165
1.95593
2.14462
2.19757
2.15047
2.03785
1.05052
0.999956
1.05972
1.2641
1.56746
1.94357
2.12482
2.18438
2.15462
2.04279
1.05376
0.986968
1.02498
1.22388
1.55329
1.9274
2.08476
2.12669
2.13717
2.03387
1.05806
0.984978
1.00244
1.18008
1.51747
1.88781
2.04682
2.07901
2.07204
1.97855
1.06252
0.988555
0.992667
1.14674
1.45985
1.77182
1.94102
2.01472
2.01747
1.92716
1.06572
0.987839
0.992561
1.1214
1.41544
1.68161
1.84688
1.91263
1.949
1.86939
1.06798
0.983161
0.989148
1.11235
1.37225
1.6127
1.78543
1.85568
1.8721
1.81071
1.0642
0.974943
0.972548
1.09628
1.32953
1.5854
1.77561
1.83558
1.81649
1.78321
1.06431
0.969088
0.964333
1.09081
1.33394
1.59009
1.75532
1.80652
1.8112
1.76436
1.06286
0.970884
0.974728
1.10576
1.33094
1.58322
1.76574
1.82523
1.81671
1.74438
1.06224
0.974564
0.979041
1.13649
1.35597
1.57948
1.76325
1.8413
1.83839
1.74176
1.06136
0.975135
0.989009
1.15701
1.3751
1.58189
1.80704
1.91084
1.8697
1.7817
1.05655
0.970703
0.979828
1.15144
1.4095
1.63374
1.88754
1.99827
1.93865
1.83371
1.05055
0.966598
0.973819
1.15459
1.43954
1.71175
1.98676
2.0562
2.01159
1.90716
1.04469
0.962881
0.993313
1.2057
1.51308
1.80907
2.05478
2.11719
2.08319
1.97652
1.04072
0.970843
1.0276
1.26999
1.59154
1.86107
2.10454
2.19127
2.13464
1.9963
1.03797
0.987308
1.07019
1.31657
1.62809
1.88915
2.13155
2.203
2.14612
2.01813
1.0482
1.02341
1.11702
1.33697
1.64424
1.90775
2.13479
2.19125
2.149
2.04506
1.08522
1.08535
1.173
1.35833
1.64886
1.91164
2.1248
2.18813
2.15267
2.0481
1.34375
1.1701
1.23434
1.37112
1.63378
1.89954
2.10848
2.19164
2.1521
2.04305
1.62078
1.26282
1.2986
1.38232
1.59739
1.87151
2.09327
2.18967
2.14693
2.03278
1.86606
1.37248
1.34157
1.39187
1.55155
1.82904
2.08177
2.17965
2.13879
2.02757
2.0543
1.50184
1.38944
1.40574
1.51491
1.77771
2.05848
2.16544
2.12983
2.02574
2.2002
1.62803
1.45109
1.42453
1.49476
1.72611
2.03001
2.15586
2.12289
2.02243
2.31067
1.73496
1.5057
1.4432
1.48361
1.67957
2.00035
2.14758
2.11834
2.01657
2.3961
1.83419
1.55461
1.45414
1.4823
1.63455
1.96749
2.13883
2.11371
2.01147
2.46107
1.92406
1.60983
1.46252
1.47948
1.5913
1.9299
2.12491
2.10864
2.00825
2.51328
1.99828
1.67837
1.49121
1.4776
1.55592
1.88535
2.10608
2.10301
2.00533
2.55924
2.06158
1.74122
1.54404
1.47937
1.53297
1.83257
2.0847
2.09871
2.00171
2.60131
2.12401
1.7963
1.59811
1.49028
1.52069
1.77602
2.05892
2.09436
1.9975
2.6416
2.18621
1.85242
1.63935
1.51182
1.52317
1.72158
2.02663
2.09236
1.99263
2.68035
2.2446
1.91262
1.68122
1.53456
1.5236
1.67028
1.99189
2.08841
1.98672
2.717
2.29783
1.97002
1.73211
1.55773
1.52576
1.62597
1.95496
2.08197
1.97974
2.74988
2.34707
2.02176
1.78485
1.59011
1.52656
1.59089
1.91458
2.07244
1.97247
2.77874
2.393
2.07074
1.83099
1.63237
1.52975
1.56695
1.86864
2.06002
1.96301
2.80415
2.43565
2.11935
1.87305
1.67199
1.54016
1.55313
1.81733
2.04427
1.95337
2.82687
2.47522
2.16581
1.91551
1.70635
1.55672
1.54488
1.76292
2.02398
1.94276
2.84743
2.51188
2.20871
1.95711
1.74229
1.57271
1.54154
1.71048
1.99841
1.93204
2.86606
2.54586
2.24842
1.99608
1.77933
1.59196
1.54046
1.66248
1.96799
1.92267
4.27347
4.11431
4.00097
3.89077
3.78665
3.6904
3.58995
3.47805
3.3113
3.10005
4.05471
3.90656
3.83962
3.763
3.68985
3.61221
3.52173
3.4065
3.23379
2.98055
4.00743
3.90011
3.85108
3.78482
3.71948
3.64294
3.54814
3.42608
3.24971
3.00836
3.92671
3.85395
3.82111
3.76536
3.70747
3.63178
3.53771
3.41455
3.24093
2.9968
3.87392
3.82151
3.79291
3.73718
3.68237
3.60911
3.51984
3.39804
3.22934
2.97954
3.80306
3.76318
3.737
3.68765
3.64006
3.57062
3.48628
3.36715
3.20598
2.96176
3.7192
3.68996
3.67029
3.63011
3.589
3.52373
3.44517
3.33022
3.17879
2.95113
3.64065
3.62288
3.60871
3.57568
3.53935
3.4784
3.40548
3.29557
3.15481
2.94683
3.57992
3.56986
3.55839
3.5303
3.49702
3.43976
3.37152
3.26693
3.13597
2.94717
3.54388
3.53612
3.52441
3.49765
3.46475
3.4098
3.34497
3.24533
3.12348
2.95197
3.52794
3.51677
3.50249
3.47532
3.44221
3.38927
3.32707
3.23226
3.11798
2.9613
3.52068
3.50387
3.48713
3.45918
3.4258
3.37472
3.31506
3.22538
3.11788
2.97459
3.51268
3.49183
3.47385
3.44553
3.41224
3.36315
3.30602
3.22152
3.12086
2.98949
3.50291
3.47948
3.46085
3.43259
3.39974
3.35269
3.29806
3.21896
3.12478
3.00373
3.49164
3.46667
3.44774
3.4198
3.38773
3.34275
3.2906
3.21669
3.12855
3.01669
3.47974
3.45387
3.43482
3.40735
3.37619
3.33326
3.28356
3.21446
3.13191
3.02815
3.46755
3.44112
3.42209
3.39522
3.3651
3.32421
3.2769
3.21227
3.13486
3.03825
3.45554
3.42877
3.40988
3.38368
3.35464
3.31577
3.27078
3.21023
3.13755
3.04728
3.44333
3.41657
3.39796
3.37254
3.34466
3.30778
3.26507
3.20837
3.1401
3.05555
3.43095
3.40489
3.38673
3.36218
3.33543
3.30041
3.25976
3.20656
3.14217
3.06283
1.40353
1.4111
1.41971
1.42941
1.44067
1.45363
1.46939
1.48185
2.78159
3.62805
1.40353
1.4111
1.4197
1.42941
1.44067
1.45363
1.46939
1.48192
2.77786
3.62519
1.40353
1.4111
1.4197
1.42941
1.44066
1.45362
1.4694
1.48195
2.77204
3.62311
1.40353
1.41111
1.4197
1.42941
1.44066
1.45362
1.4694
1.482
2.76215
3.61499
1.40353
1.41111
1.4197
1.42942
1.44065
1.45361
1.46941
1.48207
2.74899
3.59828
1.40353
1.41111
1.4197
1.42942
1.44064
1.4536
1.46941
1.48213
2.73595
3.5797
1.40353
1.41111
1.4197
1.42942
1.44064
1.4536
1.46943
1.48216
2.72579
3.56171
1.40353
1.41111
1.41969
1.42943
1.44062
1.45359
1.46945
1.48216
2.71711
3.54806
1.40353
1.41111
1.41969
1.42943
1.44061
1.45359
1.46948
1.48216
2.70714
3.53922
1.40353
1.41111
1.41969
1.42943
1.4406
1.45359
1.46952
1.48218
2.69402
3.53335
1.40353
1.41111
1.41968
1.42944
1.44059
1.45359
1.46956
1.4822
2.67715
3.52791
1.40353
1.41111
1.41968
1.42944
1.44058
1.4536
1.46961
1.48224
2.65722
3.52143
1.40353
1.41111
1.41968
1.42945
1.44057
1.45361
1.46966
1.48228
2.63534
3.51351
1.40353
1.41111
1.41968
1.42946
1.44056
1.45361
1.46971
1.48232
2.6125
3.50411
1.40353
1.41112
1.41967
1.42946
1.44055
1.45362
1.46976
1.48238
2.58934
3.49373
1.40353
1.41112
1.41967
1.42946
1.44055
1.45362
1.46981
1.48244
2.56643
3.48284
1.40353
1.41112
1.41967
1.42947
1.44055
1.45362
1.46985
1.48251
2.544
3.47191
1.40353
1.41112
1.41967
1.42947
1.44055
1.45361
1.46989
1.48257
2.52216
3.46153
1.40353
1.41112
1.41966
1.42948
1.44055
1.4536
1.46992
1.48264
2.50104
3.45179
1.40353
1.41112
1.41966
1.42948
1.44056
1.45359
1.46995
1.4827
2.48056
3.44341
1.40353
1.41112
1.41966
1.42948
1.44056
1.45359
1.46995
1.4827
2.48057
3.44345
1.40353
1.41112
1.41966
1.42948
1.44055
1.4536
1.46992
1.48264
2.50105
3.45182
1.40353
1.41112
1.41967
1.42947
1.44055
1.45361
1.46989
1.48257
2.52218
3.46155
1.40353
1.41112
1.41967
1.42947
1.44055
1.45362
1.46985
1.48251
2.54401
3.47192
1.40353
1.41112
1.41967
1.42946
1.44055
1.45362
1.46981
1.48244
2.56643
3.48283
1.40353
1.41112
1.41967
1.42946
1.44055
1.45362
1.46976
1.48238
2.58933
3.49372
1.40353
1.41111
1.41968
1.42946
1.44056
1.45361
1.46971
1.48232
2.61249
3.50409
1.40353
1.41111
1.41968
1.42945
1.44057
1.45361
1.46966
1.48228
2.63533
3.51348
1.40353
1.41111
1.41968
1.42944
1.44058
1.4536
1.46961
1.48223
2.65721
3.5214
1.40353
1.41111
1.41968
1.42944
1.44059
1.45359
1.46956
1.4822
2.67714
3.52788
1.40353
1.41111
1.41969
1.42943
1.4406
1.45359
1.46952
1.48218
2.69401
3.53334
1.40353
1.41111
1.41969
1.42943
1.44061
1.45359
1.46948
1.48216
2.70714
3.53924
1.40353
1.41111
1.41969
1.42943
1.44062
1.45359
1.46945
1.48216
2.71713
3.54811
1.40353
1.41111
1.4197
1.42942
1.44064
1.4536
1.46943
1.48216
2.72582
3.56178
1.40353
1.41111
1.4197
1.42942
1.44064
1.4536
1.46941
1.48213
2.73599
3.57977
1.40353
1.41111
1.4197
1.42942
1.44065
1.45361
1.46941
1.48207
2.74903
3.59839
1.40353
1.41111
1.4197
1.42941
1.44066
1.45362
1.4694
1.482
2.7622
3.61513
1.40353
1.4111
1.4197
1.42941
1.44066
1.45362
1.4694
1.48195
2.77211
3.62325
1.40353
1.4111
1.4197
1.42941
1.44067
1.45363
1.46939
1.48192
2.77794
3.62532
1.40353
1.4111
1.41971
1.42941
1.44067
1.45363
1.46939
1.4819
2.78163
3.6281
3.4309
3.4048
3.3866
3.36199
3.33519
3.30011
3.25942
3.20622
3.14186
3.06264
3.44326
3.41647
3.39781
3.37233
3.3444
3.30748
3.26474
3.20806
3.13984
3.05545
3.45546
3.42865
3.40972
3.38347
3.35439
3.31548
3.27047
3.20994
3.13737
3.04731
3.46748
3.441
3.42193
3.39502
3.36485
3.32394
3.27662
3.212
3.13478
3.03843
3.47968
3.45375
3.43466
3.40715
3.37596
3.33301
3.28331
3.21426
3.13194
3.02846
3.49159
3.46656
3.44759
3.41961
3.3875
3.34251
3.29039
3.21656
3.12868
3.01713
3.50288
3.47938
3.46071
3.4324
3.39953
3.35247
3.29789
3.21894
3.125
3.00432
3.51267
3.49174
3.47371
3.44535
3.41202
3.36294
3.30588
3.22157
3.12119
2.99027
3.52069
3.50379
3.487
3.459
3.42559
3.37454
3.31496
3.22549
3.11833
2.97563
3.52796
3.5167
3.50237
3.47514
3.442
3.3891
3.32699
3.23244
3.11858
2.96262
3.54389
3.53606
3.52429
3.49747
3.46455
3.40965
3.34494
3.24559
3.1243
2.95351
3.57983
3.56974
3.55823
3.53011
3.49682
3.43963
3.37156
3.26731
3.13697
2.949
3.64048
3.62272
3.60853
3.5755
3.53919
3.47833
3.4056
3.29606
3.15595
2.94889
3.71904
3.68979
3.67012
3.62997
3.58889
3.52371
3.44533
3.33076
3.18002
2.95345
3.80297
3.76307
3.73689
3.68756
3.64
3.57066
3.4865
3.36773
3.20728
2.96434
3.874
3.82155
3.79291
3.73717
3.68237
3.60918
3.52007
3.39864
3.23064
2.98241
3.92685
3.85405
3.82115
3.76536
3.70747
3.63182
3.53789
3.41507
3.24212
2.99988
4.00756
3.90019
3.85113
3.78482
3.71946
3.64295
3.54825
3.42648
3.2507
3.01137
4.05485
3.90662
3.83964
3.76298
3.6898
3.61219
3.52179
3.40683
3.23474
2.98294
4.2737
4.11443
4.00104
3.89079
3.78662
3.69036
3.58995
3.4783
3.31204
3.10211
2.86658
2.54766
2.25063
1.99552
1.77519
1.5896
1.54223
1.66798
1.97086
1.92519
2.84815
2.51409
2.21094
1.956
1.73674
1.57146
1.54434
1.7176
2.00052
1.93445
2.82774
2.47771
2.16812
1.91343
1.70013
1.55644
1.54844
1.76959
2.02489
1.94484
2.80513
2.4382
2.1215
1.86994
1.66541
1.54091
1.55897
1.82384
2.04454
1.95551
2.77983
2.39558
2.07248
1.82708
1.62459
1.53165
1.57532
1.87728
2.06001
1.96531
2.75121
2.34956
2.02334
1.78007
1.58171
1.52934
1.60292
1.92545
2.07202
1.97484
2.71867
2.30043
1.97149
1.72607
1.55105
1.52861
1.64064
1.96451
2.08108
1.98034
2.68244
2.24746
1.9137
1.67471
1.52935
1.52663
1.68586
1.9972
2.08713
1.9875
2.64395
2.189
1.85284
1.63356
1.50624
1.5227
1.73782
2.02813
2.09016
1.99464
2.60382
2.12638
1.79696
1.59263
1.48269
1.5236
1.79504
2.06103
2.0917
2.00033
2.5619
2.0626
1.74395
1.53937
1.46867
1.53772
1.85114
2.0913
2.09384
2.00419
2.51594
1.99851
1.68345
1.48536
1.46418
1.5638
1.89784
2.11256
2.09853
2.00649
2.46392
1.92302
1.61764
1.45456
1.46494
1.60083
1.93736
2.12486
2.10563
2.0088
2.39947
1.83225
1.56492
1.44047
1.46167
1.64698
1.97673
2.1334
2.11032
2.0122
2.3154
1.72944
1.52531
1.42533
1.45806
1.69494
2.01406
2.14443
2.11321
2.01646
2.20752
1.61643
1.47717
1.40381
1.45021
1.74006
2.043
2.15875
2.11735
2.02105
2.06441
1.48713
1.42172
1.38149
1.45774
1.78989
2.06409
2.16922
2.12691
2.02672
1.88094
1.36142
1.37035
1.36816
1.48009
1.84911
2.08112
2.17545
2.13918
2.03416
1.63962
1.26688
1.31067
1.35177
1.515
1.90684
2.10031
2.1752
2.14645
2.03874
1.35932
1.18329
1.23934
1.33126
1.54621
1.94222
2.12989
2.17895
2.14427
2.039
3.10789
2.97919
2.80721
2.62562
2.42022
2.19939
1.97449
1.76864
1.52564
1.25868
3.10714
2.97759
2.80522
2.62267
2.41692
2.19618
1.97183
1.76486
1.52223
1.26078
3.10572
2.97459
2.80276
2.61774
2.41124
2.19061
1.96696
1.75813
1.51635
1.26432
3.1034
2.97
2.79849
2.61011
2.4028
2.18237
1.95976
1.74819
1.50892
1.27005
3.10008
2.96394
2.79186
2.60033
2.39169
2.17147
1.95008
1.73488
1.49977
1.27853
3.09566
2.95624
2.78285
2.58807
2.37787
2.15795
1.93783
1.71814
1.4906
1.29015
3.09016
2.94695
2.77133
2.57327
2.36128
2.14169
1.92285
1.69787
1.48181
1.30539
3.0836
2.93597
2.75728
2.5558
2.34192
2.12282
1.90491
1.67455
1.47516
1.3259
3.07597
2.92322
2.74063
2.53561
2.31969
2.10124
1.88394
1.64821
1.46907
1.35302
3.06727
2.90857
2.7213
2.5125
2.29467
2.07688
1.85941
1.62059
1.46191
1.39113
3.05744
2.8919
2.69911
2.48622
2.26651
2.0498
1.83109
1.5917
1.45327
1.4409
3.04643
2.87301
2.67382
2.4567
2.23525
2.01933
1.79899
1.56451
1.44858
1.49679
3.03416
2.85162
2.6453
2.42336
2.20058
1.98555
1.76249
1.5414
1.45015
1.55874
3.02043
2.82753
2.61299
2.38633
2.16204
1.94754
1.72305
1.52576
1.46227
1.62565
3.00506
2.8002
2.57646
2.34459
2.11997
1.90474
1.68045
1.51623
1.49183
1.69272
2.98778
2.76915
2.53517
2.29816
2.0729
1.85736
1.63948
1.51055
1.54302
1.75781
2.96835
2.73372
2.48834
2.24634
2.02156
1.80361
1.60226
1.51132
1.61949
1.81312
2.94641
2.69308
2.43511
2.18836
1.96444
1.74685
1.5737
1.52167
1.71599
1.85482
2.92114
2.64655
2.37436
2.12394
1.90118
1.68631
1.55221
1.55229
1.8168
1.88621
2.89162
2.59292
2.30624
2.05236
1.83202
1.6287
1.54361
1.60646
1.91272
1.90943
2.89139
2.59161
2.30448
2.05205
1.83444
1.63138
1.54169
1.60451
1.91092
1.90752
2.92116
2.64576
2.37282
2.12321
1.90217
1.688
1.5518
1.55305
1.81724
1.88502
2.94659
2.6926
2.43409
2.1875
1.96446
1.74735
1.5738
1.5232
1.71833
1.85413
2.96862
2.73357
2.4877
2.24561
2.0212
1.80339
1.60259
1.51195
1.6227
1.81331
2.98811
2.76924
2.53491
2.29771
2.07246
1.85672
1.63879
1.5111
1.54607
1.75921
3.0054
2.80044
2.57647
2.3444
2.11964
1.90399
1.6796
1.5164
1.4941
1.69471
3.02073
2.82784
2.61322
2.3864
2.16187
1.94696
1.72191
1.52566
1.46359
1.62769
3.03441
2.85196
2.64566
2.42362
2.20067
1.98519
1.76159
1.54104
1.45059
1.56066
3.04661
2.87334
2.67424
2.45711
2.2355
2.01924
1.79836
1.56396
1.44867
1.49829
3.05754
2.89218
2.69953
2.48669
2.26692
2.04991
1.83077
1.59122
1.4531
1.44203
3.06731
2.90879
2.72167
2.51297
2.29513
2.07715
1.85937
1.62027
1.46172
1.39175
3.07596
2.92337
2.74093
2.53601
2.32013
2.10157
1.88408
1.6481
1.46892
1.35316
3.08354
2.93606
2.7575
2.55612
2.34231
2.12317
1.90513
1.67461
1.47503
1.3258
3.09008
2.94697
2.77146
2.57349
2.36157
2.14198
1.9231
1.69804
1.4817
1.30516
3.09557
2.95621
2.78288
2.58819
2.37806
2.15816
1.93803
1.71834
1.49061
1.28993
3.09999
2.96388
2.79182
2.60035
2.39178
2.17159
1.95022
1.73508
1.49987
1.27836
3.10332
2.96991
2.79838
2.61005
2.40279
2.1824
1.95983
1.74836
1.50911
1.26998
3.10566
2.97448
2.80261
2.6176
2.41115
2.19057
1.96696
1.75824
1.51661
1.26433
3.10708
2.97745
2.80506
2.62249
2.41677
2.19608
1.97178
1.76493
1.5225
1.26087
3.10784
2.97902
2.80704
2.62542
2.42003
2.19925
1.97441
1.76866
1.52592
1.25881
3.41387
3.39037
3.37337
3.35023
3.32499
3.29222
3.25402
3.20502
3.14538
3.07281
3.39124
3.37231
3.3574
3.33643
3.31317
3.28307
3.24777
3.2036
3.14952
3.08499
3.37226
3.35726
3.34414
3.32535
3.30393
3.27635
3.24357
3.20337
3.15393
3.09583
3.35893
3.34579
3.33375
3.31667
3.29678
3.27146
3.24095
3.20406
3.1587
3.10564
3.34994
3.33734
3.3259
3.31002
3.2913
3.26786
3.23935
3.20528
3.16353
3.11465
3.34425
3.33167
3.32049
3.30537
3.2875
3.26556
3.23873
3.20697
3.16838
3.12297
3.34099
3.32821
3.3171
3.30244
3.2852
3.26435
3.23892
3.20913
3.17316
3.13072
3.3396
3.32646
3.31533
3.30096
3.28416
3.26404
3.2399
3.21172
3.17785
3.1379
3.33944
3.32598
3.31476
3.30053
3.28401
3.26455
3.24145
3.21451
3.1824
3.1446
3.34022
3.32644
3.31508
3.3009
3.28464
3.2657
3.24335
3.21742
3.1868
3.15083
3.34184
3.32758
3.31609
3.30194
3.28584
3.26723
3.24549
3.2204
3.191
3.15658
3.34407
3.32924
3.31759
3.30339
3.28737
3.269
3.24775
3.22333
3.19496
3.16181
3.34667
3.33121
3.31939
3.30509
3.28911
3.2709
3.25003
3.22615
3.19861
3.16653
3.34943
3.33331
3.32133
3.3069
3.29092
3.27281
3.25224
3.22877
3.2019
3.17071
3.35216
3.33539
3.32326
3.3087
3.2927
3.27464
3.25427
3.23111
3.20477
3.17429
3.3547
3.3373
3.32505
3.31034
3.29431
3.27625
3.25603
3.23309
3.20717
3.17724
3.35682
3.33886
3.3265
3.31165
3.29557
3.27749
3.25737
3.23457
3.20896
3.17946
3.35839
3.34
3.32755
3.31259
3.29646
3.27835
3.2583
3.23561
3.21022
3.18104
3.35916
3.34055
3.32807
3.31306
3.29693
3.27882
3.25883
3.23622
3.21098
3.18201
3.35938
3.34081
3.32843
3.31345
3.29735
3.27921
3.25924
3.23663
3.21147
3.1826
1.40353
1.41112
1.41966
1.42948
1.44057
1.45357
1.46997
1.48277
2.45597
3.43452
1.40353
1.41112
1.41966
1.42948
1.44058
1.45354
1.47
1.48284
2.42759
3.42652
1.40353
1.41112
1.41966
1.42948
1.44059
1.45351
1.47002
1.48291
2.40037
3.41979
1.40353
1.41112
1.41966
1.42948
1.4406
1.45349
1.47003
1.48296
2.37479
3.41284
1.40353
1.41112
1.41966
1.42947
1.44062
1.45347
1.47003
1.48301
2.35038
3.40626
1.40353
1.41112
1.41966
1.42947
1.44063
1.45345
1.47003
1.48306
2.32683
3.4003
1.40353
1.41112
1.41967
1.42946
1.44064
1.45343
1.47002
1.48309
2.3044
3.39486
1.40353
1.41112
1.41967
1.42946
1.44066
1.45341
1.47002
1.48312
2.28317
3.38991
1.40353
1.41112
1.41967
1.42945
1.44067
1.4534
1.47001
1.48315
2.26327
3.38544
1.40353
1.41112
1.41967
1.42944
1.44068
1.45339
1.47001
1.48317
2.24476
3.38146
1.40353
1.41112
1.41968
1.42944
1.44069
1.45338
1.47001
1.4832
2.22772
3.37794
1.40353
1.41112
1.41968
1.42943
1.4407
1.45337
1.47002
1.48322
2.2122
3.37487
1.40353
1.41112
1.41968
1.42942
1.44071
1.45336
1.47003
1.48324
2.19827
3.37222
1.40353
1.41111
1.41969
1.42942
1.44072
1.45335
1.47006
1.48326
2.18597
3.36997
1.40353
1.41111
1.41969
1.42941
1.44073
1.45333
1.47009
1.48327
2.17536
3.36808
1.40353
1.41111
1.41969
1.4294
1.44074
1.45332
1.47013
1.48329
2.16647
3.36652
1.40353
1.41111
1.4197
1.4294
1.44075
1.45331
1.47018
1.4833
2.15937
3.36519
1.40353
1.41111
1.4197
1.4294
1.44076
1.45331
1.47021
1.4833
2.15395
3.36408
1.40353
1.41111
1.4197
1.4294
1.44076
1.4533
1.47023
1.48331
2.1501
3.36301
1.40353
1.41111
1.4197
1.42939
1.44077
1.45329
1.47028
1.48331
2.14807
3.36238
1.40353
1.41111
1.4197
1.42939
1.44077
1.45329
1.47028
1.48331
2.14807
3.36237
1.40353
1.41111
1.4197
1.4294
1.44076
1.4533
1.47023
1.48331
2.1501
3.363
1.40353
1.41111
1.4197
1.4294
1.44076
1.45331
1.47021
1.4833
2.15395
3.36406
1.40353
1.41111
1.4197
1.4294
1.44075
1.45331
1.47018
1.4833
2.15936
3.36518
1.40353
1.41111
1.41969
1.4294
1.44074
1.45332
1.47013
1.48329
2.16647
3.36651
1.40353
1.41111
1.41969
1.42941
1.44073
1.45333
1.47009
1.48327
2.17535
3.36807
1.40353
1.41111
1.41969
1.42942
1.44072
1.45335
1.47006
1.48326
2.18596
3.36996
1.40353
1.41112
1.41968
1.42942
1.44071
1.45336
1.47003
1.48324
2.19826
3.37222
1.40353
1.41112
1.41968
1.42943
1.4407
1.45337
1.47002
1.48322
2.21219
3.37487
1.40353
1.41112
1.41968
1.42944
1.44069
1.45338
1.47001
1.4832
2.22771
3.37794
1.40353
1.41112
1.41967
1.42944
1.44068
1.45339
1.47001
1.48317
2.24475
3.38146
1.40353
1.41112
1.41967
1.42945
1.44067
1.4534
1.47001
1.48315
2.26326
3.38545
1.40353
1.41112
1.41967
1.42946
1.44066
1.45341
1.47002
1.48312
2.28316
3.38993
1.40353
1.41112
1.41967
1.42946
1.44064
1.45343
1.47002
1.48309
2.30439
3.39488
1.40353
1.41112
1.41966
1.42947
1.44063
1.45345
1.47003
1.48306
2.32682
3.40031
1.40353
1.41112
1.41966
1.42947
1.44062
1.45347
1.47003
1.48301
2.35037
3.40628
1.40353
1.41112
1.41966
1.42948
1.4406
1.45349
1.47003
1.48296
2.37479
3.41287
1.40353
1.41112
1.41966
1.42948
1.44059
1.45351
1.47002
1.48291
2.40037
3.41982
1.40353
1.41112
1.41966
1.42948
1.44058
1.45354
1.47
1.48284
2.4276
3.42655
1.40353
1.41112
1.41966
1.42948
1.44057
1.45357
1.46997
1.48277
2.45598
3.43457
3.35936
3.34078
3.32839
3.3134
3.29729
3.27914
3.25917
3.23656
3.21141
3.18256
3.35913
3.34052
3.32803
3.31301
3.29688
3.27876
3.25877
3.23616
3.21094
3.18199
3.35837
3.33997
3.32751
3.31255
3.29641
3.2783
3.25826
3.23558
3.2102
3.18105
3.35679
3.33883
3.32647
3.31163
3.29554
3.27746
3.25735
3.23457
3.20897
3.17949
3.35468
3.33727
3.32503
3.31033
3.2943
3.27625
3.25605
3.23312
3.20721
3.17731
3.35214
3.33537
3.32325
3.3087
3.29271
3.27467
3.25432
3.23118
3.20486
3.17439
3.34941
3.3333
3.32133
3.30692
3.29096
3.27287
3.25231
3.22886
3.20201
3.17083
3.34666
3.33121
3.31941
3.30513
3.28917
3.27099
3.25014
3.22627
3.19874
3.16665
3.34408
3.32927
3.31764
3.30345
3.28746
3.26911
3.24788
3.22347
3.19509
3.16193
3.34187
3.32763
3.31616
3.30202
3.28594
3.26735
3.24563
3.22053
3.19113
3.15666
3.34026
3.32651
3.31517
3.301
3.28476
3.26583
3.24349
3.21754
3.18689
3.15087
3.3395
3.32606
3.31486
3.30064
3.28414
3.26468
3.24157
3.2146
3.18245
3.14458
3.33967
3.32656
3.31544
3.30108
3.28428
3.26416
3.23999
3.21177
3.17784
3.13781
3.34108
3.32832
3.31722
3.30256
3.28531
3.26443
3.23896
3.20912
3.17307
3.13054
3.34436
3.33179
3.3206
3.30547
3.28758
3.2656
3.23871
3.20688
3.16821
3.12272
3.35006
3.33746
3.326
3.31009
3.29133
3.26784
3.23926
3.2051
3.16327
3.11432
3.35905
3.34589
3.33382
3.3167
3.29676
3.27138
3.24079
3.20381
3.15838
3.10527
3.37238
3.35733
3.34416
3.32532
3.30385
3.2762
3.24334
3.20305
3.15356
3.09544
3.3913
3.37232
3.35737
3.33635
3.31302
3.28285
3.24748
3.20325
3.14914
3.08464
3.41386
3.39032
3.37328
3.35008
3.32478
3.29195
3.25368
3.20465
3.14502
3.07253
)
;

boundaryField
{
    inlet
    {
        type            calculated;
        value           uniform 1.40001;
    }
    outlet
    {
        type            calculated;
        value           nonuniform List<scalar> 
100
(
1.90776
1.88527
1.85438
1.81356
1.75947
1.69497
1.62796
1.56093
1.49854
1.44226
1.39197
1.35336
1.32598
1.30534
1.2901
1.27853
1.27014
1.26449
1.26103
1.25897
2.04373
2.03324
2.02781
2.02569
2.0227
2.01697
2.01179
2.00846
2.00556
2.00202
1.99782
1.99292
1.98697
1.97998
1.97273
1.96328
1.95364
1.94303
1.9323
1.92292
2.03691
2.03833
2.0438
2.03389
1.97768
1.92749
1.87045
1.8109
1.78285
1.76467
1.74446
1.74205
1.7822
1.83333
1.90674
1.97776
1.99733
2.01753
2.04481
2.04845
1.92545
1.9347
1.94509
1.95578
1.96555
1.97508
1.98058
1.98776
1.99494
2.00065
2.00446
2.0067
2.00901
2.01246
2.01673
2.02133
2.02703
2.03445
2.03885
2.03896
1.25883
1.26094
1.26448
1.27021
1.27869
1.29031
1.30556
1.32608
1.35321
1.39134
1.44112
1.49703
1.55899
1.62592
1.69299
1.75808
1.81338
1.85508
1.88648
1.9097
)
;
    }
    triangle
    {
        type            calculated;
        value           nonuniform List<scalar> 
40
(
4.27347
4.11431
4.00097
3.89077
3.78665
3.6904
3.58995
3.47805
3.3113
3.10005
1.09987
1.05727
1.05052
1.05376
1.05806
1.06252
1.06572
1.06798
1.0642
1.06431
1.06286
1.06224
1.06136
1.05655
1.05055
1.04469
1.04072
1.03797
1.0482
1.08522
4.2737
4.11443
4.00104
3.89079
3.78662
3.69036
3.58995
3.4783
3.31204
3.10211
)
;
    }
    top
    {
        type            symmetryPlane;
    }
    bottom
    {
        type            symmetryPlane;
    }
    defaultFaces
    {
        type            empty;
    }
}


// ************************************************************************* //
