/*--------------------------------*- C++ -*----------------------------------*\
  =========                 |
  \\      /  F ield         | OpenFOAM: The Open Source CFD Toolbox
   \\    /   O peration     | Website:  https://openfoam.org
    \\  /    A nd           | Version:  8
     \\/     M anipulation  |
\*---------------------------------------------------------------------------*/
FoamFile
{
    version     2.0;
    format      ascii;
    class       volScalarField;
    location    "2.9";
    object      T;
}
// * * * * * * * * * * * * * * * * * * * * * * * * * * * * * * * * * * * * * //

dimensions      [0 0 0 1 0 0 0];

internalField   nonuniform List<scalar> 
2600
(
1.36016
1.28105
1.18252
1.10625
1.13435
1.2103
1.25833
1.25403
1.23719
1.20467
1.40149
1.34
1.23715
1.14096
1.15938
1.2231
1.26477
1.26065
1.24171
1.20751
1.41353
1.36268
1.28557
1.18677
1.19408
1.243
1.27606
1.27101
1.25228
1.21661
1.41608
1.36454
1.31717
1.23651
1.23925
1.27933
1.29973
1.28438
1.26798
1.23076
1.41555
1.366
1.3383
1.29336
1.29304
1.33381
1.35342
1.32492
1.28859
1.24783
1.41528
1.37128
1.36134
1.36033
1.35925
1.3937
1.41959
1.38842
1.33487
1.28486
1.41531
1.37528
1.38287
1.41894
1.44335
1.47316
1.49062
1.44994
1.39302
1.33309
1.4167
1.37664
1.39189
1.45016
1.50498
1.5297
1.53669
1.5017
1.44322
1.37788
1.41585
1.375
1.38595
1.44756
1.51913
1.55332
1.55786
1.52768
1.47283
1.41202
1.4166
1.37266
1.38151
1.44328
1.52563
1.56203
1.55505
1.52631
1.48811
1.42477
1.41599
1.3731
1.38724
1.45
1.52295
1.55987
1.55723
1.52886
1.49005
1.42108
1.41522
1.37424
1.38923
1.46674
1.53255
1.55543
1.54149
1.50903
1.4813
1.41109
1.41371
1.37251
1.39379
1.47697
1.53387
1.53439
1.5044
1.47252
1.44703
1.39463
1.41017
1.36658
1.38062
1.45252
1.51089
1.48697
1.43892
1.41419
1.39658
1.35588
1.40737
1.36028
1.35698
1.39892
1.43585
1.40933
1.3708
1.34723
1.33884
1.30898
1.40637
1.35442
1.33561
1.33992
1.35549
1.3388
1.31587
1.30205
1.29427
1.2667
1.40662
1.35505
1.31011
1.27849
1.29039
1.27999
1.2845
1.28414
1.26739
1.23133
1.40417
1.3514
1.26976
1.22018
1.23502
1.24147
1.2686
1.26778
1.24963
1.21497
1.39263
1.32538
1.2125
1.16841
1.19478
1.2187
1.25869
1.25563
1.24135
1.21129
1.34995
1.26673
1.15828
1.13333
1.16728
1.20256
1.25218
1.25166
1.23926
1.2076
1.30372
1.19866
1.11565
1.10519
1.14434
1.19063
1.24892
1.25185
1.23867
1.20508
1.2719
1.15769
1.09065
1.0846
1.12342
1.18169
1.24814
1.25247
1.23859
1.20332
1.2696
1.14343
1.07777
1.07307
1.1061
1.17288
1.24867
1.25229
1.23857
1.20304
1.27366
1.14101
1.07622
1.06849
1.09497
1.16281
1.2447
1.25077
1.23809
1.20356
1.28571
1.14804
1.08233
1.0693
1.09015
1.15163
1.23681
1.24947
1.23742
1.20385
1.30278
1.16359
1.09287
1.07657
1.08792
1.1401
1.22716
1.24744
1.23652
1.2031
1.32143
1.18578
1.10741
1.08315
1.0883
1.12806
1.21622
1.24443
1.23496
1.2017
1.33908
1.20985
1.12616
1.08772
1.08757
1.11627
1.20365
1.24028
1.23322
1.20022
1.35509
1.23146
1.14845
1.09666
1.08673
1.10627
1.1885
1.23612
1.2315
1.19833
1.36896
1.25027
1.16793
1.1112
1.08796
1.0984
1.1709
1.23313
1.22962
1.19598
1.37997
1.26766
1.18375
1.12559
1.09185
1.09205
1.15345
1.23058
1.22678
1.19344
1.38836
1.2832
1.19838
1.13605
1.09799
1.08934
1.13883
1.22661
1.22345
1.19115
1.39479
1.29603
1.21265
1.14631
1.10208
1.08794
1.12572
1.21914
1.21978
1.18922
1.39997
1.30637
1.22512
1.15853
1.1054
1.08873
1.11376
1.20631
1.21704
1.18727
1.4043
1.31518
1.23559
1.17072
1.11202
1.08949
1.10337
1.19035
1.21443
1.18553
1.4082
1.32316
1.24527
1.18097
1.12216
1.09111
1.09501
1.17401
1.21167
1.18364
1.41197
1.33069
1.255
1.19022
1.13202
1.0947
1.0888
1.15888
1.20874
1.18209
1.4157
1.33798
1.26451
1.19976
1.1407
1.0984
1.08555
1.14437
1.20516
1.18049
1.41934
1.34504
1.2735
1.20927
1.14989
1.10105
1.08498
1.13014
1.20022
1.17876
1.42282
1.35185
1.28202
1.21831
1.1593
1.10499
1.08532
1.11675
1.1936
1.17697
1.7533
1.72772
1.70786
1.68632
1.66395
1.6421
1.61953
1.59483
1.55904
1.53069
1.7079
1.68146
1.66717
1.65035
1.6337
1.6161
1.59623
1.57164
1.53536
1.4875
1.6842
1.6612
1.64623
1.62978
1.61534
1.59956
1.58055
1.55603
1.52055
1.46993
1.65101
1.63355
1.62171
1.60731
1.59444
1.57936
1.56135
1.53766
1.50398
1.4543
1.61762
1.60829
1.60183
1.59035
1.57919
1.56504
1.54813
1.52511
1.49312
1.44578
1.60052
1.59358
1.58903
1.58016
1.57112
1.55789
1.54167
1.51891
1.48851
1.44351
1.59654
1.58999
1.58551
1.57738
1.56887
1.55581
1.54014
1.51759
1.48824
1.44556
1.59443
1.5895
1.58515
1.57719
1.5686
1.55548
1.5402
1.51794
1.48972
1.44977
1.59158
1.58787
1.58355
1.57593
1.56745
1.55459
1.53987
1.51824
1.49147
1.45436
1.58709
1.58401
1.57968
1.57235
1.56402
1.55168
1.53776
1.51718
1.49204
1.45758
1.58083
1.57765
1.57335
1.5664
1.55839
1.54675
1.53362
1.51434
1.49094
1.45889
1.57396
1.57018
1.56596
1.55942
1.55179
1.54083
1.5284
1.51032
1.48862
1.4592
1.56786
1.56342
1.55915
1.55282
1.54547
1.5351
1.52326
1.50623
1.48608
1.45917
1.56284
1.55793
1.55355
1.54729
1.54012
1.53022
1.51888
1.50285
1.48386
1.45913
1.55868
1.55351
1.54906
1.54285
1.53583
1.52632
1.51542
1.50032
1.48237
1.45943
1.55521
1.54988
1.54541
1.53928
1.53241
1.52326
1.51278
1.49853
1.48157
1.46018
1.55218
1.54677
1.54231
1.53629
1.52959
1.5208
1.51073
1.49728
1.48128
1.46128
1.54945
1.54399
1.53957
1.53369
1.52719
1.51877
1.50911
1.49641
1.48127
1.46252
1.54676
1.54133
1.53699
1.53128
1.52501
1.51698
1.50775
1.49577
1.48142
1.4638
1.54397
1.53869
1.53448
1.52898
1.52297
1.51532
1.5065
1.4952
1.48161
1.46501
1.00101
1.00316
1.0056
1.00835
1.01151
1.01514
1.01955
1.02295
1.4309
1.61862
1.00101
1.00316
1.0056
1.00835
1.01151
1.01514
1.01955
1.02297
1.43008
1.61532
1.00101
1.00316
1.0056
1.00835
1.01151
1.01513
1.01955
1.02298
1.42994
1.61048
1.00101
1.00316
1.0056
1.00835
1.01151
1.01513
1.01955
1.02299
1.42983
1.60764
1.00101
1.00316
1.0056
1.00835
1.01151
1.01513
1.01955
1.02301
1.42995
1.60794
1.00101
1.00316
1.0056
1.00835
1.01151
1.01513
1.01956
1.02303
1.42846
1.60859
1.00101
1.00316
1.0056
1.00835
1.0115
1.01513
1.01956
1.02304
1.4244
1.6076
1.00101
1.00316
1.0056
1.00835
1.0115
1.01513
1.01956
1.02304
1.41836
1.60425
1.00101
1.00316
1.0056
1.00835
1.0115
1.01512
1.01957
1.02304
1.41127
1.59813
1.00101
1.00316
1.0056
1.00835
1.01149
1.01512
1.01958
1.02304
1.40395
1.59025
1.00101
1.00316
1.0056
1.00835
1.01149
1.01513
1.01959
1.02305
1.39687
1.58215
1.00101
1.00316
1.0056
1.00835
1.01149
1.01513
1.01961
1.02306
1.39021
1.5749
1.00101
1.00316
1.00559
1.00836
1.01148
1.01513
1.01962
1.02307
1.38392
1.56883
1.00101
1.00316
1.00559
1.00836
1.01148
1.01513
1.01963
1.02308
1.37787
1.56387
1.00101
1.00317
1.00559
1.00836
1.01148
1.01513
1.01965
1.0231
1.3719
1.55985
1.00101
1.00317
1.00559
1.00836
1.01148
1.01513
1.01966
1.02312
1.36596
1.55653
1.00101
1.00317
1.00559
1.00836
1.01148
1.01513
1.01967
1.02314
1.36
1.55371
1.00101
1.00317
1.00559
1.00836
1.01148
1.01513
1.01968
1.02315
1.35399
1.55125
1.00101
1.00317
1.00559
1.00836
1.01148
1.01513
1.01969
1.02317
1.34793
1.54898
1.00101
1.00317
1.00559
1.00836
1.01148
1.01512
1.0197
1.02319
1.34177
1.54687
1.00101
1.00317
1.00559
1.00836
1.01148
1.01512
1.0197
1.02319
1.34177
1.54688
1.00101
1.00317
1.00559
1.00836
1.01148
1.01513
1.01969
1.02317
1.34793
1.54899
1.00101
1.00317
1.00559
1.00836
1.01148
1.01513
1.01968
1.02315
1.354
1.55126
1.00101
1.00317
1.00559
1.00836
1.01148
1.01513
1.01967
1.02314
1.36001
1.55371
1.00101
1.00317
1.00559
1.00836
1.01148
1.01513
1.01966
1.02312
1.36597
1.55653
1.00101
1.00317
1.00559
1.00836
1.01148
1.01513
1.01965
1.0231
1.3719
1.55985
1.00101
1.00316
1.00559
1.00836
1.01148
1.01513
1.01963
1.02308
1.37787
1.56387
1.00101
1.00316
1.00559
1.00836
1.01148
1.01513
1.01962
1.02307
1.38392
1.56882
1.00101
1.00316
1.0056
1.00835
1.01149
1.01513
1.01961
1.02306
1.39021
1.57489
1.00101
1.00316
1.0056
1.00835
1.01149
1.01513
1.01959
1.02305
1.39687
1.58214
1.00101
1.00316
1.0056
1.00835
1.01149
1.01512
1.01958
1.02304
1.40395
1.59024
1.00101
1.00316
1.0056
1.00835
1.0115
1.01513
1.01957
1.02304
1.41127
1.59811
1.00101
1.00316
1.0056
1.00835
1.0115
1.01513
1.01956
1.02304
1.41837
1.60422
1.00101
1.00316
1.0056
1.00835
1.0115
1.01513
1.01956
1.02304
1.4244
1.60757
1.00101
1.00316
1.0056
1.00835
1.01151
1.01513
1.01956
1.02303
1.42846
1.60856
1.00101
1.00316
1.0056
1.00835
1.01151
1.01513
1.01955
1.02301
1.42994
1.6079
1.00101
1.00316
1.0056
1.00835
1.01151
1.01513
1.01955
1.023
1.42981
1.60759
1.00101
1.00316
1.0056
1.00835
1.01151
1.01513
1.01955
1.02298
1.4299
1.61044
1.00101
1.00316
1.0056
1.00835
1.01151
1.01514
1.01955
1.02297
1.43003
1.61529
1.00101
1.00316
1.0056
1.00835
1.01151
1.01514
1.01955
1.02297
1.43087
1.61861
1.54396
1.53867
1.53446
1.52895
1.52293
1.51526
1.50644
1.49514
1.48155
1.46497
1.54675
1.54131
1.53696
1.53124
1.52497
1.51692
1.50769
1.49571
1.48137
1.46379
1.54944
1.54397
1.53954
1.53365
1.52715
1.51872
1.50906
1.49635
1.48123
1.46253
1.55217
1.54675
1.54228
1.53625
1.52954
1.52075
1.51068
1.49723
1.48126
1.46131
1.5552
1.54986
1.54539
1.53925
1.53236
1.52321
1.51273
1.49849
1.48158
1.46024
1.55867
1.55349
1.54904
1.54282
1.53579
1.52628
1.51538
1.5003
1.4824
1.45952
1.56284
1.55792
1.55353
1.54726
1.54008
1.53019
1.51885
1.50285
1.48391
1.45926
1.56786
1.5634
1.55912
1.55279
1.54544
1.53508
1.52326
1.50626
1.48616
1.45934
1.57396
1.57017
1.56595
1.55941
1.55177
1.54083
1.52842
1.51038
1.48874
1.45942
1.58083
1.57763
1.57334
1.5664
1.55839
1.54677
1.53366
1.51442
1.4911
1.45917
1.58708
1.584
1.57968
1.57236
1.56404
1.55172
1.53781
1.51728
1.49223
1.4579
1.59158
1.58787
1.58355
1.57594
1.56747
1.55462
1.53991
1.51834
1.49167
1.45471
1.59442
1.5895
1.58515
1.5772
1.5686
1.55549
1.54023
1.51803
1.48992
1.45013
1.59651
1.58996
1.58548
1.57735
1.56884
1.5558
1.54015
1.51767
1.48844
1.44597
1.60048
1.59352
1.58897
1.5801
1.57107
1.55785
1.54166
1.51897
1.4887
1.44393
1.61751
1.6082
1.60174
1.59026
1.57911
1.56497
1.5481
1.52516
1.4933
1.44621
1.6509
1.63344
1.6216
1.60721
1.59436
1.57929
1.56131
1.5377
1.50416
1.45471
1.68412
1.66111
1.64614
1.6297
1.61526
1.5995
1.58052
1.55606
1.5207
1.47029
1.70787
1.68142
1.66712
1.6503
1.63365
1.61605
1.5962
1.57166
1.53548
1.4879
1.75331
1.72772
1.70785
1.68629
1.66391
1.64206
1.6195
1.59483
1.5591
1.53117
1.42293
1.35224
1.2825
1.21816
1.15824
1.10453
1.08553
1.11807
1.19449
1.17772
1.41949
1.34552
1.27399
1.20899
1.14847
1.10088
1.08577
1.13196
1.20077
1.17945
1.41587
1.33852
1.26502
1.19922
1.13912
1.09839
1.08662
1.14605
1.20529
1.18106
1.41218
1.33126
1.25547
1.18941
1.13036
1.0946
1.09088
1.16035
1.20862
1.18265
1.40844
1.32374
1.24563
1.17994
1.12023
1.09132
1.09759
1.17599
1.21143
1.18422
1.4046
1.31575
1.2359
1.16943
1.11006
1.08988
1.10668
1.19256
1.21401
1.18612
1.40034
1.30698
1.22538
1.15686
1.10409
1.0892
1.1176
1.20772
1.21645
1.18736
1.39525
1.2967
1.21277
1.1445
1.10095
1.08901
1.12978
1.2191
1.2192
1.18921
1.38889
1.28388
1.19824
1.13456
1.09584
1.09031
1.14312
1.22589
1.22285
1.19131
1.38054
1.2683
1.18354
1.12437
1.08887
1.0934
1.15886
1.23079
1.22618
1.19371
1.36958
1.25066
1.16813
1.11041
1.08423
1.09973
1.17607
1.2347
1.22873
1.19617
1.35574
1.2318
1.14921
1.09561
1.0823
1.10821
1.19157
1.23779
1.23063
1.19845
1.33984
1.2101
1.12762
1.08616
1.08267
1.11891
1.20501
1.2404
1.23267
1.20033
1.32238
1.18623
1.1094
1.07968
1.08244
1.13187
1.21812
1.2431
1.23418
1.20188
1.30409
1.16397
1.097
1.0721
1.0811
1.14538
1.2309
1.24643
1.23501
1.203
1.28759
1.14828
1.08934
1.0633
1.07742
1.15761
1.24099
1.24979
1.23569
1.20366
1.27601
1.14171
1.08827
1.05731
1.079
1.16984
1.24651
1.25081
1.23704
1.20418
1.27238
1.14457
1.09286
1.05818
1.08589
1.18285
1.24838
1.25028
1.23814
1.20479
1.27668
1.16198
1.10672
1.0647
1.09849
1.19436
1.24952
1.24886
1.23815
1.20481
1.30979
1.20891
1.13502
1.08072
1.1151
1.20193
1.25305
1.24921
1.23689
1.20456
1.45819
1.43038
1.39317
1.35266
1.30538
1.25226
1.19522
1.13918
1.06877
0.986451
1.4581
1.43012
1.39284
1.35212
1.30473
1.25159
1.19461
1.13822
1.06784
0.987051
1.458
1.42971
1.39252
1.35128
1.30368
1.25048
1.19354
1.13653
1.06629
0.988054
1.45786
1.42913
1.39198
1.35002
1.30216
1.24887
1.192
1.13408
1.06437
0.989726
1.4577
1.42844
1.39113
1.34843
1.30015
1.24673
1.18992
1.13079
1.06202
0.992244
1.4575
1.42759
1.38996
1.34646
1.29764
1.24404
1.18723
1.12663
1.05969
0.995742
1.45726
1.42658
1.38841
1.34405
1.29458
1.24074
1.18385
1.12154
1.05745
1.00038
1.45693
1.42533
1.38641
1.34111
1.29091
1.23681
1.1797
1.11563
1.05579
1.0068
1.45646
1.42378
1.38389
1.33756
1.28655
1.23219
1.17472
1.10892
1.05424
1.01565
1.45581
1.42184
1.38077
1.33331
1.28147
1.22681
1.16873
1.10189
1.05218
1.02846
1.45494
1.41944
1.37695
1.32825
1.27553
1.22065
1.16164
1.09457
1.04911
1.04489
1.45381
1.41651
1.37236
1.32232
1.26873
1.21353
1.15344
1.08772
1.04715
1.06271
1.45237
1.41294
1.36692
1.31537
1.26097
1.20545
1.14395
1.08205
1.04741
1.08194
1.45054
1.40867
1.3605
1.30743
1.25215
1.19618
1.13351
1.07861
1.05063
1.10141
1.44826
1.40357
1.353
1.29827
1.24233
1.18557
1.12221
1.07643
1.05931
1.11924
1.44543
1.39753
1.34431
1.28789
1.23118
1.17362
1.11165
1.07257
1.07643
1.13468
1.44204
1.39043
1.33428
1.27614
1.21888
1.15981
1.10255
1.07081
1.09901
1.14793
1.43804
1.38216
1.32276
1.26287
1.20505
1.1449
1.09654
1.07323
1.12766
1.15793
1.43332
1.37259
1.30952
1.24801
1.18959
1.12883
1.09263
1.08166
1.15712
1.16607
1.42771
1.36153
1.29464
1.2314
1.17247
1.11404
1.08796
1.09973
1.1807
1.17346
1.42766
1.36126
1.29426
1.23133
1.17308
1.11463
1.08783
1.09934
1.18001
1.17288
1.43332
1.37242
1.30919
1.24784
1.18983
1.12921
1.09271
1.0819
1.15711
1.16571
1.43808
1.38206
1.32254
1.26267
1.20505
1.14502
1.09657
1.07365
1.12834
1.1577
1.44209
1.3904
1.33414
1.27597
1.21878
1.15976
1.1026
1.07104
1.09995
1.14789
1.44549
1.39755
1.34426
1.28779
1.23107
1.17346
1.11145
1.07276
1.07727
1.13493
1.44832
1.40362
1.35301
1.29823
1.24225
1.18538
1.12199
1.07654
1.05993
1.11972
1.4506
1.40874
1.36055
1.30745
1.25211
1.19604
1.13322
1.07861
1.051
1.102
1.45242
1.41301
1.36699
1.31543
1.26099
1.20536
1.14372
1.08195
1.04754
1.08255
1.45385
1.41657
1.37245
1.3224
1.26878
1.2135
1.15328
1.08757
1.04718
1.06321
1.45496
1.4195
1.37704
1.32835
1.27562
1.22067
1.16156
1.09444
1.04906
1.04526
1.45582
1.42188
1.38084
1.33341
1.28157
1.22687
1.16872
1.1018
1.05213
1.02866
1.45646
1.42381
1.38395
1.33765
1.28665
1.23227
1.17475
1.10889
1.05421
1.0157
1.45692
1.42535
1.38645
1.34117
1.29099
1.23689
1.17976
1.11565
1.05575
1.00677
1.45724
1.42659
1.38843
1.34409
1.29464
1.24081
1.18392
1.12158
1.05741
1.00031
1.45748
1.42759
1.38997
1.34648
1.29768
1.24409
1.18728
1.12668
1.05969
0.995677
1.45768
1.42842
1.39112
1.34844
1.30017
1.24676
1.18995
1.13084
1.06205
0.992196
1.45785
1.42911
1.39196
1.35
1.30215
1.24888
1.19202
1.13412
1.06443
0.989705
1.45799
1.42968
1.39249
1.35125
1.30366
1.25047
1.19355
1.13656
1.06636
0.988059
1.45809
1.4301
1.3928
1.35208
1.3047
1.25156
1.1946
1.13824
1.06792
0.987079
1.45818
1.43035
1.39314
1.35262
1.30534
1.25223
1.1952
1.13919
1.06885
0.986492
1.53997
1.53519
1.53127
1.5261
1.52045
1.51328
1.50499
1.49454
1.4819
1.46665
1.5346
1.53069
1.52724
1.52256
1.51736
1.51079
1.50314
1.49368
1.48219
1.46857
1.5298
1.52663
1.52359
1.5194
1.51464
1.50863
1.50155
1.49294
1.48244
1.47016
1.52601
1.52322
1.52044
1.51664
1.51224
1.50675
1.50019
1.49231
1.4827
1.47149
1.52301
1.52035
1.51774
1.51423
1.51012
1.50505
1.49896
1.4917
1.48287
1.47257
1.52062
1.518
1.51548
1.51215
1.50826
1.50354
1.49781
1.49107
1.48292
1.47338
1.51869
1.51605
1.51357
1.51037
1.50663
1.50215
1.49673
1.49042
1.48284
1.47395
1.51711
1.51442
1.51195
1.50882
1.50518
1.50086
1.49574
1.48979
1.48267
1.47432
1.51583
1.51308
1.5106
1.5075
1.50393
1.49976
1.49487
1.48918
1.48243
1.47453
1.5148
1.51201
1.5095
1.50642
1.50291
1.49885
1.4941
1.48861
1.48216
1.47463
1.51399
1.51112
1.5086
1.50553
1.50205
1.49805
1.49342
1.48809
1.48188
1.47465
1.51338
1.51041
1.50785
1.50477
1.5013
1.49735
1.4928
1.4876
1.48158
1.4746
1.51294
1.50984
1.50725
1.50414
1.50067
1.49674
1.49226
1.48715
1.48128
1.4745
1.51263
1.50941
1.50678
1.50364
1.50016
1.49624
1.49179
1.48675
1.481
1.47438
1.51242
1.50909
1.50642
1.50324
1.49975
1.49582
1.49141
1.48642
1.48076
1.47426
1.51231
1.50886
1.50615
1.50295
1.49944
1.49551
1.49112
1.48616
1.48058
1.47418
1.51226
1.50871
1.50599
1.50275
1.49924
1.49531
1.49093
1.486
1.48047
1.47415
1.5123
1.50868
1.50594
1.50269
1.49916
1.49522
1.49085
1.48593
1.48044
1.47416
1.51237
1.5087
1.50595
1.50267
1.49914
1.49518
1.49082
1.4859
1.48043
1.47418
1.51242
1.50875
1.506
1.50272
1.49918
1.49522
1.49085
1.48593
1.48046
1.47423
1.00101
1.00317
1.00559
1.00836
1.01149
1.01512
1.01971
1.02321
1.334
1.5443
1.00101
1.00317
1.00559
1.00836
1.01149
1.01511
1.01971
1.02323
1.32478
1.5415
1.00101
1.00317
1.00559
1.00836
1.01149
1.0151
1.01972
1.02325
1.31583
1.53886
1.00101
1.00317
1.00559
1.00836
1.0115
1.0151
1.01972
1.02326
1.30744
1.53618
1.00101
1.00317
1.00559
1.00836
1.0115
1.01509
1.01972
1.02328
1.29958
1.53357
1.00101
1.00317
1.00559
1.00836
1.0115
1.01509
1.01972
1.02329
1.29214
1.5311
1.00101
1.00317
1.00559
1.00836
1.01151
1.01508
1.01972
1.0233
1.28516
1.52876
1.00101
1.00317
1.00559
1.00836
1.01151
1.01508
1.01972
1.02331
1.27861
1.52655
1.00101
1.00317
1.00559
1.00836
1.01151
1.01507
1.01972
1.02331
1.27251
1.52448
1.00101
1.00317
1.00559
1.00835
1.01152
1.01507
1.01972
1.02332
1.26686
1.52257
1.00101
1.00317
1.00559
1.00835
1.01152
1.01507
1.01972
1.02333
1.26167
1.52083
1.00101
1.00317
1.0056
1.00835
1.01152
1.01506
1.01972
1.02333
1.25695
1.51927
1.00101
1.00317
1.0056
1.00835
1.01153
1.01506
1.01972
1.02334
1.25272
1.51789
1.00101
1.00316
1.0056
1.00835
1.01153
1.01506
1.01973
1.02334
1.24898
1.51668
1.00101
1.00316
1.0056
1.00834
1.01153
1.01505
1.01974
1.02335
1.24576
1.51565
1.00101
1.00316
1.0056
1.00834
1.01154
1.01505
1.01975
1.02335
1.24305
1.5148
1.00101
1.00316
1.0056
1.00834
1.01154
1.01505
1.01976
1.02335
1.24088
1.51413
1.00101
1.00316
1.0056
1.00834
1.01154
1.01505
1.01977
1.02336
1.23923
1.51369
1.00101
1.00316
1.0056
1.00834
1.01154
1.01505
1.01978
1.02336
1.2382
1.51343
1.00101
1.00316
1.0056
1.00834
1.01154
1.01504
1.01979
1.02336
1.23778
1.51334
1.00101
1.00316
1.0056
1.00834
1.01154
1.01504
1.01979
1.02336
1.23778
1.51333
1.00101
1.00316
1.0056
1.00834
1.01154
1.01505
1.01978
1.02336
1.2382
1.51343
1.00101
1.00316
1.0056
1.00834
1.01154
1.01505
1.01977
1.02336
1.23923
1.51369
1.00101
1.00316
1.0056
1.00834
1.01154
1.01505
1.01976
1.02335
1.24088
1.51413
1.00101
1.00316
1.0056
1.00834
1.01154
1.01505
1.01975
1.02335
1.24305
1.5148
1.00101
1.00316
1.0056
1.00834
1.01153
1.01505
1.01974
1.02335
1.24575
1.51565
1.00101
1.00316
1.0056
1.00835
1.01153
1.01506
1.01973
1.02334
1.24898
1.51668
1.00101
1.00317
1.0056
1.00835
1.01153
1.01506
1.01972
1.02334
1.25271
1.51789
1.00101
1.00317
1.0056
1.00835
1.01152
1.01506
1.01972
1.02333
1.25695
1.51927
1.00101
1.00317
1.00559
1.00835
1.01152
1.01507
1.01972
1.02333
1.26167
1.52083
1.00101
1.00317
1.00559
1.00835
1.01152
1.01507
1.01972
1.02332
1.26686
1.52257
1.00101
1.00317
1.00559
1.00836
1.01151
1.01507
1.01972
1.02331
1.2725
1.52448
1.00101
1.00317
1.00559
1.00836
1.01151
1.01508
1.01972
1.02331
1.27861
1.52655
1.00101
1.00317
1.00559
1.00836
1.01151
1.01508
1.01972
1.0233
1.28515
1.52876
1.00101
1.00317
1.00559
1.00836
1.0115
1.01509
1.01972
1.02329
1.29214
1.53111
1.00101
1.00317
1.00559
1.00836
1.0115
1.01509
1.01972
1.02328
1.29958
1.53358
1.00101
1.00317
1.00559
1.00836
1.0115
1.0151
1.01972
1.02326
1.30744
1.53618
1.00101
1.00317
1.00559
1.00836
1.01149
1.0151
1.01972
1.02325
1.31583
1.53887
1.00101
1.00317
1.00559
1.00836
1.01149
1.01511
1.01971
1.02323
1.32478
1.54151
1.00101
1.00317
1.00559
1.00836
1.01149
1.01512
1.01971
1.02321
1.33401
1.5443
1.51242
1.50874
1.50599
1.50271
1.49917
1.4952
1.49084
1.48592
1.48045
1.47423
1.51237
1.50869
1.50594
1.50266
1.49913
1.49517
1.49081
1.48589
1.48042
1.47418
1.5123
1.50867
1.50593
1.50268
1.49915
1.49521
1.49084
1.48593
1.48043
1.47416
1.51226
1.50871
1.50598
1.50275
1.49924
1.4953
1.49093
1.486
1.48047
1.47415
1.5123
1.50885
1.50615
1.50294
1.49944
1.49551
1.49113
1.48617
1.48059
1.47419
1.51242
1.50908
1.50642
1.50324
1.49975
1.49583
1.49142
1.48643
1.48077
1.47428
1.51262
1.50941
1.50678
1.50364
1.50017
1.49625
1.49181
1.48677
1.48102
1.4744
1.51293
1.50985
1.50725
1.50415
1.50068
1.49676
1.49228
1.48717
1.48131
1.47452
1.51338
1.51041
1.50786
1.50478
1.50132
1.49737
1.49282
1.48762
1.4816
1.47462
1.51399
1.51113
1.50861
1.50554
1.50207
1.49808
1.49344
1.48811
1.4819
1.47466
1.51481
1.51202
1.50952
1.50644
1.50293
1.49888
1.49413
1.48863
1.48218
1.47464
1.51584
1.5131
1.51062
1.50752
1.50395
1.49979
1.49489
1.48919
1.48244
1.47453
1.51712
1.51444
1.51197
1.50884
1.5052
1.50088
1.49576
1.4898
1.48267
1.4743
1.5187
1.51607
1.51359
1.51039
1.50665
1.50216
1.49674
1.49042
1.48283
1.47392
1.52064
1.51802
1.5155
1.51217
1.50828
1.50355
1.49781
1.49105
1.48288
1.47333
1.52303
1.52037
1.51776
1.51424
1.51012
1.50505
1.49894
1.49167
1.48282
1.47251
1.52603
1.52323
1.52045
1.51665
1.51224
1.50673
1.50016
1.49227
1.48264
1.47142
1.52982
1.52665
1.5236
1.5194
1.51462
1.5086
1.50151
1.49288
1.48237
1.47009
1.53461
1.53069
1.52723
1.52255
1.51734
1.51075
1.50308
1.49361
1.48211
1.4685
1.53997
1.53518
1.53125
1.52607
1.52041
1.51323
1.50493
1.49447
1.48183
1.46659
)
;

boundaryField
{
    inlet
    {
        type            fixedValue;
        value           uniform 1;
    }
    outlet
    {
        type            inletOutlet;
        inletValue      uniform 1;
        value           nonuniform List<scalar> 
100
(
1.17273
1.16555
1.15754
1.14773
1.13477
1.11954
1.10182
1.08237
1.06303
1.04509
1.0285
1.01555
1.00663
1.00018
0.995547
0.992069
0.98958
0.987936
0.986956
0.98637
1.20468
1.20305
1.2029
1.20359
1.20369
1.20286
1.20151
1.20009
1.19819
1.1958
1.19325
1.19097
1.18907
1.18713
1.18537
1.18347
1.18193
1.18033
1.1786
1.17682
1.2046
1.20723
1.21601
1.23075
1.24838
1.28464
1.33233
1.37773
1.4123
1.42452
1.42102
1.41086
1.39424
1.35616
1.30927
1.26591
1.23069
1.21533
1.21144
1.20739
1.17756
1.1793
1.1809
1.18248
1.18408
1.18597
1.18721
1.18906
1.19114
1.19352
1.196
1.19832
1.20021
1.20173
1.20284
1.20349
1.20399
1.20461
1.20474
1.20458
0.98633
0.986929
0.987931
0.989601
0.992118
0.995613
1.00025
1.00666
1.0155
1.0283
1.04473
1.06254
1.08176
1.10123
1.11906
1.1345
1.14776
1.15776
1.1659
1.17329
)
;
    }
    triangle
    {
        type            zeroGradient;
    }
    top
    {
        type            symmetryPlane;
    }
    bottom
    {
        type            symmetryPlane;
    }
    defaultFaces
    {
        type            empty;
    }
}


// ************************************************************************* //
