/*--------------------------------*- C++ -*----------------------------------*\
  =========                 |
  \\      /  F ield         | OpenFOAM: The Open Source CFD Toolbox
   \\    /   O peration     | Website:  https://openfoam.org
    \\  /    A nd           | Version:  8
     \\/     M anipulation  |
\*---------------------------------------------------------------------------*/
FoamFile
{
    version     2.0;
    format      ascii;
    class       volVectorField;
    location    "2.9";
    object      U;
}
// * * * * * * * * * * * * * * * * * * * * * * * * * * * * * * * * * * * * * //

dimensions      [0 1 -1 0 0 0 0];

internalField   nonuniform List<vector> 
2600
(
(0.717874 0.0680688 0)
(1.2909 0.16588 0)
(1.60095 0.293033 0)
(1.67927 0.395372 0)
(1.62799 0.322548 0)
(1.4417 0.149772 0)
(1.41091 0.0722245 0)
(1.39756 0.0529561 0)
(1.41029 0.0417209 0)
(1.4443 0.00949985 0)
(0.243046 -0.13508 0)
(0.888643 0.120203 0)
(1.42984 0.268199 0)
(1.63513 0.375192 0)
(1.61886 0.297497 0)
(1.44053 0.13773 0)
(1.41368 0.0661183 0)
(1.39724 0.0470868 0)
(1.40897 0.0381168 0)
(1.44126 0.00958458 0)
(0.0275641 -0.126274 0)
(0.483456 0.043351 0)
(1.1417 0.208344 0)
(1.53625 0.324455 0)
(1.59696 0.266799 0)
(1.43305 0.132586 0)
(1.4118 0.0652727 0)
(1.39741 0.0456604 0)
(1.40727 0.0314433 0)
(1.43653 0.00424724 0)
(-0.0577184 -0.147723 0)
(0.189232 -0.0123695 0)
(0.787081 0.144924 0)
(1.35134 0.279986 0)
(1.5385 0.245539 0)
(1.40515 0.122663 0)
(1.3854 0.0676015 0)
(1.38968 0.0596986 0)
(1.39975 0.0276536 0)
(1.42304 -0.00155304 0)
(-0.11023 -0.131926 0)
(-0.00394469 -0.0471808 0)
(0.436574 0.056061 0)
(1.07841 0.204646 0)
(1.42922 0.210043 0)
(1.33019 0.0960578 0)
(1.30185 0.041478 0)
(1.34498 0.0602291 0)
(1.37573 0.0445772 0)
(1.39018 0.0158475 0)
(-0.153355 -0.134189 0)
(-0.150007 -0.0538149 0)
(0.10647 0.00397365 0)
(0.715019 0.133573 0)
(1.22651 0.203417 0)
(1.16212 0.10978 0)
(1.12718 0.0291588 0)
(1.23227 0.0257091 0)
(1.31211 0.0426882 0)
(1.32484 0.0246499 0)
(-0.189858 -0.121719 0)
(-0.272787 -0.0594326 0)
(-0.181615 -0.0274005 0)
(0.2992 0.0487593 0)
(0.891779 0.146519 0)
(0.876048 0.119824 0)
(0.863361 0.0613599 0)
(1.03504 0.0400536 0)
(1.19473 0.0257401 0)
(1.22791 0.00886159 0)
(-0.21882 -0.0998192 0)
(-0.376059 -0.0554442 0)
(-0.399526 -0.0284247 0)
(-0.103355 0.0321049 0)
(0.447897 0.142455 0)
(0.524829 0.0860465 0)
(0.591146 0.015733 0)
(0.816595 0.0195426 0)
(1.03836 0.0365082 0)
(1.12319 0.00694744 0)
(-0.231347 -0.0619933 0)
(-0.448267 -0.0481979 0)
(-0.521742 -0.042625 0)
(-0.379629 -0.0355375 0)
(0.0447242 0.0694101 0)
(0.241468 0.0901442 0)
(0.426012 0.034865 0)
(0.67109 0.0127442 0)
(0.905166 0.0111903 0)
(1.04849 0.0128098 0)
(-0.246803 -0.0186355 0)
(-0.481759 -0.021872 0)
(-0.569006 -0.0407152 0)
(-0.502649 -0.0451694 0)
(-0.170146 0.0750218 0)
(0.121714 0.0740229 0)
(0.384704 -0.00800348 0)
(0.628406 -0.0287415 0)
(0.845263 0.0184123 0)
(1.01601 0.0136713 0)
(-0.244582 0.0295472 0)
(-0.483215 0.00949035 0)
(-0.574029 -0.0275632 0)
(-0.518537 -0.053164 0)
(-0.214013 0.0459607 0)
(0.115749 0.0361897 0)
(0.416769 -0.0482246 0)
(0.640597 -0.0580924 0)
(0.838229 -0.00111632 0)
(1.01226 0.0059661 0)
(-0.233589 0.0716988 0)
(-0.453193 0.035061 0)
(-0.533668 -0.0192921 0)
(-0.452711 -0.0681127 0)
(-0.164195 0.00461803 0)
(0.214637 0.00386401 0)
(0.573165 -0.039831 0)
(0.726102 -0.0440607 0)
(0.869575 -0.0266949 0)
(1.03074 0.00837742 0)
(-0.215794 0.105797 0)
(-0.384347 0.037379 0)
(-0.408661 -0.027229 0)
(-0.233883 -0.0785828 0)
(0.0583663 -0.00911956 0)
(0.488144 -0.0133766 0)
(0.847178 -0.0925636 0)
(0.900645 -0.0567426 0)
(0.966587 -0.0147111 0)
(1.09085 -0.0048831 0)
(-0.18727 0.126326 0)
(-0.27773 0.0481457 0)
(-0.181139 -0.0333798 0)
(0.14358 -0.117503 0)
(0.452297 -0.0812588 0)
(0.87046 -0.0781025 0)
(1.124 -0.0718125 0)
(1.09874 -0.0406126 0)
(1.1118 -0.0357613 0)
(1.19224 -0.0113256 0)
(-0.151502 0.137928 0)
(-0.148335 0.039387 0)
(0.124425 -0.0470052 0)
(0.598271 -0.115756 0)
(0.892886 -0.0920136 0)
(1.20298 -0.108546 0)
(1.29986 -0.0932521 0)
(1.24817 -0.0689672 0)
(1.24782 -0.0237979 0)
(1.29733 0.00848776 0)
(-0.10879 0.140534 0)
(0.00660077 0.0441145 0)
(0.466411 -0.108456 0)
(1.00168 -0.204145 0)
(1.22889 -0.136805 0)
(1.40755 -0.114389 0)
(1.37735 -0.0951648 0)
(1.32808 -0.0624484 0)
(1.33654 -0.0270632 0)
(1.37703 0.0067394 0)
(-0.0564121 0.154501 0)
(0.209239 -0.00310833 0)
(0.824351 -0.176747 0)
(1.29851 -0.236544 0)
(1.42806 -0.141234 0)
(1.50343 -0.144125 0)
(1.39908 -0.098024 0)
(1.35632 -0.04192 0)
(1.37704 -0.0160037 0)
(1.42078 -0.0105931 0)
(0.02931 0.134888 0)
(0.516675 -0.0526309 0)
(1.16792 -0.240138 0)
(1.49409 -0.291831 0)
(1.52912 -0.182205 0)
(1.54097 -0.153589 0)
(1.40133 -0.0943462 0)
(1.36479 -0.0515548 0)
(1.39024 -0.0269501 0)
(1.43823 -0.00733159 0)
(0.245735 0.134361 0)
(0.923669 -0.138876 0)
(1.43834 -0.301871 0)
(1.60278 -0.342573 0)
(1.57718 -0.211744 0)
(1.54891 -0.158164 0)
(1.40011 -0.0981841 0)
(1.36663 -0.0613133 0)
(1.39581 -0.029059 0)
(1.44356 0.00306406 0)
(0.724521 -0.0610468 0)
(1.32367 -0.174835 0)
(1.59345 -0.329878 0)
(1.65158 -0.35882 0)
(1.5942 -0.244531 0)
(1.54605 -0.168626 0)
(1.39887 -0.100357 0)
(1.36912 -0.0638693 0)
(1.39892 -0.0273375 0)
(1.44639 0.00257286 0)
(1.30889 0.0128096 0)
(1.5817 -0.207938 0)
(1.65973 -0.343783 0)
(1.66804 -0.378419 0)
(1.60513 -0.275859 0)
(1.53829 -0.17617 0)
(1.40169 -0.102012 0)
(1.3737 -0.0605239 0)
(1.40282 -0.0260138 0)
(1.4494 0.000395198 0)
(1.45119 0.126939 0)
(1.68319 -0.190765 0)
(1.68386 -0.330155 0)
(1.67834 -0.38227 0)
(1.62123 -0.306932 0)
(1.53877 -0.198862 0)
(1.40925 -0.10825 0)
(1.3817 -0.0590759 0)
(1.40984 -0.0255156 0)
(1.45371 -0.00287519 0)
(1.45315 0.161736 0)
(1.69259 -0.175761 0)
(1.68336 -0.334593 0)
(1.67648 -0.389015 0)
(1.63192 -0.333729 0)
(1.54381 -0.21845 0)
(1.42245 -0.114547 0)
(1.39195 -0.0631798 0)
(1.41904 -0.0268195 0)
(1.45778 -0.0025983 0)
(1.41149 0.189343 0)
(1.65452 -0.133348 0)
(1.68568 -0.314143 0)
(1.67146 -0.387678 0)
(1.6384 -0.355797 0)
(1.55753 -0.240654 0)
(1.44021 -0.121392 0)
(1.4042 -0.0685223 0)
(1.4277 -0.0281603 0)
(1.46169 -0.000105853 0)
(1.37182 0.199859 0)
(1.61303 -0.105886 0)
(1.67728 -0.312194 0)
(1.66387 -0.387574 0)
(1.64607 -0.380638 0)
(1.57087 -0.260732 0)
(1.46262 -0.131586 0)
(1.41349 -0.0704029 0)
(1.43384 -0.028521 0)
(1.46515 0.00245989 0)
(1.33732 0.204306 0)
(1.57287 -0.0670571 0)
(1.66048 -0.282408 0)
(1.65948 -0.389997 0)
(1.64918 -0.399804 0)
(1.58968 -0.296079 0)
(1.48714 -0.145651 0)
(1.41903 -0.0717229 0)
(1.43751 -0.028039 0)
(1.46774 0.002347 0)
(1.30946 0.205429 0)
(1.54021 -0.0415564 0)
(1.64388 -0.254321 0)
(1.65618 -0.38283 0)
(1.6542 -0.407629 0)
(1.60724 -0.327337 0)
(1.50963 -0.16307 0)
(1.41929 -0.073336 0)
(1.43871 -0.0277214 0)
(1.46793 0.00246384 0)
(1.28707 0.204585 0)
(1.51078 -0.0203386 0)
(1.6175 -0.219735 0)
(1.65067 -0.362547 0)
(1.65572 -0.409229 0)
(1.62432 -0.355308 0)
(1.52983 -0.18292 0)
(1.4134 -0.0764724 0)
(1.43722 -0.0280953 0)
(1.46671 0.00379006 0)
(1.26756 0.2033 0)
(1.48541 -0.00282904 0)
(1.60097 -0.205621 0)
(1.64496 -0.344574 0)
(1.65437 -0.407129 0)
(1.63448 -0.373514 0)
(1.54631 -0.204396 0)
(1.40886 -0.0821466 0)
(1.4354 -0.0294973 0)
(1.46508 0.00546297 0)
(1.25065 0.199396 0)
(1.45972 0.0157557 0)
(1.58263 -0.180655 0)
(1.63571 -0.332751 0)
(1.65432 -0.40375 0)
(1.64044 -0.388804 0)
(1.56008 -0.228619 0)
(1.41153 -0.0873637 0)
(1.43473 -0.0306386 0)
(1.46453 0.00662998 0)
(1.23513 0.194905 0)
(1.43685 0.0290076 0)
(1.56376 -0.154256 0)
(1.62632 -0.319965 0)
(1.65345 -0.402917 0)
(1.64192 -0.399257 0)
(1.57218 -0.254073 0)
(1.42257 -0.0935655 0)
(1.43595 -0.0327889 0)
(1.46577 0.00744834 0)
(1.22135 0.190688 0)
(1.41564 0.0398516 0)
(1.54198 -0.129102 0)
(1.61564 -0.292993 0)
(1.65079 -0.403445 0)
(1.64211 -0.403861 0)
(1.58674 -0.282011 0)
(1.43817 -0.100764 0)
(1.43864 -0.0344174 0)
(1.46909 0.00856205 0)
(1.20928 0.1871 0)
(1.39636 0.0492588 0)
(1.52422 -0.114358 0)
(1.60085 -0.265658 0)
(1.64698 -0.392716 0)
(1.63935 -0.406939 0)
(1.60135 -0.30891 0)
(1.45725 -0.112466 0)
(1.44354 -0.0363322 0)
(1.47404 0.00987599 0)
(1.19852 0.182981 0)
(1.37795 0.0576439 0)
(1.50628 -0.0992737 0)
(1.58644 -0.246145 0)
(1.63867 -0.372365 0)
(1.63944 -0.407888 0)
(1.61319 -0.331818 0)
(1.48032 -0.129082 0)
(1.45181 -0.0384952 0)
(1.47976 0.0115337 0)
(1.18883 0.17856 0)
(1.36073 0.0635319 0)
(1.48911 -0.0849209 0)
(1.57307 -0.23101 0)
(1.62665 -0.352136 0)
(1.64033 -0.404931 0)
(1.62305 -0.349781 0)
(1.5009 -0.147089 0)
(1.46118 -0.0411971 0)
(1.48626 0.013331 0)
(1.17978 0.173764 0)
(1.34462 0.0675517 0)
(1.4713 -0.0702844 0)
(1.55942 -0.212879 0)
(1.61631 -0.337977 0)
(1.63946 -0.400263 0)
(1.63026 -0.361823 0)
(1.52441 -0.168291 0)
(1.47012 -0.0450947 0)
(1.49146 0.0152123 0)
(1.17125 0.168843 0)
(1.32946 0.0707823 0)
(1.45519 -0.0593327 0)
(1.54462 -0.193844 0)
(1.6063 -0.32199 0)
(1.63819 -0.396525 0)
(1.63577 -0.370375 0)
(1.54635 -0.190232 0)
(1.47758 -0.0491872 0)
(1.49442 0.0160298 0)
(1.16318 0.163933 0)
(1.3151 0.0737396 0)
(1.43923 -0.0487244 0)
(1.52982 -0.177675 0)
(1.59477 -0.300989 0)
(1.63665 -0.391715 0)
(1.6404 -0.375792 0)
(1.56621 -0.214323 0)
(1.48399 -0.0540048 0)
(1.49627 0.0177352 0)
(1.15527 0.159074 0)
(1.30148 0.0762086 0)
(1.42411 -0.0395027 0)
(1.51589 -0.164255 0)
(1.5828 -0.281799 0)
(1.63552 -0.383273 0)
(1.64128 -0.37598 0)
(1.58299 -0.237223 0)
(1.49124 -0.0607644 0)
(1.4999 0.0181336 0)
(1.14869 0.154507 0)
(1.28874 0.0780316 0)
(1.40892 -0.0306049 0)
(1.50225 -0.151112 0)
(1.57189 -0.265678 0)
(1.63013 -0.367942 0)
(1.64128 -0.376607 0)
(1.5978 -0.259209 0)
(1.50245 -0.0684183 0)
(1.50662 0.0190043 0)
(0.369948 0.0904624 0)
(0.458356 0.139 0)
(0.509269 0.209936 0)
(0.56383 0.261388 0)
(0.609371 0.303603 0)
(0.653726 0.336557 0)
(0.700457 0.366858 0)
(0.758257 0.396207 0)
(0.837033 0.435223 0)
(0.980648 0.473651 0)
(0.404625 0.12991 0)
(0.470952 0.159025 0)
(0.504897 0.214402 0)
(0.5544 0.260491 0)
(0.599142 0.301834 0)
(0.646484 0.334468 0)
(0.6968 0.365398 0)
(0.757863 0.395786 0)
(0.840444 0.435905 0)
(0.979317 0.46339 0)
(0.462881 0.115924 0)
(0.512712 0.140248 0)
(0.530402 0.186455 0)
(0.569224 0.229005 0)
(0.607644 0.272176 0)
(0.655654 0.307916 0)
(0.708205 0.342968 0)
(0.771894 0.374743 0)
(0.858057 0.414792 0)
(1.00287 0.428847 0)
(0.519407 0.121655 0)
(0.555117 0.15005 0)
(0.565384 0.191135 0)
(0.599537 0.222131 0)
(0.629394 0.256756 0)
(0.669885 0.287402 0)
(0.715858 0.32102 0)
(0.776916 0.351356 0)
(0.863657 0.388462 0)
(1.00865 0.394303 0)
(0.567857 0.127323 0)
(0.594238 0.150067 0)
(0.60221 0.185337 0)
(0.633222 0.214391 0)
(0.657393 0.248342 0)
(0.695029 0.276613 0)
(0.738153 0.307787 0)
(0.798214 0.334168 0)
(0.884568 0.367662 0)
(1.02455 0.366626 0)
(0.615361 0.127914 0)
(0.634296 0.149769 0)
(0.639319 0.182894 0)
(0.665948 0.209933 0)
(0.685997 0.241293 0)
(0.721615 0.266762 0)
(0.762251 0.296193 0)
(0.820297 0.318869 0)
(0.9025 0.347266 0)
(1.03478 0.344144 0)
(0.662264 0.143225 0)
(0.675325 0.161785 0)
(0.678095 0.188307 0)
(0.699991 0.210199 0)
(0.716869 0.237612 0)
(0.750172 0.259505 0)
(0.78798 0.286221 0)
(0.843538 0.305469 0)
(0.920881 0.329299 0)
(1.04408 0.324748 0)
(0.704345 0.154358 0)
(0.712588 0.170037 0)
(0.713942 0.191952 0)
(0.732138 0.210634 0)
(0.747245 0.234857 0)
(0.778534 0.253585 0)
(0.814069 0.277833 0)
(0.867325 0.294104 0)
(0.93992 0.312938 0)
(1.05111 0.306994 0)
(0.736653 0.166241 0)
(0.741725 0.178481 0)
(0.743848 0.195755 0)
(0.759989 0.210496 0)
(0.774434 0.231097 0)
(0.803785 0.246739 0)
(0.837078 0.268145 0)
(0.887648 0.281937 0)
(0.954976 0.297166 0)
(1.05487 0.291422 0)
(0.759176 0.173162 0)
(0.764344 0.182463 0)
(0.768316 0.196251 0)
(0.783576 0.208554 0)
(0.798049 0.226602 0)
(0.8258 0.239971 0)
(0.857348 0.259011 0)
(0.904875 0.270246 0)
(0.966782 0.281998 0)
(1.0576 0.276735 0)
(0.776327 0.175637 0)
(0.783511 0.182934 0)
(0.789051 0.194731 0)
(0.803893 0.205525 0)
(0.818579 0.221471 0)
(0.844909 0.23302 0)
(0.874921 0.249725 0)
(0.91991 0.259622 0)
(0.976541 0.268106 0)
(1.05792 0.262846 0)
(0.792171 0.175582 0)
(0.801394 0.18164 0)
(0.807642 0.192047 0)
(0.822023 0.201568 0)
(0.836734 0.215668 0)
(0.861708 0.22582 0)
(0.890367 0.240591 0)
(0.932558 0.249034 0)
(0.985559 0.256605 0)
(1.05926 0.25091 0)
(0.806972 0.174692 0)
(0.817698 0.179727 0)
(0.82438 0.188984 0)
(0.838402 0.197318 0)
(0.85301 0.209737 0)
(0.876654 0.218626 0)
(0.903976 0.231566 0)
(0.943633 0.239045 0)
(0.992942 0.244828 0)
(1.05994 0.239755 0)
(0.81987 0.172055 0)
(0.831613 0.176374 0)
(0.838741 0.184851 0)
(0.852583 0.192268 0)
(0.867097 0.203341 0)
(0.889583 0.211243 0)
(0.915656 0.222582 0)
(0.952882 0.229244 0)
(0.998583 0.233713 0)
(1.05968 0.229395 0)
(0.830918 0.168406 0)
(0.843272 0.172172 0)
(0.850823 0.180036 0)
(0.864549 0.186705 0)
(0.878982 0.196666 0)
(0.900488 0.203788 0)
(0.92545 0.213755 0)
(0.96041 0.219761 0)
(1.00292 0.223302 0)
(1.05909 0.219736 0)
(0.840287 0.163653 0)
(0.852976 0.166992 0)
(0.860837 0.174343 0)
(0.874387 0.180441 0)
(0.888658 0.189493 0)
(0.909263 0.196034 0)
(0.933172 0.204871 0)
(0.966037 0.210387 0)
(1.00573 0.213328 0)
(1.05762 0.210469 0)
(0.848913 0.158511 0)
(0.861789 0.161539 0)
(0.869858 0.168452 0)
(0.883159 0.17411 0)
(0.897178 0.182381 0)
(0.916897 0.188465 0)
(0.939782 0.196333 0)
(0.970719 0.201471 0)
(1.00788 0.203988 0)
(1.05593 0.201767 0)
(0.856929 0.152786 0)
(0.869863 0.155608 0)
(0.878015 0.162146 0)
(0.890976 0.167488 0)
(0.904614 0.175096 0)
(0.923385 0.180825 0)
(0.945172 0.187875 0)
(0.974217 0.192728 0)
(1.00908 0.195033 0)
(1.05385 0.193458 0)
(0.865178 0.146869 0)
(0.878013 0.149602 0)
(0.886144 0.155846 0)
(0.898711 0.160996 0)
(0.911953 0.168067 0)
(0.929862 0.173557 0)
(0.950664 0.179934 0)
(0.977984 0.184598 0)
(1.01066 0.186635 0)
(1.05217 0.185599 0)
(0.873889 0.14083 0)
(0.886252 0.143613 0)
(0.894067 0.14957 0)
(0.905968 0.154503 0)
(0.918563 0.160994 0)
(0.935483 0.166209 0)
(0.955335 0.172013 0)
(0.98118 0.176627 0)
(1.01213 0.178641 0)
(1.05111 0.17827 0)
(2.01328 -2.72882e-07 0)
(2.0026 8.84771e-07 0)
(1.99075 -2.47053e-06 0)
(1.97766 4.35149e-06 0)
(1.96299 -7.9194e-06 0)
(1.94671 1.07422e-05 0)
(1.92687 1.18453e-05 0)
(1.91413 -3.92122e-05 0)
(0.997043 0.00819793 0)
(0.427096 0.0184854 0)
(2.01328 -7.84586e-07 0)
(2.0026 2.55113e-06 0)
(1.99075 -7.09042e-06 0)
(1.97766 1.26968e-05 0)
(1.96299 -2.2994e-05 0)
(1.9467 3.17939e-05 0)
(1.92687 3.68118e-05 0)
(1.91415 -0.000126104 0)
(1.00523 0.0230298 0)
(0.46027 0.0435782 0)
(2.01328 -1.29137e-06 0)
(2.0026 4.21539e-06 0)
(1.99075 -1.16847e-05 0)
(1.97766 2.10571e-05 0)
(1.963 -3.80556e-05 0)
(1.9467 5.38855e-05 0)
(1.92687 6.01343e-05 0)
(1.91418 -0.000211276 0)
(1.01387 0.0367103 0)
(0.50379 0.0664482 0)
(2.01328 -1.78455e-06 0)
(2.0026 5.8478e-06 0)
(1.99076 -1.61503e-05 0)
(1.97766 2.93857e-05 0)
(1.963 -5.29056e-05 0)
(1.94671 7.44526e-05 0)
(1.92687 8.45605e-05 0)
(1.9142 -0.000313368 0)
(1.02485 0.0492478 0)
(0.552333 0.0826006 0)
(2.01328 -2.25544e-06 0)
(2.0026 7.42467e-06 0)
(1.99076 -2.038e-05 0)
(1.97766 3.74991e-05 0)
(1.96301 -6.70703e-05 0)
(1.94672 9.35534e-05 0)
(1.92688 0.000107961 0)
(1.91423 -0.000393555 0)
(1.0382 0.0597 0)
(0.599513 0.0984042 0)
(2.01328 -2.69708e-06 0)
(2.0026 8.92169e-06 0)
(1.99076 -2.42722e-05 0)
(1.97766 4.51922e-05 0)
(1.96302 -7.97866e-05 0)
(1.94673 0.000109422 0)
(1.92689 0.000132935 0)
(1.91419 -0.000523596 0)
(1.05214 0.0686191 0)
(0.642604 0.110188 0)
(2.01328 -3.10287e-06 0)
(2.00259 1.0314e-05 0)
(1.99076 -2.77271e-05 0)
(1.97766 5.22382e-05 0)
(1.96303 -9.03623e-05 0)
(1.94674 0.000120803 0)
(1.9269 0.000155514 0)
(1.91408 -0.000653006 0)
(1.06552 0.076086 0)
(0.67917 0.119655 0)
(2.01328 -3.46711e-06 0)
(2.00259 1.15779e-05 0)
(1.99077 -3.06636e-05 0)
(1.97766 5.84022e-05 0)
(1.96303 -9.81311e-05 0)
(1.94676 0.000126003 0)
(1.92691 0.000179415 0)
(1.91389 -0.000746588 0)
(1.07834 0.082435 0)
(0.710755 0.125679 0)
(2.01328 -3.78533e-06 0)
(2.00259 1.26921e-05 0)
(1.99077 -3.30232e-05 0)
(1.97766 6.34591e-05 0)
(1.96304 -0.000102676 0)
(1.94677 0.000124767 0)
(1.92692 0.000202481 0)
(1.91368 -0.000830864 0)
(1.09165 0.0881226 0)
(0.73818 0.129717 0)
(2.01328 -4.05448e-06 0)
(2.00259 1.36385e-05 0)
(1.99077 -3.47691e-05 0)
(1.97766 6.71767e-05 0)
(1.96304 -0.000103245 0)
(1.94678 0.000115969 0)
(1.92693 0.000218887 0)
(1.91348 -0.00089473 0)
(1.10644 0.0932069 0)
(0.762122 0.13206 0)
(2.01328 -4.27315e-06 0)
(2.00259 1.44046e-05 0)
(1.99077 -3.58987e-05 0)
(1.97766 6.94597e-05 0)
(1.96305 -9.98832e-05 0)
(1.94679 0.000101973 0)
(1.92693 0.000237812 0)
(1.91332 -0.000948897 0)
(1.1229 0.0976315 0)
(0.782123 0.133981 0)
(2.01328 -4.4414e-06 0)
(2.00259 1.49836e-05 0)
(1.99078 -3.64402e-05 0)
(1.97765 7.04641e-05 0)
(1.96305 -9.405e-05 0)
(1.94679 8.15238e-05 0)
(1.92693 0.000250412 0)
(1.91319 -0.000975682 0)
(1.14024 0.10118 0)
(0.797939 0.135101 0)
(2.01328 -4.5603e-06 0)
(2.00259 1.53723e-05 0)
(1.99078 -3.6393e-05 0)
(1.97765 7.01915e-05 0)
(1.96306 -8.62535e-05 0)
(1.94679 5.67579e-05 0)
(1.92692 0.000267583 0)
(1.91308 -0.000993571 0)
(1.15731 0.103759 0)
(0.810158 0.135762 0)
(2.01328 -4.63093e-06 0)
(2.00259 1.55707e-05 0)
(1.99078 -3.577e-05 0)
(1.97765 6.84332e-05 0)
(1.96306 -7.69412e-05 0)
(1.94678 3.01597e-05 0)
(1.92691 0.00028184 0)
(1.91299 -0.00100138 0)
(1.17343 0.10579 0)
(0.819771 0.135619 0)
(2.01328 -4.65151e-06 0)
(2.00259 1.55807e-05 0)
(1.99078 -3.46532e-05 0)
(1.97765 6.53493e-05 0)
(1.96306 -6.66219e-05 0)
(1.94678 2.42118e-06 0)
(1.92689 0.000298057 0)
(1.91291 -0.000998107 0)
(1.18854 0.10719 0)
(0.827737 0.135095 0)
(2.01328 -4.62021e-06 0)
(2.00259 1.53887e-05 0)
(1.99078 -3.30939e-05 0)
(1.97764 6.10739e-05 0)
(1.96306 -5.57232e-05 0)
(1.94678 -2.49526e-05 0)
(1.92687 0.000313765 0)
(1.91283 -0.000988877 0)
(1.20276 0.108337 0)
(0.834726 0.133937 0)
(2.01328 -4.54505e-06 0)
(2.00259 1.50096e-05 0)
(1.99078 -3.11468e-05 0)
(1.97764 5.58174e-05 0)
(1.96306 -4.42749e-05 0)
(1.94677 -5.24978e-05 0)
(1.92685 0.000331198 0)
(1.91276 -0.00097735 0)
(1.2164 0.109065 0)
(0.841374 0.132575 0)
(2.01328 -4.43067e-06 0)
(2.00259 1.44683e-05 0)
(1.99078 -2.8876e-05 0)
(1.97763 4.9662e-05 0)
(1.96306 -3.23031e-05 0)
(1.94677 -7.60187e-05 0)
(1.92683 0.000348188 0)
(1.91269 -0.000964091 0)
(1.22975 0.10966 0)
(0.847942 0.130726 0)
(2.01328 -4.27899e-06 0)
(2.00259 1.37744e-05 0)
(1.99078 -2.6325e-05 0)
(1.97763 4.28524e-05 0)
(1.96305 -2.07382e-05 0)
(1.94678 -9.82219e-05 0)
(1.9268 0.000363631 0)
(1.91261 -0.000947926 0)
(1.24314 0.109885 0)
(0.854926 0.128674 0)
(2.01329 -4.09712e-06 0)
(2.00258 1.29526e-05 0)
(1.99078 -2.35934e-05 0)
(1.97763 3.56246e-05 0)
(1.96305 -9.29103e-06 0)
(1.94678 -0.000118283 0)
(1.92678 0.000377596 0)
(1.91253 -0.000931035 0)
(1.25687 0.109858 0)
(0.862451 0.12638 0)
(2.01329 4.09705e-06 0)
(2.00258 -1.2952e-05 0)
(1.99078 2.35898e-05 0)
(1.97763 -3.56068e-05 0)
(1.96305 9.2426e-06 0)
(1.94678 0.000118412 0)
(1.92678 -0.000377698 0)
(1.91253 0.000930863 0)
(1.25686 -0.109865 0)
(0.862431 -0.126379 0)
(2.01328 4.27894e-06 0)
(2.00259 -1.37739e-05 0)
(1.99078 2.63215e-05 0)
(1.97763 -4.28338e-05 0)
(1.96305 2.06826e-05 0)
(1.94678 9.83849e-05 0)
(1.9268 -0.000363788 0)
(1.91261 0.00094771 0)
(1.24314 -0.109894 0)
(0.854912 -0.128668 0)
(2.01328 4.43064e-06 0)
(2.00259 -1.4468e-05 0)
(1.99078 2.88728e-05 0)
(1.97763 -4.9644e-05 0)
(1.96306 3.22476e-05 0)
(1.94677 7.61723e-05 0)
(1.92683 -0.000348359 0)
(1.91269 0.000963859 0)
(1.22974 -0.109671 0)
(0.847934 -0.130721 0)
(2.01328 4.54505e-06 0)
(2.00259 -1.50094e-05 0)
(1.99078 3.11442e-05 0)
(1.97764 -5.58025e-05 0)
(1.96306 4.42186e-05 0)
(1.94677 5.25913e-05 0)
(1.92685 -0.000331354 0)
(1.91276 0.000977131 0)
(1.21639 -0.109076 0)
(0.841365 -0.132566 0)
(2.01328 4.62025e-06 0)
(2.00259 -1.53889e-05 0)
(1.99078 3.30925e-05 0)
(1.97764 -6.10666e-05 0)
(1.96306 5.56897e-05 0)
(1.94678 2.50399e-05 0)
(1.92687 -0.000313882 0)
(1.91283 0.000988681 0)
(1.20276 -0.108345 0)
(0.834716 -0.13393 0)
(2.01328 4.65163e-06 0)
(2.00259 -1.55815e-05 0)
(1.99078 3.46537e-05 0)
(1.97765 -6.53523e-05 0)
(1.96306 6.66151e-05 0)
(1.94678 -2.47619e-06 0)
(1.92689 -0.000298138 0)
(1.91291 0.000997942 0)
(1.18853 -0.107195 0)
(0.827724 -0.135086 0)
(2.01328 4.63115e-06 0)
(2.00259 -1.5572e-05 0)
(1.99078 3.57729e-05 0)
(1.97765 -6.84471e-05 0)
(1.96306 7.69581e-05 0)
(1.94678 -3.02651e-05 0)
(1.92691 -0.000281929 0)
(1.91299 0.00100133 0)
(1.17341 -0.105791 0)
(0.819754 -0.135612 0)
(2.01328 4.5606e-06 0)
(2.00259 -1.53741e-05 0)
(1.99078 3.63978e-05 0)
(1.97765 -7.02107e-05 0)
(1.96306 8.62787e-05 0)
(1.94679 -5.68151e-05 0)
(1.92692 -0.000267723 0)
(1.91308 0.000993577 0)
(1.15729 -0.103757 0)
(0.810142 -0.135754 0)
(2.01328 4.44177e-06 0)
(2.00259 -1.49856e-05 0)
(1.99078 3.64454e-05 0)
(1.97765 -7.04776e-05 0)
(1.96305 9.4064e-05 0)
(1.94679 -8.14838e-05 0)
(1.92693 -0.000250467 0)
(1.91319 0.000975516 0)
(1.14023 -0.101176 0)
(0.797929 -0.13509 0)
(2.01328 4.27357e-06 0)
(2.00259 -1.44068e-05 0)
(1.99077 3.59039e-05 0)
(1.97766 -6.94692e-05 0)
(1.96305 9.98757e-05 0)
(1.94679 -0.000101894 0)
(1.92693 -0.000237747 0)
(1.91332 0.000948687 0)
(1.12289 -0.0976261 0)
(0.782117 -0.133968 0)
(2.01328 4.05496e-06 0)
(2.00259 -1.36408e-05 0)
(1.99077 3.47753e-05 0)
(1.97766 -6.719e-05 0)
(1.96304 0.000103243 0)
(1.94678 -0.000115947 0)
(1.92693 -0.000218671 0)
(1.91348 0.000894505 0)
(1.10643 -0.0932016 0)
(0.76212 -0.132036 0)
(2.01328 3.78589e-06 0)
(2.00259 -1.26948e-05 0)
(1.99077 3.30314e-05 0)
(1.97766 -6.34835e-05 0)
(1.96304 0.000102723 0)
(1.94677 -0.00012498 0)
(1.92692 -0.000202174 0)
(1.91368 0.000830837 0)
(1.09163 -0.0881122 0)
(0.738178 -0.129691 0)
(2.01328 3.46776e-06 0)
(2.00259 -1.15812e-05 0)
(1.99077 3.06747e-05 0)
(1.97766 -5.84385e-05 0)
(1.96303 9.82185e-05 0)
(1.94676 -0.000126343 0)
(1.92691 -0.000179117 0)
(1.91389 0.000746779 0)
(1.07832 -0.0824177 0)
(0.710755 -0.125643 0)
(2.01328 3.10362e-06 0)
(2.00259 -1.03178e-05 0)
(1.99076 2.77411e-05 0)
(1.97766 -5.22827e-05 0)
(1.96303 9.04798e-05 0)
(1.94674 -0.0001212 0)
(1.9269 -0.000155176 0)
(1.91408 0.000653308 0)
(1.06551 -0.0760629 0)
(0.679179 -0.11963 0)
(2.01328 2.69794e-06 0)
(2.0026 -8.92608e-06 0)
(1.99076 2.42886e-05 0)
(1.97766 -4.52409e-05 0)
(1.96302 7.99182e-05 0)
(1.94673 -0.000109833 0)
(1.92689 -0.000132518 0)
(1.91419 0.000523919 0)
(1.05214 -0.0685935 0)
(0.642648 -0.110151 0)
(2.01328 2.25639e-06 0)
(2.0026 -7.42942e-06 0)
(1.99076 2.03983e-05 0)
(1.97766 -3.75499e-05 0)
(1.96301 6.72093e-05 0)
(1.94672 -9.40122e-05 0)
(1.92688 -0.000107389 0)
(1.91423 0.000393229 0)
(1.03822 -0.0596858 0)
(0.599593 -0.0983831 0)
(2.01328 1.78557e-06 0)
(2.0026 -5.85284e-06 0)
(1.99076 1.61705e-05 0)
(1.97766 -2.94418e-05 0)
(1.963 5.30686e-05 0)
(1.94671 -7.49501e-05 0)
(1.92687 -8.38244e-05 0)
(1.9142 0.00031228 0)
(1.02489 -0.0492377 0)
(0.552455 -0.0825634 0)
(2.01328 1.29244e-06 0)
(2.0026 -4.22067e-06 0)
(1.99075 1.17067e-05 0)
(1.97766 -2.11187e-05 0)
(1.963 3.82191e-05 0)
(1.94671 -5.42229e-05 0)
(1.92687 -5.94525e-05 0)
(1.91418 0.000207202 0)
(1.01392 -0.03672 0)
(0.503921 -0.0664327 0)
(2.01328 7.85688e-07 0)
(2.0026 -2.55652e-06 0)
(1.99075 7.11279e-06 0)
(1.97766 -1.27573e-05 0)
(1.96299 2.31721e-05 0)
(1.9467 -3.25164e-05 0)
(1.92687 -3.595e-05 0)
(1.91414 0.000130747 0)
(1.00532 -0.0230417 0)
(0.460391 -0.0435323 0)
(2.01328 2.74005e-07 0)
(2.0026 -8.90251e-07 0)
(1.99075 2.49372e-06 0)
(1.97766 -4.41868e-06 0)
(1.96299 8.17658e-06 0)
(1.9467 -1.0879e-05 0)
(1.92687 -1.283e-05 0)
(1.91415 3.66104e-05 0)
(0.997099 -0.00825498 0)
(0.427136 -0.0184657 0)
(0.873888 -0.140781 0)
(0.886264 -0.143569 0)
(0.894094 -0.149532 0)
(0.906017 -0.154466 0)
(0.918632 -0.160957 0)
(0.935563 -0.16617 0)
(0.955427 -0.171962 0)
(0.981278 -0.176569 0)
(1.01223 -0.178588 0)
(1.05118 -0.178245 0)
(0.865195 -0.14681 0)
(0.878044 -0.149549 0)
(0.886187 -0.1558 0)
(0.89877 -0.160952 0)
(0.91203 -0.168023 0)
(0.929952 -0.173517 0)
(0.95077 -0.17989 0)
(0.978096 -0.184559 0)
(1.01077 -0.186607 0)
(1.05223 -0.185613 0)
(0.856966 -0.152724 0)
(0.869915 -0.155553 0)
(0.87808 -0.162099 0)
(0.891057 -0.167448 0)
(0.904712 -0.175059 0)
(0.923495 -0.180794 0)
(0.945293 -0.187843 0)
(0.97433 -0.192697 0)
(1.00916 -0.195024 0)
(1.05386 -0.193504 0)
(0.848955 -0.158447 0)
(0.86185 -0.161481 0)
(0.869933 -0.168404 0)
(0.883248 -0.17407 0)
(0.897282 -0.182346 0)
(0.917011 -0.188437 0)
(0.939904 -0.196308 0)
(0.970827 -0.201443 0)
(1.00795 -0.204016 0)
(1.05591 -0.201855 0)
(0.840335 -0.163598 0)
(0.853047 -0.166943 0)
(0.860922 -0.174303 0)
(0.874488 -0.18041 0)
(0.888774 -0.189468 0)
(0.909388 -0.196016 0)
(0.933301 -0.204862 0)
(0.966141 -0.210371 0)
(1.00576 -0.213384 0)
(1.05756 -0.210592 0)
(0.830961 -0.168361 0)
(0.843344 -0.172131 0)
(0.850912 -0.180005 0)
(0.864656 -0.186682 0)
(0.879104 -0.196649 0)
(0.900618 -0.203779 0)
(0.925576 -0.213759 0)
(0.960495 -0.219759 0)
(1.00292 -0.223381 0)
(1.05898 -0.21989 0)
(0.819904 -0.172026 0)
(0.831683 -0.176347 0)
(0.83883 -0.184834 0)
(0.852693 -0.192257 0)
(0.867222 -0.203335 0)
(0.889713 -0.211245 0)
(0.915771 -0.2226 0)
(0.952942 -0.229266 0)
(0.998548 -0.233807 0)
(1.05952 -0.229576 0)
(0.806992 -0.174679 0)
(0.817758 -0.179713 0)
(0.824459 -0.188978 0)
(0.838503 -0.197317 0)
(0.853124 -0.209739 0)
(0.87677 -0.218636 0)
(0.904065 -0.231591 0)
(0.943658 -0.239087 0)
(0.992851 -0.244932 0)
(1.05968 -0.239987 0)
(0.792168 -0.175578 0)
(0.801431 -0.181631 0)
(0.807697 -0.192045 0)
(0.8221 -0.20157 0)
(0.836824 -0.215673 0)
(0.861796 -0.225835 0)
(0.890422 -0.240623 0)
(0.932544 -0.249089 0)
(0.985414 -0.256714 0)
(1.05888 -0.251166 0)
(0.7763 -0.175637 0)
(0.783521 -0.182933 0)
(0.789079 -0.19474 0)
(0.803942 -0.205539 0)
(0.818642 -0.221488 0)
(0.844969 -0.233046 0)
(0.874946 -0.249767 0)
(0.919847 -0.259672 0)
(0.976319 -0.268273 0)
(1.05746 -0.263189 0)
(0.759142 -0.173156 0)
(0.764336 -0.182459 0)
(0.768326 -0.196256 0)
(0.783602 -0.20857 0)
(0.798088 -0.226625 0)
(0.825832 -0.240001 0)
(0.857337 -0.259051 0)
(0.904766 -0.270298 0)
(0.96646 -0.282172 0)
(1.05698 -0.2771 0)
(0.736635 -0.166273 0)
(0.741719 -0.178515 0)
(0.74386 -0.195794 0)
(0.760008 -0.21054 0)
(0.774461 -0.231141 0)
(0.803799 -0.246779 0)
(0.837039 -0.268192 0)
(0.887496 -0.281991 0)
(0.954581 -0.297347 0)
(1.05409 -0.291805 0)
(0.704377 -0.154383 0)
(0.712617 -0.170065 0)
(0.713972 -0.191983 0)
(0.732162 -0.21067 0)
(0.747263 -0.234895 0)
(0.778533 -0.253624 0)
(0.814002 -0.277889 0)
(0.867137 -0.294159 0)
(0.939459 -0.313098 0)
(1.05019 -0.307331 0)
(0.662319 -0.143291 0)
(0.675377 -0.161856 0)
(0.678142 -0.188377 0)
(0.700029 -0.210267 0)
(0.716892 -0.237675 0)
(0.750169 -0.259554 0)
(0.787899 -0.286278 0)
(0.843324 -0.305517 0)
(0.920333 -0.329409 0)
(1.04309 -0.325142 0)
(0.615442 -0.127937 0)
(0.634377 -0.149803 0)
(0.639387 -0.182932 0)
(0.666 -0.209978 0)
(0.686025 -0.241338 0)
(0.721614 -0.266796 0)
(0.762168 -0.29623 0)
(0.820076 -0.31888 0)
(0.901908 -0.347331 0)
(1.03364 -0.344557 0)
(0.567938 -0.127364 0)
(0.594331 -0.150119 0)
(0.602305 -0.1854 0)
(0.633313 -0.214465 0)
(0.657465 -0.248421 0)
(0.695077 -0.276677 0)
(0.738126 -0.307851 0)
(0.798061 -0.334186 0)
(0.884016 -0.367696 0)
(1.02337 -0.366964 0)
(0.519518 -0.121711 0)
(0.555233 -0.150117 0)
(0.565498 -0.191203 0)
(0.599649 -0.222199 0)
(0.629487 -0.256829 0)
(0.669958 -0.287465 0)
(0.715864 -0.321091 0)
(0.776815 -0.351372 0)
(0.863182 -0.388464 0)
(1.00746 -0.39449 0)
(0.462996 -0.115962 0)
(0.512832 -0.140291 0)
(0.530516 -0.186507 0)
(0.569342 -0.229069 0)
(0.607752 -0.272257 0)
(0.655757 -0.307993 0)
(0.708252 -0.343053 0)
(0.771843 -0.374772 0)
(0.857711 -0.414773 0)
(1.00169 -0.428809 0)
(0.404693 -0.129924 0)
(0.471046 -0.159044 0)
(0.504992 -0.214445 0)
(0.554513 -0.260551 0)
(0.599254 -0.301915 0)
(0.646593 -0.334546 0)
(0.696866 -0.365479 0)
(0.757843 -0.395815 0)
(0.840167 -0.435873 0)
(0.978312 -0.463159 0)
(0.369974 -0.0903983 0)
(0.458434 -0.138975 0)
(0.509365 -0.209956 0)
(0.563954 -0.261434 0)
(0.609498 -0.303675 0)
(0.65385 -0.33663 0)
(0.70054 -0.366937 0)
(0.758263 -0.396242 0)
(0.836805 -0.435238 0)
(0.979658 -0.47338 0)
(1.1486 -0.154709 0)
(1.2882 -0.0788701 0)
(1.40902 0.0296865 0)
(1.50298 0.151077 0)
(1.57275 0.268276 0)
(1.62927 0.37012 0)
(1.64099 0.375152 0)
(1.59837 0.255326 0)
(1.50383 0.066058 0)
(1.50616 -0.0197176 0)
(1.1551 -0.159344 0)
(1.30091 -0.07713 0)
(1.42373 0.0379596 0)
(1.51716 0.165012 0)
(1.5839 0.285162 0)
(1.63383 0.384724 0)
(1.64099 0.373864 0)
(1.58349 0.232379 0)
(1.49254 0.0588412 0)
(1.49959 -0.0187118 0)
(1.16294 -0.164245 0)
(1.31434 -0.0748911 0)
(1.43933 0.0478252 0)
(1.53095 0.177963 0)
(1.59613 0.305421 0)
(1.63534 0.392205 0)
(1.63864 0.372742 0)
(1.56691 0.209574 0)
(1.48535 0.0527005 0)
(1.49621 -0.0180819 0)
(1.17096 -0.169188 0)
(1.32864 -0.0718609 0)
(1.45487 0.0576389 0)
(1.54673 0.1953 0)
(1.60754 0.327151 0)
(1.63674 0.396677 0)
(1.63358 0.366088 0)
(1.54728 0.185658 0)
(1.47909 0.0486075 0)
(1.49438 -0.0164288 0)
(1.17943 -0.174131 0)
(1.34366 -0.0686412 0)
(1.47154 0.0692642 0)
(1.56171 0.214709 0)
(1.61746 0.342825 0)
(1.63751 0.40008 0)
(1.62742 0.356463 0)
(1.52543 0.16217 0)
(1.47173 0.0448162 0)
(1.49127 -0.015578 0)
(1.18842 -0.17898 0)
(1.35959 -0.0647719 0)
(1.4891 0.0834463 0)
(1.57593 0.234142 0)
(1.62765 0.35673 0)
(1.63791 0.404482 0)
(1.61934 0.342567 0)
(1.50265 0.139869 0)
(1.46315 0.0412567 0)
(1.48594 -0.0131436 0)
(1.19805 -0.18353 0)
(1.37683 -0.0588467 0)
(1.50669 0.0987805 0)
(1.58949 0.247979 0)
(1.63963 0.37817 0)
(1.63711 0.40667 0)
(1.6085 0.323211 0)
(1.48231 0.12227 0)
(1.45429 0.0388252 0)
(1.47973 -0.0113878 0)
(1.20875 -0.187816 0)
(1.39513 -0.0506259 0)
(1.52438 0.113138 0)
(1.60554 0.268701 0)
(1.64637 0.3982 0)
(1.63729 0.406594 0)
(1.5956 0.300481 0)
(1.46242 0.108746 0)
(1.44668 0.0369165 0)
(1.47351 -0.0097559 0)
(1.22078 -0.191529 0)
(1.41445 -0.0410953 0)
(1.54261 0.12819 0)
(1.6207 0.295961 0)
(1.6499 0.407883 0)
(1.639 0.403824 0)
(1.5794 0.272259 0)
(1.4453 0.0979292 0)
(1.44205 0.0354304 0)
(1.46814 -0.00827901 0)