/*--------------------------------*- C++ -*----------------------------------*\
  =========                 |
  \\      /  F ield         | OpenFOAM: The Open Source CFD Toolbox
   \\    /   O peration     | Website:  https://openfoam.org
    \\  /    A nd           | Version:  7
     \\/     M anipulation  |
\*---------------------------------------------------------------------------*/
FoamFile
{
    version     2.0;
    format      ascii;
    class       volVectorField;
    location    "0.2";
    object      U;
}
// * * * * * * * * * * * * * * * * * * * * * * * * * * * * * * * * * * * * * //

dimensions      [0 1 -1 0 0 0 0];

internalField   nonuniform List<vector> 
3225
(
(1.11814 1.48604e-15 0)
(1.11775 5.24571e-16 0)
(1.11736 -1.82797e-15 0)
(1.11696 3.48051e-15 0)
(1.11656 -1.12578e-15 0)
(1.11616 4.10302e-15 0)
(1.11575 -1.21364e-15 0)
(1.11534 1.25484e-15 0)
(1.11492 2.24689e-15 0)
(1.1145 -1.9091e-15 0)
(1.11408 1.22443e-15 0)
(1.11365 -4.70318e-15 0)
(1.14487 6.54096e-17 0)
(1.1386 1.81952e-16 0)
(1.1309 -3.12402e-16 0)
(1.12474 -9.90483e-16 0)
(1.12266 8.57703e-17 0)
(1.12198 -1.04677e-15 0)
(1.12143 -1.89745e-15 0)
(1.12107 -6.48381e-16 0)
(1.12076 1.95977e-15 0)
(1.12042 -2.79758e-16 0)
(1.12005 1.91e-15 0)
(1.11967 -1.6611e-15 0)
(1.11929 1.53017e-15 0)
(1.11891 -2.06769e-15 0)
(1.11853 -3.97866e-16 0)
(1.11814 4.17431e-16 0)
(1.11775 3.6486e-16 0)
(1.11736 -2.0281e-15 0)
(1.11696 3.1551e-15 0)
(1.11656 -1.18552e-15 0)
(1.11616 4.34754e-15 0)
(1.11575 -1.47707e-15 0)
(1.11534 9.19986e-16 0)
(1.11492 1.64523e-15 0)
(1.1145 -2.47233e-15 0)
(1.11408 1.23905e-15 0)
(1.11365 -4.60877e-15 0)
(1.14487 -1.86472e-16 0)
(1.1386 4.82445e-19 0)
(1.1309 -7.4305e-16 0)
(1.12474 -5.80358e-16 0)
(1.12266 -7.16126e-16 0)
(1.12198 -2.97048e-16 0)
(1.12143 -2.12488e-15 0)
(1.12107 -1.42635e-15 0)
(1.12076 1.80229e-15 0)
(1.12042 -1.02007e-15 0)
(1.12005 1.33792e-15 0)
(1.11967 -1.09868e-15 0)
(1.11929 2.07445e-15 0)
(1.11891 -1.10308e-15 0)
(1.11853 -1.60863e-16 0)
(1.11814 2.72527e-16 0)
(1.11775 -1.56179e-16 0)
(1.11736 -1.83926e-15 0)
(1.11696 3.52852e-15 0)
(1.11656 -7.94133e-16 0)
(1.11616 3.38917e-15 0)
(1.11575 -2.45421e-15 0)
(1.11534 1.1218e-15 0)
(1.11492 1.18268e-15 0)
(1.1145 -2.31918e-15 0)
(1.11408 9.34145e-16 0)
(1.11365 -3.97601e-15 0)
(1.14487 -8.15678e-17 0)
(1.1386 -3.00822e-16 0)
(1.1309 -1.99756e-16 0)
(1.12474 -1.20146e-16 0)
(1.12266 -1.19727e-15 0)
(1.12198 -1.28856e-15 0)
(1.12143 -1.80462e-15 0)
(1.12107 -6.71898e-16 0)
(1.12076 1.78823e-15 0)
(1.12042 -3.37277e-16 0)
(1.12005 3.46962e-16 0)
(1.11967 -9.4573e-16 0)
(1.11929 2.87131e-15 0)
(1.11891 -1.95172e-15 0)
(1.11853 5.09107e-16 0)
(1.11814 7.76784e-16 0)
(1.11775 -7.45252e-17 0)
(1.11736 -1.52887e-15 0)
(1.11696 3.32272e-15 0)
(1.11656 -7.24193e-16 0)
(1.11616 2.17213e-15 0)
(1.11575 -1.62214e-15 0)
(1.11534 5.41634e-16 0)
(1.11492 1.49843e-15 0)
(1.1145 -1.98322e-15 0)
(1.11408 1.02838e-15 0)
(1.11365 -4.30885e-15 0)
(1.14487 -1.23822e-16 0)
(1.1386 -2.92897e-16 0)
(1.1309 -6.68241e-17 0)
(1.12474 -8.49377e-17 0)
(1.12266 -6.94247e-16 0)
(1.12198 -9.77332e-16 0)
(1.12143 -1.18402e-15 0)
(1.12107 8.02768e-18 0)
(1.12076 1.1839e-15 0)
(1.12042 1.462e-16 0)
(1.12005 -5.79569e-16 0)
(1.11967 -9.13725e-16 0)
(1.11929 2.1884e-15 0)
(1.11891 -2.61056e-15 0)
(1.11853 3.57788e-16 0)
(1.11814 1.07633e-15 0)
(1.11775 2.84107e-16 0)
(1.11736 -1.19354e-15 0)
(1.11696 2.75399e-15 0)
(1.11656 -9.66246e-16 0)
(1.11616 1.44976e-15 0)
(1.11575 -1.09367e-15 0)
(1.11534 -1.34693e-17 0)
(1.11492 1.713e-15 0)
(1.1145 -2.6273e-15 0)
(1.11408 1.29871e-15 0)
(1.11365 -4.18464e-15 0)
(1.14487 8.2967e-17 0)
(1.1386 -1.74692e-16 0)
(1.1309 -6.45313e-17 0)
(1.12474 1.58748e-16 0)
(1.12266 -1.15211e-15 0)
(1.12198 -7.93917e-16 0)
(1.12143 -6.38046e-16 0)
(1.12107 -9.99156e-16 0)
(1.12076 5.24123e-16 0)
(1.12042 -8.23306e-16 0)
(1.12005 -2.6822e-16 0)
(1.11967 -7.29141e-16 0)
(1.11929 1.65161e-15 0)
(1.11891 -2.73651e-15 0)
(1.11853 2.37542e-16 0)
(1.11814 9.97043e-16 0)
(1.11775 -2.71011e-16 0)
(1.11736 -1.13671e-15 0)
(1.11696 2.53552e-15 0)
(1.11656 -9.42106e-16 0)
(1.11616 6.72479e-16 0)
(1.11575 -6.30629e-16 0)
(1.11534 -6.20607e-17 0)
(1.11492 1.99829e-15 0)
(1.1145 -2.253e-15 0)
(1.11408 1.95596e-15 0)
(1.11365 -3.77152e-15 0)
(1.14487 1.11475e-16 0)
(1.1386 -1.04373e-16 0)
(1.1309 -2.31788e-16 0)
(1.12474 2.09339e-16 0)
(1.12266 -1.60652e-16 0)
(1.12198 -7.75494e-16 0)
(1.12143 -7.84474e-17 0)
(1.12107 -1.77488e-15 0)
(1.12076 2.25224e-16 0)
(1.12042 -2.47774e-15 0)
(1.12005 -1.49779e-16 0)
(1.11967 -1.00487e-15 0)
(1.11929 8.30797e-16 0)
(1.11891 -2.56842e-15 0)
(1.11853 1.0223e-15 0)
(1.11814 1.45447e-15 0)
(1.11775 -2.78504e-17 0)
(1.11736 -1.27335e-15 0)
(1.11696 1.88918e-15 0)
(1.11656 -9.59179e-16 0)
(1.11616 -1.83338e-16 0)
(1.11575 2.93096e-16 0)
(1.11534 1.72681e-16 0)
(1.11492 2.51809e-15 0)
(1.1145 -2.53196e-15 0)
(1.11408 2.3844e-15 0)
(1.11365 -4.21024e-15 0)
(1.14487 1.34917e-17 0)
(1.1386 -1.4972e-16 0)
(1.1309 -2.33082e-16 0)
(1.12474 3.13113e-16 0)
(1.12266 7.56017e-16 0)
(1.12198 -5.8953e-16 0)
(1.12143 -3.64532e-16 0)
(1.12107 -6.66286e-16 0)
(1.12076 9.49176e-16 0)
(1.12042 -1.58771e-15 0)
(1.12005 6.22357e-16 0)
(1.11967 -8.18933e-16 0)
(1.11929 1.13765e-15 0)
(1.11891 -6.39571e-16 0)
(1.11853 4.76248e-16 0)
(1.11814 1.53067e-15 0)
(1.11775 2.76953e-16 0)
(1.11736 -9.50353e-16 0)
(1.11696 2.18639e-15 0)
(1.11656 -9.39749e-16 0)
(1.11616 -1.289e-15 0)
(1.11575 1.33653e-15 0)
(1.11534 -1.60284e-16 0)
(1.11492 2.50043e-15 0)
(1.1145 -3.04982e-15 0)
(1.11408 1.64366e-15 0)
(1.11365 -3.97859e-15 0)
(1.14487 -2.74612e-18 0)
(1.1386 -4.24542e-16 0)
(1.1309 -2.81089e-16 0)
(1.12474 2.54833e-16 0)
(1.12266 6.79572e-16 0)
(1.12198 -6.85073e-16 0)
(1.12143 -1.07882e-15 0)
(1.12107 -1.87871e-15 0)
(1.12076 1.0803e-15 0)
(1.12042 -7.71452e-16 0)
(1.12005 1.36594e-15 0)
(1.11967 -4.32783e-16 0)
(1.11929 1.63018e-15 0)
(1.11891 1.03348e-16 0)
(1.11853 -2.57909e-16 0)
(1.11814 8.4019e-16 0)
(1.11775 4.65089e-16 0)
(1.11736 -7.38529e-16 0)
(1.11696 2.55534e-15 0)
(1.11656 -5.36236e-16 0)
(1.11616 -1.34072e-15 0)
(1.11575 1.713e-15 0)
(1.11534 -8.53397e-16 0)
(1.11492 1.77613e-15 0)
(1.1145 -2.09667e-15 0)
(1.11408 1.64566e-15 0)
(1.11365 -3.58248e-15 0)
(1.14487 -1.55777e-17 0)
(1.1386 -3.36277e-16 0)
(1.1309 -4.12751e-16 0)
(1.12474 -1.86847e-16 0)
(1.12266 1.14044e-15 0)
(1.12198 -4.48163e-16 0)
(1.12143 -8.87032e-16 0)
(1.12107 -2.02685e-15 0)
(1.12076 8.1988e-16 0)
(1.12042 -4.78889e-16 0)
(1.12005 -3.74306e-16 0)
(1.11967 -5.55157e-16 0)
(1.11929 1.61144e-15 0)
(1.11891 2.62331e-16 0)
(1.11853 -8.8176e-16 0)
(1.11814 1.17027e-15 0)
(1.11775 5.84501e-16 0)
(1.11736 -2.97316e-16 0)
(1.11696 2.5536e-15 0)
(1.11656 -5.4997e-16 0)
(1.11616 -3.17885e-16 0)
(1.11575 1.2855e-15 0)
(1.11534 -1.08541e-15 0)
(1.11492 1.3232e-15 0)
(1.1145 -1.57365e-15 0)
(1.11408 6.83956e-16 0)
(1.11365 -3.46931e-15 0)
(1.14487 -1.16697e-16 0)
(1.1386 -1.54791e-17 0)
(1.1309 -9.59575e-17 0)
(1.12474 -3.46809e-17 0)
(1.12266 5.76885e-16 0)
(1.12198 2.16438e-16 0)
(1.12143 -2.29678e-16 0)
(1.12107 -1.79434e-15 0)
(1.12076 7.08076e-16 0)
(1.12042 -9.24333e-17 0)
(1.12005 -1.40682e-15 0)
(1.11967 4.42563e-17 0)
(1.11929 2.52592e-15 0)
(1.11891 1.09588e-15 0)
(1.11853 -1.26713e-15 0)
(1.11814 1.00252e-15 0)
(1.11775 5.91769e-16 0)
(1.11736 -1.79428e-16 0)
(1.11696 2.53488e-15 0)
(1.11656 -4.39546e-16 0)
(1.11616 5.91404e-16 0)
(1.11575 7.98907e-16 0)
(1.11534 -1.16552e-15 0)
(1.11492 1.23584e-15 0)
(1.1145 -2.26956e-15 0)
(1.11408 1.31344e-15 0)
(1.11365 -3.94235e-15 0)
(1.14487 1.2543e-16 0)
(1.1386 2.54355e-16 0)
(1.1309 -1.61669e-16 0)
(1.12474 3.56829e-16 0)
(1.12266 -1.27635e-17 0)
(1.12198 5.58378e-16 0)
(1.12143 1.31379e-15 0)
(1.12107 -1.29231e-15 0)
(1.12076 6.46123e-17 0)
(1.12042 3.42731e-16 0)
(1.12005 -2.56379e-16 0)
(1.11967 3.36673e-16 0)
(1.11929 1.84616e-15 0)
(1.11891 5.9216e-16 0)
(1.11853 -4.38795e-16 0)
(1.11814 6.40413e-16 0)
(1.11775 8.75203e-16 0)
(1.11736 -9.95579e-17 0)
(1.11696 2.26466e-15 0)
(1.11656 9.76339e-17 0)
(1.11616 7.43905e-16 0)
(1.11575 1.47999e-15 0)
(1.11534 -1.09559e-15 0)
(1.11492 2.10198e-15 0)
(1.1145 -2.60559e-15 0)
(1.11408 1.51695e-15 0)
(1.11365 -3.41817e-15 0)
(1.14487 6.4729e-16 0)
(1.1386 6.68567e-16 0)
(1.1309 -5.06029e-17 0)
(1.12474 2.38843e-16 0)
(1.12266 1.78099e-17 0)
(1.12198 6.7598e-16 0)
(1.12143 2.05053e-15 0)
(1.12107 -1.24389e-15 0)
(1.12076 -1.94552e-16 0)
(1.12042 -4.99795e-17 0)
(1.12005 8.57543e-17 0)
(1.11967 2.06009e-17 0)
(1.11929 1.44631e-15 0)
(1.11891 9.73265e-16 0)
(1.11853 -2.71551e-17 0)
(1.11814 1.82232e-16 0)
(1.11775 2.80631e-16 0)
(1.11736 3.21898e-16 0)
(1.11696 1.98487e-15 0)
(1.11656 4.39511e-16 0)
(1.11616 6.77437e-16 0)
(1.11575 2.20982e-15 0)
(1.11534 -9.85411e-16 0)
(1.11492 2.75136e-15 0)
(1.1145 -2.14117e-15 0)
(1.11408 1.28302e-15 0)
(1.11365 -1.86235e-15 0)
(1.14487 3.32324e-16 0)
(1.1386 5.7445e-16 0)
(1.1309 -3.80853e-16 0)
(1.12474 -1.05052e-16 0)
(1.12266 -7.81229e-16 0)
(1.12198 4.8973e-16 0)
(1.12143 1.36143e-15 0)
(1.12107 -2.77094e-15 0)
(1.12076 -7.48746e-17 0)
(1.12042 -4.83816e-16 0)
(1.12005 -8.7353e-16 0)
(1.11967 1.48951e-16 0)
(1.11929 6.6273e-16 0)
(1.11891 5.8905e-16 0)
(1.11853 -4.83326e-16 0)
(1.11814 -8.58505e-16 0)
(1.11775 4.00953e-16 0)
(1.11736 5.87536e-16 0)
(1.11696 2.18115e-15 0)
(1.11656 3.13242e-16 0)
(1.11616 4.46175e-17 0)
(1.11575 1.80207e-15 0)
(1.11534 -7.16435e-16 0)
(1.11492 2.39278e-15 0)
(1.1145 -5.43046e-16 0)
(1.11408 1.03543e-15 0)
(1.11365 -1.2605e-15 0)
(1.14487 7.27918e-17 0)
(1.1386 9.69989e-16 0)
(1.1309 -4.73634e-16 0)
(1.12474 -2.43028e-16 0)
(1.12266 -1.70398e-15 0)
(1.12198 4.19839e-16 0)
(1.12143 4.47829e-16 0)
(1.12107 -4.27957e-15 0)
(1.12076 -3.40196e-16 0)
(1.12042 -3.15494e-16 0)
(1.12005 -1.79564e-15 0)
(1.11967 7.35052e-16 0)
(1.11929 -2.44416e-16 0)
(1.11891 -1.05877e-15 0)
(1.11853 -8.81587e-16 0)
(1.11814 -1.7846e-15 0)
(1.11775 9.07126e-16 0)
(1.11736 5.97273e-16 0)
(1.11696 2.27595e-15 0)
(1.11656 -6.33798e-17 0)
(1.11616 -1.47976e-16 0)
(1.11575 1.36235e-15 0)
(1.11534 5.114e-16 0)
(1.11492 2.03779e-15 0)
(1.1145 5.03753e-16 0)
(1.11408 9.352e-16 0)
(1.11365 -8.03962e-16 0)
(1.14487 -6.16899e-17 0)
(1.1386 1.13602e-15 0)
(1.1309 1.61852e-16 0)
(1.12474 -9.74671e-17 0)
(1.12266 -2.40876e-15 0)
(1.12198 8.49423e-17 0)
(1.12143 1.52854e-15 0)
(1.12107 -4.0503e-15 0)
(1.12076 -2.34915e-16 0)
(1.12042 -1.75994e-16 0)
(1.12005 -1.38133e-15 0)
(1.11967 4.63287e-16 0)
(1.11929 -1.09234e-15 0)
(1.11891 -1.31308e-15 0)
(1.11853 -4.73749e-16 0)
(1.11814 -1.64658e-15 0)
(1.11775 1.13668e-15 0)
(1.11736 -6.70761e-17 0)
(1.11696 2.38116e-15 0)
(1.11656 2.77067e-16 0)
(1.11616 -3.03722e-16 0)
(1.11575 1.78966e-15 0)
(1.11534 1.6189e-15 0)
(1.11492 2.16839e-15 0)
(1.1145 -6.99427e-17 0)
(1.11408 1.97129e-15 0)
(1.11365 4.38904e-16 0)
(1.14487 -2.41883e-16 0)
(1.1386 3.99311e-16 0)
(1.1309 2.82798e-16 0)
(1.12474 -6.46123e-16 0)
(1.12266 -1.83193e-15 0)
(1.12198 -7.05998e-16 0)
(1.12143 1.90926e-15 0)
(1.12107 -1.91509e-15 0)
(1.12076 -5.6874e-16 0)
(1.12042 -1.22924e-16 0)
(1.12005 -1.05718e-15 0)
(1.11967 -6.23576e-17 0)
(1.11929 -1.11858e-15 0)
(1.11891 -3.32864e-16 0)
(1.11853 -3.96793e-16 0)
(1.11814 -1.76732e-15 0)
(1.11775 9.02993e-16 0)
(1.11736 -5.63004e-16 0)
(1.11696 1.10169e-15 0)
(1.11656 7.77675e-16 0)
(1.11616 1.99207e-18 0)
(1.11575 2.80479e-15 0)
(1.11534 7.30528e-16 0)
(1.11492 2.0165e-15 0)
(1.1145 -5.67681e-16 0)
(1.11408 2.71383e-15 0)
(1.11365 4.41938e-16 0)
(1.14487 5.51822e-17 0)
(1.1386 -9.02419e-17 0)
(1.1309 3.13345e-16 0)
(1.12474 -3.88448e-16 0)
(1.12266 -1.33073e-15 0)
(1.12198 -8.12141e-16 0)
(1.12143 1.09453e-15 0)
(1.12107 -1.26463e-15 0)
(1.12076 8.68872e-16 0)
(1.12042 -1.41368e-16 0)
(1.12005 -1.1966e-15 0)
(1.11967 -7.1989e-16 0)
(1.11929 -2.31888e-16 0)
(1.11891 -3.7822e-16 0)
(1.11853 -1.08236e-15 0)
(1.11814 -1.21543e-15 0)
(1.11775 1.12968e-15 0)
(1.11736 -4.41193e-16 0)
(1.11696 1.45793e-15 0)
(1.11656 2.12077e-16 0)
(1.11616 -4.21446e-16 0)
(1.11575 2.64233e-15 0)
(1.11534 -8.28604e-16 0)
(1.11492 1.57003e-15 0)
(1.1145 -5.12526e-17 0)
(1.11408 2.44378e-15 0)
(1.11365 -3.70405e-16 0)
(1.14487 2.87023e-16 0)
(1.1386 1.81234e-16 0)
(1.1309 4.71859e-16 0)
(1.12474 -4.5006e-16 0)
(1.12266 -1.47086e-15 0)
(1.12198 -8.73577e-16 0)
(1.12143 9.94445e-16 0)
(1.12107 -1.64091e-15 0)
(1.12076 2.73225e-15 0)
(1.12042 1.93175e-16 0)
(1.12005 -1.20601e-15 0)
(1.11967 -1.10015e-15 0)
(1.11929 -7.58948e-16 0)
(1.11891 -7.81971e-16 0)
(1.11853 -1.28666e-15 0)
(1.11814 -7.40272e-16 0)
(1.11775 1.88764e-15 0)
(1.11736 6.11221e-17 0)
(1.11696 2.0154e-15 0)
(1.11656 -6.76047e-16 0)
(1.11616 -5.1361e-16 0)
(1.11575 1.70099e-15 0)
(1.11534 -1.33265e-15 0)
(1.11492 1.24121e-15 0)
(1.1145 2.77366e-16 0)
(1.11408 1.67357e-15 0)
(1.11365 -1.91144e-16 0)
(1.14487 3.8684e-16 0)
(1.1386 4.12142e-16 0)
(1.1309 1.04545e-15 0)
(1.12474 4.71725e-16 0)
(1.12266 -8.6453e-16 0)
(1.12198 -4.54962e-16 0)
(1.12143 1.30228e-15 0)
(1.12107 -9.38444e-16 0)
(1.12076 1.80771e-15 0)
(1.12042 -9.61822e-17 0)
(1.12005 -1.4634e-15 0)
(1.11967 -1.52589e-15 0)
(1.11929 -6.25434e-16 0)
(1.11891 2.29697e-16 0)
(1.11853 -7.69213e-16 0)
(1.11814 -3.01481e-16 0)
(1.11775 1.87171e-15 0)
(1.11736 4.27793e-16 0)
(1.11696 1.96374e-15 0)
(1.11656 -5.73291e-16 0)
(1.11616 -3.72149e-16 0)
(1.11575 1.17151e-15 0)
(1.11534 -5.70928e-16 0)
(1.11492 1.32915e-15 0)
(1.1145 -4.77962e-16 0)
(1.11408 7.91308e-16 0)
(1.11365 -6.298e-16 0)
(1.14487 2.63248e-16 0)
(1.1386 9.34677e-18 0)
(1.1309 5.25183e-16 0)
(1.12474 5.13878e-16 0)
(1.12266 -5.3867e-16 0)
(1.12198 3.70042e-16 0)
(1.12143 5.57255e-16 0)
(1.12107 -9.9882e-17 0)
(1.12076 1.45476e-15 0)
(1.12042 -3.59285e-16 0)
(1.12005 -1.43213e-15 0)
(1.11967 -2.08225e-15 0)
(1.11929 -3.50222e-16 0)
(1.11891 6.91935e-16 0)
(1.11853 3.49674e-16 0)
(1.11814 -7.00713e-16 0)
(1.11775 1.94517e-15 0)
(1.11736 8.31534e-16 0)
(1.11696 1.42439e-15 0)
(1.11656 -9.5493e-16 0)
(1.11616 -1.31113e-15 0)
(1.11575 1.17323e-15 0)
(1.11534 3.9755e-17 0)
(1.11492 1.48739e-15 0)
(1.1145 -1.36948e-15 0)
(1.11408 1.28534e-15 0)
(1.11365 -3.79119e-17 0)
(1.14487 -1.37512e-16 0)
(1.1386 -2.56984e-16 0)
(1.1309 3.82099e-16 0)
(1.12474 8.44879e-16 0)
(1.12266 -3.0199e-16 0)
(1.12198 7.33463e-16 0)
(1.12143 7.13306e-16 0)
(1.12107 -1.40411e-15 0)
(1.12076 1.94995e-15 0)
(1.12042 2.78127e-16 0)
(1.12005 -1.267e-15 0)
(1.11967 -1.92723e-15 0)
(1.11929 -1.56533e-15 0)
(1.11891 1.51821e-16 0)
(1.11853 2.55933e-16 0)
(1.11814 -1.97127e-15 0)
(1.11775 1.84996e-15 0)
(1.11736 -6.02249e-16 0)
(1.11696 1.28658e-15 0)
(1.11656 -1.29866e-15 0)
(1.11616 -8.86034e-16 0)
(1.11575 1.64276e-15 0)
(1.11534 -3.55827e-16 0)
(1.11492 1.82096e-15 0)
(1.1145 -1.79906e-15 0)
(1.11408 1.08849e-15 0)
(1.11365 1.14616e-15 0)
(1.14487 -1.97201e-16 0)
(1.1386 -1.61098e-17 0)
(1.1309 3.55181e-16 0)
(1.12474 1.00931e-15 0)
(1.12266 3.1774e-17 0)
(1.12198 1.12533e-15 0)
(1.12143 1.01441e-15 0)
(1.12107 -1.29657e-15 0)
(1.12076 1.61262e-15 0)
(1.12042 6.42161e-16 0)
(1.12005 -9.79707e-17 0)
(1.11967 -1.07253e-15 0)
(1.11929 -1.48411e-15 0)
(1.11891 8.56082e-18 0)
(1.11853 -2.25425e-16 0)
(1.11814 -2.48285e-15 0)
(1.11775 7.67112e-16 0)
(1.11736 -1.4967e-15 0)
(1.11696 1.5942e-15 0)
(1.11656 -8.80713e-16 0)
(1.11616 -2.18107e-16 0)
(1.11575 1.18169e-15 0)
(1.11534 -1.19469e-15 0)
(1.11492 1.90713e-15 0)
(1.1145 -1.23583e-15 0)
(1.11408 6.80076e-16 0)
(1.11365 1.73853e-15 0)
(1.14487 1.40042e-17 0)
(1.1386 -3.55043e-16 0)
(1.1309 3.19814e-16 0)
(1.12474 1.48528e-15 0)
(1.12266 2.48007e-16 0)
(1.12198 1.24319e-15 0)
(1.12143 8.49145e-16 0)
(1.12107 -1.83244e-15 0)
(1.12076 7.19522e-16 0)
(1.12042 6.72961e-16 0)
(1.12005 -1.19738e-16 0)
(1.11967 -2.3775e-16 0)
(1.11929 -1.50615e-15 0)
(1.11891 -4.57019e-16 0)
(1.11853 4.35147e-16 0)
(1.11814 -2.59608e-15 0)
(1.11775 5.25341e-16 0)
(1.11736 -1.74081e-15 0)
(1.11696 1.18655e-15 0)
(1.11656 -5.97012e-16 0)
(1.11616 -6.82296e-16 0)
(1.11575 6.3893e-16 0)
(1.11534 -1.93318e-15 0)
(1.11492 2.03589e-15 0)
(1.1145 -8.12184e-16 0)
(1.11408 2.37742e-16 0)
(1.11365 1.34941e-15 0)
(1.14487 -9.09447e-17 0)
(1.1386 -7.33638e-16 0)
(1.1309 2.64424e-16 0)
(1.12474 1.49729e-15 0)
(1.12266 5.67961e-16 0)
(1.12198 1.24028e-15 0)
(1.12143 1.34916e-15 0)
(1.12107 -3.19865e-15 0)
(1.12076 5.46964e-16 0)
(1.12042 -5.56581e-17 0)
(1.12005 -6.48943e-16 0)
(1.11967 -7.00877e-16 0)
(1.11929 -1.99532e-15 0)
(1.11891 6.89644e-16 0)
(1.11853 1.26583e-15 0)
(1.11814 -2.70088e-15 0)
(1.11775 7.52709e-16 0)
(1.11736 -1.63205e-15 0)
(1.11696 5.34571e-16 0)
(1.11656 -3.83622e-17 0)
(1.11616 -2.40041e-16 0)
(1.11575 2.46956e-16 0)
(1.11534 -1.83455e-15 0)
(1.11492 2.7585e-15 0)
(1.1145 -1.92281e-15 0)
(1.11408 -3.17509e-16 0)
(1.11365 6.15015e-16 0)
(1.14487 -3.07644e-16 0)
(1.1386 -6.47469e-16 0)
(1.1309 1.1958e-16 0)
(1.12474 1.12304e-15 0)
(1.12266 -8.10849e-17 0)
(1.12198 1.02136e-15 0)
(1.12143 1.80651e-15 0)
(1.12107 -2.50575e-15 0)
(1.12076 9.54473e-16 0)
(1.12042 -5.49656e-16 0)
(1.12005 -6.0959e-16 0)
(1.11967 -8.23149e-17 0)
(1.11929 -2.11964e-15 0)
(1.11891 1.76278e-15 0)
(1.11853 1.20409e-15 0)
(1.11814 -2.47221e-15 0)
(1.11775 1.45087e-15 0)
(1.11736 -1.44932e-15 0)
(1.11696 1.491e-15 0)
(1.11656 3.51611e-16 0)
(1.11616 -2.44309e-17 0)
(1.11575 5.41981e-17 0)
(1.11534 -2.04043e-15 0)
(1.11492 2.81899e-15 0)
(1.1145 -3.0771e-15 0)
(1.11408 -1.40748e-16 0)
(1.11365 7.01391e-16 0)
(1.14487 -2.72264e-16 0)
(1.1386 -1.09057e-16 0)
(1.1309 2.55496e-16 0)
(1.12474 9.52401e-16 0)
(1.12266 -8.97671e-16 0)
(1.12198 1.22131e-15 0)
(1.12143 1.74161e-15 0)
(1.12107 -1.60013e-15 0)
(1.12076 5.42458e-16 0)
(1.12042 -4.12847e-16 0)
(1.12005 -7.0856e-17 0)
(1.11967 4.84137e-16 0)
(1.11929 -1.88372e-15 0)
(1.11891 1.30222e-15 0)
(1.11853 7.74939e-16 0)
(1.11814 -2.23151e-15 0)
(1.11775 1.43418e-15 0)
(1.11736 -1.89207e-15 0)
(1.11696 2.98072e-15 0)
(1.11656 5.06055e-16 0)
(1.11616 -3.60067e-16 0)
(1.11575 2.67199e-16 0)
(1.11534 -2.118e-15 0)
(1.11492 2.77148e-15 0)
(1.1145 -2.73049e-15 0)
(1.11408 3.3314e-16 0)
(1.11365 8.99797e-16 0)
(1.14487 8.96362e-17 0)
(1.1386 1.20933e-16 0)
(1.1309 2.53417e-16 0)
(1.12474 6.35903e-16 0)
(1.12266 -2.91824e-16 0)
(1.12198 1.65321e-15 0)
(1.12143 6.62986e-16 0)
(1.12107 -6.96947e-16 0)
(1.12076 7.27073e-17 0)
(1.12042 -6.04452e-16 0)
(1.12005 -6.0802e-16 0)
(1.11967 9.80768e-16 0)
(1.11929 -1.55366e-15 0)
(1.11891 1.95884e-15 0)
(1.11853 -8.85124e-16 0)
(1.11814 -2.33004e-15 0)
(1.11775 1.153e-15 0)
(1.11736 -1.68409e-15 0)
(1.11696 2.35303e-15 0)
(1.11656 7.49752e-16 0)
(1.11616 -4.82393e-16 0)
(1.11575 2.92083e-16 0)
(1.11534 -2.32196e-15 0)
(1.11492 2.40681e-15 0)
(1.1145 -7.93585e-16 0)
(1.11408 1.9628e-16 0)
(1.11365 9.12684e-16 0)
(1.14487 9.74975e-17 0)
(1.1386 -8.00878e-17 0)
(1.1309 5.67301e-17 0)
(1.12474 2.84759e-16 0)
(1.12266 1.04799e-16 0)
(1.12198 1.80848e-15 0)
(1.12143 -2.49178e-16 0)
(1.12107 1.66038e-16 0)
(1.12076 8.83897e-16 0)
(1.12042 -8.09495e-16 0)
(1.12005 -8.6632e-16 0)
(1.11967 8.91429e-16 0)
(1.11929 -7.92958e-16 0)
(1.11891 2.30297e-15 0)
(1.11853 -1.47645e-15 0)
(1.11814 -2.16669e-15 0)
(1.11775 1.53611e-15 0)
(1.11736 -1.5716e-15 0)
(1.11696 1.19753e-15 0)
(1.11656 5.00147e-16 0)
(1.11616 2.33892e-16 0)
(1.11575 -3.56277e-17 0)
(1.11534 -2.19524e-15 0)
(1.11492 2.14121e-15 0)
(1.1145 -8.10205e-16 0)
(1.11408 2.58646e-16 0)
(1.11365 9.60548e-16 0)
(1.14487 -1.99107e-16 0)
(1.1386 -2.758e-16 0)
(1.1309 -2.12898e-17 0)
(1.12474 9.52281e-18 0)
(1.12266 -7.42663e-16 0)
(1.12198 1.6437e-15 0)
(1.12143 -1.74839e-16 0)
(1.12107 1.18548e-15 0)
(1.12076 1.91868e-15 0)
(1.12042 -1.1829e-15 0)
(1.12005 -5.39168e-16 0)
(1.11967 9.27355e-16 0)
(1.11929 -1.30763e-15 0)
(1.11891 1.21492e-15 0)
(1.11853 -1.8323e-15 0)
(1.11814 -1.58784e-15 0)
(1.11775 2.47294e-15 0)
(1.11736 -2.41953e-15 0)
(1.11696 1.0762e-15 0)
(1.11656 2.20705e-16 0)
(1.11616 4.68701e-16 0)
(1.11575 2.83426e-16 0)
(1.11534 -1.18432e-15 0)
(1.11492 1.88622e-15 0)
(1.1145 -9.71431e-16 0)
(1.11408 3.90259e-16 0)
(1.11365 -2.68709e-16 0)
(1.14487 -2.84776e-17 0)
(1.1386 -3.2598e-18 0)
(1.1309 2.593e-16 0)
(1.12474 -2.04735e-16 0)
(1.12266 -1.50298e-15 0)
(1.12198 1.45914e-15 0)
(1.12143 -1.83734e-17 0)
(1.12107 5.90712e-16 0)
(1.12076 5.85608e-16 0)
(1.12042 -1.02604e-15 0)
(1.12005 1.92732e-16 0)
(1.11967 6.88005e-16 0)
(1.11929 -2.00422e-15 0)
(1.11891 6.60633e-16 0)
(1.11853 -1.52757e-15 0)
(1.11814 -1.45269e-15 0)
(1.11775 3.10408e-15 0)
(1.11736 -3.01147e-15 0)
(1.11696 1.49299e-15 0)
(1.11656 -2.90941e-16 0)
(1.11616 -5.10311e-16 0)
(1.11575 9.42684e-16 0)
(1.11534 -3.55692e-16 0)
(1.11492 1.89631e-15 0)
(1.1145 -1.40259e-15 0)
(1.11408 1.27573e-17 0)
(1.11365 -4.65396e-16 0)
(1.14487 3.36073e-16 0)
(1.1386 7.53541e-16 0)
(1.1309 7.11646e-16 0)
(1.12474 -3.04726e-16 0)
(1.12266 -9.4843e-16 0)
(1.12198 2.2002e-15 0)
(1.12143 -2.45754e-16 0)
(1.12107 2.63234e-19 0)
(1.12076 -2.23782e-16 0)
(1.12042 -4.57453e-16 0)
(1.12005 1.41441e-16 0)
(1.11967 4.37217e-17 0)
(1.11929 -2.70824e-15 0)
(1.11891 5.21809e-16 0)
(1.11853 -1.42395e-15 0)
(1.11814 -4.46475e-16 0)
(1.11775 3.5631e-15 0)
(1.11736 -2.45339e-15 0)
(1.11696 1.87651e-15 0)
(1.11656 -7.31482e-16 0)
(1.11616 -1.49758e-15 0)
(1.11575 1.06769e-15 0)
(1.11534 -2.70745e-16 0)
(1.11492 1.92875e-15 0)
(1.1145 -1.11327e-15 0)
(1.11408 1.78751e-16 0)
(1.11365 2.04574e-16 0)
(1.14487 2.24313e-16 0)
(1.1386 5.02703e-16 0)
(1.1309 4.26467e-16 0)
(1.12474 6.97967e-17 0)
(1.12266 -9.41956e-16 0)
(1.12198 1.7137e-15 0)
(1.12143 2.53636e-16 0)
(1.12107 6.27973e-17 0)
(1.12076 -5.44538e-16 0)
(1.12042 -1.03755e-15 0)
(1.12005 6.72641e-16 0)
(1.11967 6.3417e-16 0)
(1.11929 -2.43162e-15 0)
(1.11891 3.52462e-16 0)
(1.11853 -2.06612e-15 0)
(1.11814 5.27953e-16 0)
(1.11775 3.74783e-15 0)
(1.11736 -2.70104e-15 0)
(1.11696 1.85039e-15 0)
(1.11656 -1.24226e-15 0)
(1.11616 -7.30977e-16 0)
(1.11575 7.44122e-16 0)
(1.11534 1.99222e-16 0)
(1.11492 1.39732e-15 0)
(1.1145 1.967e-16 0)
(1.11408 5.16322e-17 0)
(1.11365 1.4486e-15 0)
(1.14487 -8.55397e-17 0)
(1.1386 1.31494e-16 0)
(1.1309 -5.11563e-17 0)
(1.12474 -3.14937e-16 0)
(1.12266 -7.96195e-16 0)
(1.12198 1.71311e-15 0)
(1.12143 -1.57582e-16 0)
(1.12107 -5.03468e-16 0)
(1.12076 9.09086e-16 0)
(1.12042 -1.87113e-15 0)
(1.12005 1.09944e-15 0)
(1.11967 1.57909e-15 0)
(1.11929 -1.57195e-15 0)
(1.11891 9.97657e-17 0)
(1.11853 -1.51016e-15 0)
(1.11814 1.08012e-15 0)
(1.11775 3.54792e-15 0)
(1.11736 -2.8046e-15 0)
(1.11696 1.41188e-15 0)
(1.11656 -2.12674e-15 0)
(1.11616 6.44197e-16 0)
(1.11575 5.91295e-16 0)
(1.11534 1.57383e-16 0)
(1.11492 2.10506e-15 0)
(1.1145 1.17246e-15 0)
(1.11408 1.33115e-15 0)
(1.11365 2.35296e-15 0)
(1.14487 -5.19254e-16 0)
(1.1386 -5.16305e-17 0)
(1.1309 1.06445e-16 0)
(1.12474 -1.2099e-16 0)
(1.12266 -1.78436e-15 0)
(1.12198 1.36244e-15 0)
(1.12143 -5.70296e-16 0)
(1.12107 4.17156e-16 0)
(1.12076 1.8495e-15 0)
(1.12042 -1.86357e-15 0)
(1.12005 5.2552e-16 0)
(1.11967 1.24096e-15 0)
(1.11929 -1.47252e-15 0)
(1.11891 -3.67963e-16 0)
(1.11853 -1.39736e-15 0)
(1.11814 9.3835e-16 0)
(1.11775 3.15716e-15 0)
(1.11736 -2.26335e-15 0)
(1.11696 5.68693e-16 0)
(1.11656 -2.56041e-15 0)
(1.11616 -1.17506e-16 0)
(1.11575 9.94862e-16 0)
(1.11534 -7.9899e-16 0)
(1.11492 2.5447e-15 0)
(1.1145 1.35808e-15 0)
(1.11408 1.7587e-15 0)
(1.11365 1.47016e-15 0)
(1.14487 3.50813e-17 0)
(1.1386 1.09289e-17 0)
(1.1309 2.6767e-16 0)
(1.12474 6.88329e-16 0)
(1.12266 -2.8488e-15 0)
(1.12198 1.14204e-15 0)
(1.12143 -5.52425e-16 0)
(1.12107 1.08986e-15 0)
(1.12076 2.45226e-15 0)
(1.12042 -1.3306e-15 0)
(1.12005 1.47285e-16 0)
(1.11967 9.46377e-16 0)
(1.11929 -1.43265e-15 0)
(1.11891 4.40803e-16 0)
(1.11853 -8.54208e-16 0)
(1.11814 1.78323e-15 0)
(1.11775 3.21575e-15 0)
(1.11736 -2.65579e-15 0)
(1.11696 -1.08504e-16 0)
(1.11656 -2.60543e-15 0)
(1.11616 -4.14944e-17 0)
(1.11575 2.7506e-16 0)
(1.11534 -1.83364e-15 0)
(1.11492 2.22817e-15 0)
(1.1145 4.25816e-16 0)
(1.11408 1.42163e-15 0)
(1.11365 1.87137e-15 0)
(1.14487 4.87381e-16 0)
(1.1386 1.5279e-16 0)
(1.1309 1.36434e-16 0)
(1.12474 9.39328e-16 0)
(1.12266 -2.03633e-15 0)
(1.12198 1.09825e-15 0)
(1.12143 -7.43867e-16 0)
(1.12107 -8.38173e-17 0)
(1.12076 1.77283e-15 0)
(1.12042 -4.61126e-16 0)
(1.12005 4.0083e-16 0)
(1.11967 1.21853e-15 0)
(1.11929 -1.10106e-15 0)
(1.11891 1.35369e-15 0)
(1.11853 -3.83489e-16 0)
(1.11814 1.97635e-15 0)
(1.11775 2.76836e-15 0)
(1.11736 -2.71235e-15 0)
(1.11696 -1.26439e-15 0)
(1.11656 -1.64083e-15 0)
(1.11616 -1.94853e-16 0)
(1.11575 -8.0524e-16 0)
(1.11534 -1.84643e-15 0)
(1.11492 1.18155e-15 0)
(1.1145 -5.46813e-17 0)
(1.11408 1.45788e-15 0)
(1.11365 2.60621e-15 0)
(1.14487 9.70411e-17 0)
(1.1386 -2.4833e-17 0)
(1.1309 1.32184e-16 0)
(1.12474 1.16674e-15 0)
(1.12266 -1.42631e-15 0)
(1.12198 9.36719e-16 0)
(1.12143 -1.19014e-15 0)
(1.12107 -7.28563e-16 0)
(1.12076 8.59181e-16 0)
(1.12042 -8.01822e-16 0)
(1.12005 8.4988e-16 0)
(1.11967 1.03374e-15 0)
(1.11929 -9.23179e-16 0)
(1.11891 2.18459e-15 0)
(1.11853 -7.08503e-16 0)
(1.11814 1.34274e-15 0)
(1.11775 2.61661e-15 0)
(1.11736 -2.55586e-15 0)
(1.11696 -1.00627e-15 0)
(1.11656 -1.35192e-15 0)
(1.11616 -6.97829e-16 0)
(1.11575 -1.51845e-15 0)
(1.11534 -2.48897e-15 0)
(1.11492 4.95846e-16 0)
(1.1145 2.28192e-16 0)
(1.11408 1.72185e-15 0)
(1.11365 2.36479e-15 0)
(1.14487 -2.70255e-17 0)
(1.1386 -3.08818e-16 0)
(1.1309 6.92677e-17 0)
(1.12474 8.60612e-16 0)
(1.12266 -9.76632e-16 0)
(1.12198 6.19121e-16 0)
(1.12143 -1.40999e-15 0)
(1.12107 2.94544e-16 0)
(1.12076 6.56479e-16 0)
(1.12042 -1.48267e-15 0)
(1.12005 1.00438e-15 0)
(1.11967 1.35264e-15 0)
(1.11929 -2.15026e-16 0)
(1.11891 2.56975e-15 0)
(1.11853 -2.022e-15 0)
(1.11814 1.59987e-15 0)
(1.11775 2.53054e-15 0)
(1.11736 -2.49229e-15 0)
(1.11696 -6.52536e-16 0)
(1.11656 -4.65461e-16 0)
(1.11616 6.05786e-16 0)
(1.11575 -1.85384e-15 0)
(1.11534 -2.08831e-15 0)
(1.11492 1.13321e-15 0)
(1.1145 -4.19037e-16 0)
(1.11408 1.33508e-15 0)
(1.11365 2.01065e-15 0)
(1.14487 6.47885e-17 0)
(1.1386 1.52231e-16 0)
(1.1309 1.68124e-16 0)
(1.12474 6.14012e-16 0)
(1.12266 -7.92096e-16 0)
(1.12198 1.74514e-16 0)
(1.12143 -8.84918e-16 0)
(1.12107 1.23256e-16 0)
(1.12076 5.42459e-16 0)
(1.12042 -1.49618e-15 0)
(1.12005 1.31274e-15 0)
(1.11967 9.20083e-16 0)
(1.11929 -2.59391e-16 0)
(1.11891 1.73156e-15 0)
(1.11853 -2.52255e-15 0)
(1.11814 1.41784e-15 0)
(1.11775 3.16347e-15 0)
(1.11736 -1.95714e-15 0)
(1.11696 -9.10165e-16 0)
(1.11656 -7.51812e-16 0)
(1.11616 1.09044e-15 0)
(1.11575 -1.97581e-15 0)
(1.11534 -1.35583e-15 0)
(1.11492 1.92433e-15 0)
(1.1145 -4.5035e-16 0)
(1.11408 6.63509e-16 0)
(1.11365 2.25621e-15 0)
(1.14487 2.41617e-16 0)
(1.1386 2.57039e-16 0)
(1.1309 1.67165e-16 0)
(1.12474 9.10162e-16 0)
(1.12266 -3.73868e-16 0)
(1.12198 4.35765e-16 0)
(1.12143 -6.08108e-16 0)
(1.12107 1.13754e-16 0)
(1.12076 4.38803e-16 0)
(1.12042 -1.41157e-15 0)
(1.12005 1.69888e-15 0)
(1.11967 1.71594e-16 0)
(1.11929 -3.08493e-16 0)
(1.11891 2.37218e-15 0)
(1.11853 -2.06105e-15 0)
(1.11814 1.17179e-15 0)
(1.11775 2.15618e-15 0)
(1.11736 -1.39613e-15 0)
(1.11696 -2.5116e-15 0)
(1.11656 -1.17618e-15 0)
(1.11616 1.02587e-15 0)
(1.11575 -1.73264e-15 0)
(1.11534 -9.72266e-16 0)
(1.11492 2.4688e-15 0)
(1.1145 -3.99142e-16 0)
(1.11408 1.23986e-16 0)
(1.11365 2.87616e-15 0)
(1.14487 1.53843e-16 0)
(1.1386 -8.01233e-17 0)
(1.1309 -7.02871e-18 0)
(1.12474 8.60059e-16 0)
(1.12266 1.96506e-16 0)
(1.12198 8.53017e-16 0)
(1.12143 -7.28449e-16 0)
(1.12107 1.25965e-15 0)
(1.12076 7.59444e-16 0)
(1.12042 -1.32794e-15 0)
(1.12005 1.88202e-15 0)
(1.11967 -1.68842e-16 0)
(1.11929 1.44439e-16 0)
(1.11891 1.46761e-15 0)
(1.11853 -1.52632e-15 0)
(1.11814 8.57458e-16 0)
(1.11775 9.42768e-16 0)
(1.11736 -1.52082e-16 0)
(1.11696 -3.24898e-15 0)
(1.11656 -1.66161e-15 0)
(1.11616 2.05051e-15 0)
(1.11575 -1.53922e-15 0)
(1.11534 -1.1395e-15 0)
(1.11492 2.65513e-15 0)
(1.1145 -7.52755e-16 0)
(1.11408 -4.87671e-16 0)
(1.11365 2.93211e-15 0)
(1.14487 9.92777e-17 0)
(1.1386 -4.30963e-16 0)
(1.1309 2.74392e-17 0)
(1.12474 8.61068e-16 0)
(1.12266 -9.87047e-16 0)
(1.12198 3.98596e-16 0)
(1.12143 -2.32486e-16 0)
(1.12107 7.57124e-16 0)
(1.12076 9.19733e-16 0)
(1.12042 -1.27797e-15 0)
(1.12005 2.17538e-15 0)
(1.11967 -1.02436e-15 0)
(1.11929 1.36685e-15 0)
(1.11891 2.64199e-16 0)
(1.11853 -1.04606e-15 0)
(1.11814 9.90382e-16 0)
(1.11775 -5.96453e-16 0)
(1.11736 5.31431e-17 0)
(1.11696 -2.1807e-15 0)
(1.11656 -9.36504e-16 0)
(1.11616 1.4803e-15 0)
(1.11575 -1.91428e-15 0)
(1.11534 -1.19569e-15 0)
(1.11492 3.57371e-15 0)
(1.1145 -1.00991e-15 0)
(1.11408 -9.76854e-16 0)
(1.11365 2.56198e-15 0)
(1.14487 1.87033e-16 0)
(1.1386 -6.27632e-17 0)
(1.1309 1.64328e-16 0)
(1.12474 8.8864e-16 0)
(1.12266 -2.43041e-15 0)
(1.12198 -8.24154e-18 0)
(1.12143 -1.40637e-16 0)
(1.12107 -7.9574e-16 0)
(1.12076 -3.06058e-16 0)
(1.12042 -1.12274e-15 0)
(1.12005 2.47693e-15 0)
(1.11967 -1.00165e-15 0)
(1.11929 2.10823e-15 0)
(1.11891 8.76495e-16 0)
(1.11853 -8.9128e-16 0)
(1.11814 7.24766e-16 0)
(1.11775 -1.52015e-15 0)
(1.11736 1.10464e-16 0)
(1.11696 -8.07298e-16 0)
(1.11656 -8.16675e-18 0)
(1.11616 4.01671e-16 0)
(1.11575 -2.27325e-15 0)
(1.11534 -6.2508e-16 0)
(1.11492 3.47089e-15 0)
(1.1145 -1.55258e-15 0)
(1.11408 -1.05225e-15 0)
(1.11365 2.60062e-15 0)
(1.14487 2.33584e-16 0)
(1.1386 5.0944e-16 0)
(1.1309 2.876e-16 0)
(1.12474 1.17975e-16 0)
(1.12266 -1.62611e-15 0)
(1.12198 -2.226e-18 0)
(1.12143 -5.97549e-16 0)
(1.12107 -1.36785e-15 0)
(1.12076 -1.19865e-15 0)
(1.12042 -7.61732e-16 0)
(1.12005 3.0982e-15 0)
(1.11967 -6.35873e-16 0)
(1.11929 1.83449e-15 0)
(1.11891 4.50464e-16 0)
(1.11853 -1.38478e-15 0)
(1.11814 1.0809e-15 0)
(1.11775 -1.30892e-15 0)
(1.11736 5.1582e-16 0)
(1.11696 -9.1685e-16 0)
(1.11656 6.06977e-16 0)
(1.11616 -2.30621e-16 0)
(1.11575 -2.33818e-15 0)
(1.11534 -9.65792e-16 0)
(1.11492 2.73837e-15 0)
(1.1145 -1.40431e-15 0)
(1.11408 -5.43218e-16 0)
(1.11365 3.10827e-15 0)
(1.14487 1.62951e-16 0)
(1.1386 2.59369e-16 0)
(1.1309 1.80412e-16 0)
(1.12474 -3.00042e-16 0)
(1.12266 -1.51649e-15 0)
(1.12198 5.81197e-16 0)
(1.12143 -1.01618e-15 0)
(1.12107 -1.22968e-15 0)