/*--------------------------------*- C++ -*----------------------------------*\
  =========                 |
  \\      /  F ield         | OpenFOAM: The Open Source CFD Toolbox
   \\    /   O peration     | Website:  https://openfoam.org
    \\  /    A nd           | Version:  8
     \\/     M anipulation  |
\*---------------------------------------------------------------------------*/
FoamFile
{
    version     2.0;
    format      ascii;
    class       volScalarField;
    location    "3.6";
    object      rho;
}
// * * * * * * * * * * * * * * * * * * * * * * * * * * * * * * * * * * * * * //

dimensions      [1 -3 0 0 0 0 0];

internalField   nonuniform List<scalar> 
2600
(
1.18943
1.16509
1.2217
1.35712
1.88839
2.20629
2.36535
2.35659
2.34888
2.23528
1.16073
1.11344
1.16844
1.36266
1.90491
2.2098
2.34904
2.36681
2.33203
2.22606
1.15845
1.10025
1.14327
1.36229
1.90387
2.19408
2.26585
2.31052
2.31676
2.22593
1.16167
1.09762
1.14258
1.33819
1.88072
2.14703
2.15625
2.19953
2.29114
2.22759
1.16287
1.09516
1.13287
1.30321
1.83503
2.08769
2.0834
2.12892
2.2435
2.20285
1.16033
1.08084
1.09057
1.27328
1.77491
2.01388
2.03116
2.07875
2.19427
2.15548
1.15031
1.06315
1.04945
1.2317
1.7253
1.95243
1.99769
2.04158
2.14869
2.11263
1.14353
1.04793
1.02565
1.18656
1.64248
1.88277
1.99476
2.0388
2.1102
2.05697
1.13678
1.04153
1.03059
1.166
1.58811
1.84319
1.97329
2.03635
2.06146
2.00555
1.13116
1.03911
1.0438
1.1838
1.53537
1.79739
1.99975
2.04835
2.04289
1.96932
1.12696
1.03778
1.05273
1.22531
1.52442
1.76634
2.02232
2.06475
2.02911
1.95575
1.12057
1.02431
1.06811
1.25762
1.52354
1.76318
2.0936
2.11616
2.04355
1.94384
1.11227
1.01121
1.07967
1.30197
1.56175
1.7835
2.16532
2.18201
2.058
1.94766
1.10306
0.998471
1.1017
1.32706
1.58294
1.80845
2.24333
2.26483
2.1046
1.96414
1.09502
0.995618
1.13566
1.3618
1.60515
1.85587
2.29215
2.339
2.15232
2.00499
1.0869
1.00105
1.17248
1.41064
1.65023
1.92044
2.31309
2.37681
2.2224
2.06258
1.08454
1.01514
1.20829
1.48542
1.70924
1.99206
2.34031
2.39735
2.26998
2.12726
1.0882
1.03923
1.25639
1.55123
1.77823
2.04956
2.36591
2.4192
2.30732
2.16214
1.10003
1.0947
1.31265
1.62959
1.87579
2.08738
2.37089
2.42266
2.3525
2.20811
1.1111
1.16777
1.35178
1.69518
1.91019
2.12275
2.37226
2.41579
2.36045
2.23556
1.3495
1.24589
1.38969
1.71022
1.89954
2.14642
2.37776
2.40655
2.34699
2.23464
1.64339
1.31945
1.44333
1.71405
1.87821
2.14834
2.38164
2.40099
2.34271
2.22791
1.91254
1.41629
1.50502
1.72078
1.8576
2.12856
2.37422
2.40183
2.34684
2.228
2.12238
1.54729
1.55899
1.71903
1.83641
2.09233
2.35415
2.40097
2.34861
2.22935
2.29561
1.68539
1.6043
1.71122
1.81048
2.04658
2.32621
2.39244
2.34377
2.22674
2.42787
1.81999
1.6485
1.70653
1.78012
2.00275
2.30551
2.38338
2.33958
2.22122
2.53003
1.94404
1.68631
1.70674
1.75087
1.96231
2.28479
2.37871
2.34206
2.21537
2.6104
2.05142
1.74408
1.71435
1.72755
1.90872
2.25669
2.3728
2.34472
2.21348
2.68017
2.14067
1.82104
1.73523
1.71193
1.84375
2.21788
2.36562
2.34319
2.21024
2.74464
2.22008
1.88756
1.77847
1.70089
1.78519
2.16423
2.35133
2.33869
2.2059
2.80473
2.29443
1.95515
1.82046
1.70844
1.75098
2.09984
2.32779
2.331
2.19943
2.86026
2.36506
2.02343
1.85416
1.71961
1.74144
2.03311
2.29688
2.32236
2.19241
2.9121
2.43134
2.09372
1.88998
1.734
1.74034
1.97052
2.26346
2.31426
2.18671
2.96171
2.49513
2.1577
1.93562
1.75371
1.73932
1.91412
2.22769
2.3064
2.18201
3.00974
2.55952
2.21583
1.98301
1.78109
1.73716
1.86393
2.19558
2.29914
2.17618
3.05722
2.62264
2.27418
2.02732
1.81781
1.73176
1.81907
2.16046
2.29043
2.16876
3.10464
2.68338
2.33361
2.07296
1.85569
1.73118
1.78267
2.11972
2.28303
2.16019
3.15203
2.74338
2.39172
2.123
1.89124
1.73773
1.75776
2.07115
2.27345
2.1519
3.1977
2.80283
2.44932
2.17349
1.9281
1.75308
1.73921
2.01466
2.26016
2.14335
3.24019
2.86131
2.50761
2.22162
1.97094
1.77266
1.73644
1.95591
2.2405
2.13474
4.18195
4.02715
3.92169
3.82217
3.73219
3.65099
3.564
3.46409
3.3062
3.10674
3.97242
3.83426
3.77883
3.71392
3.65481
3.58969
3.50931
3.40215
3.23489
2.99477
3.92721
3.84306
3.81197
3.76417
3.71664
3.65367
3.56983
3.455
3.28204
3.05996
3.87635
3.8266
3.81518
3.78252
3.74316
3.68131
3.59699
3.47862
3.3044
3.07672
3.89393
3.8578
3.84647
3.80745
3.76533
3.70047
3.61631
3.4957
3.32468
3.08636
3.91826
3.87962
3.85562
3.80774
3.76351
3.6956
3.61281
3.49298
3.32916
3.09113
3.88678
3.85403
3.83052
3.78555
3.74359
3.67615
3.59706
3.4794
3.32427
3.10018
3.84264
3.81673
3.79865
3.75983
3.72045
3.6546
3.57928
3.46677
3.32093
3.1145
3.81004
3.78651
3.76999
3.73469
3.69834
3.63638
3.56598
3.45884
3.32196
3.13399
3.79129
3.76916
3.75361
3.72086
3.68608
3.62694
3.5597
3.45732
3.32966
3.15916
3.78039
3.75998
3.74537
3.71456
3.68116
3.62392
3.5597
3.46305
3.34345
3.18702
3.77556
3.75653
3.74245
3.71347
3.6815
3.62645
3.56513
3.47436
3.36153
3.21666
3.77606
3.75807
3.74448
3.717
3.6861
3.6341
3.57486
3.48887
3.38186
3.24693
3.78172
3.76492
3.75204
3.72544
3.69445
3.64473
3.58723
3.50564
3.40405
3.27757
3.79168
3.77542
3.76178
3.73677
3.70565
3.65843
3.60223
3.52431
3.42711
3.30783
3.80564
3.7895
3.77468
3.75045
3.71964
3.67463
3.6193
3.54473
3.45169
3.33856
3.82141
3.80558
3.79116
3.76701
3.73617
3.69272
3.63803
3.56655
3.47733
3.36952
3.83635
3.82149
3.8079
3.78415
3.75309
3.71117
3.65795
3.58985
3.50462
3.40142
3.84717
3.83445
3.82405
3.80265
3.77321
3.73239
3.67958
3.61403
3.53288
3.43361
3.85329
3.84334
3.83685
3.81681
3.78987
3.75254
3.70195
3.63748
3.55953
3.464
1.40269
1.40842
1.41479
1.42197
1.42999
1.43904
1.45006
1.45886
2.10626
3.42111
1.40269
1.40842
1.41479
1.42197
1.42999
1.43904
1.45006
1.45892
2.1004
3.42174
1.40269
1.40842
1.41479
1.42196
1.42999
1.43903
1.45006
1.45896
2.08598
3.43332
1.40269
1.40842
1.4148
1.42196
1.43
1.43902
1.45006
1.45899
2.06651
3.4323
1.40269
1.40842
1.4148
1.42196
1.43
1.43902
1.45006
1.45897
2.04049
3.42153
1.40269
1.40842
1.4148
1.42196
1.43
1.43901
1.45007
1.45889
2.01127
3.40599
1.40269
1.40842
1.4148
1.42196
1.43
1.439
1.45008
1.45883
1.9837
3.3905
1.40269
1.40842
1.4148
1.42196
1.43001
1.43899
1.4501
1.45878
1.95703
3.38326
1.40269
1.40842
1.4148
1.42196
1.43001
1.43899
1.45012
1.45876
1.92871
3.38235
1.40269
1.40842
1.4148
1.42195
1.43001
1.43898
1.45013
1.45875
1.8991
3.38336
1.40269
1.40842
1.4148
1.42195
1.43001
1.43897
1.45015
1.45874
1.86911
3.38228
1.40269
1.40842
1.4148
1.42195
1.43002
1.43897
1.45016
1.45874
1.83965
3.37751
1.40269
1.40842
1.4148
1.42195
1.43002
1.43896
1.45017
1.45875
1.80945
3.37046
1.40269
1.40842
1.4148
1.42195
1.43002
1.43896
1.45018
1.45875
1.77698
3.36291
1.40269
1.40842
1.4148
1.42195
1.43002
1.43896
1.45018
1.45876
1.74383
3.35323
1.40269
1.40842
1.4148
1.42195
1.43002
1.43896
1.45018
1.45878
1.7113
3.34065
1.40269
1.40842
1.4148
1.42195
1.43002
1.43896
1.45018
1.4588
1.68005
3.32047
1.40269
1.40842
1.4148
1.42195
1.43002
1.43896
1.45017
1.45884
1.64731
3.29107
1.40269
1.40842
1.4148
1.42195
1.43002
1.43896
1.45016
1.45889
1.61132
3.25131
1.40269
1.40842
1.4148
1.42195
1.43002
1.43897
1.45014
1.45898
1.57518
3.20229
1.40269
1.40842
1.4148
1.42195
1.43002
1.43897
1.45014
1.45898
1.57507
3.20241
1.40269
1.40842
1.4148
1.42195
1.43002
1.43896
1.45016
1.45889
1.61121
3.25148
1.40269
1.40842
1.4148
1.42195
1.43002
1.43896
1.45017
1.45884
1.64721
3.29127
1.40269
1.40842
1.4148
1.42195
1.43002
1.43896
1.45018
1.4588
1.67997
3.32069
1.40269
1.40842
1.4148
1.42195
1.43002
1.43896
1.45018
1.45878
1.71122
3.34088
1.40269
1.40842
1.4148
1.42195
1.43002
1.43896
1.45018
1.45876
1.74376
3.35346
1.40269
1.40842
1.4148
1.42195
1.43002
1.43896
1.45018
1.45875
1.7769
3.36312
1.40269
1.40842
1.4148
1.42195
1.43002
1.43896
1.45017
1.45875
1.80938
3.37065
1.40269
1.40842
1.4148
1.42195
1.43002
1.43897
1.45016
1.45874
1.83958
3.37767
1.40269
1.40842
1.4148
1.42195
1.43001
1.43897
1.45015
1.45874
1.86905
3.38239
1.40269
1.40842
1.4148
1.42195
1.43001
1.43898
1.45013
1.45875
1.89907
3.38343
1.40269
1.40842
1.4148
1.42196
1.43001
1.43899
1.45012
1.45876
1.92871
3.38241
1.40269
1.40842
1.4148
1.42196
1.43001
1.43899
1.4501
1.45878
1.95706
3.38335
1.40269
1.40842
1.4148
1.42196
1.43
1.439
1.45008
1.45883
1.98375
3.39061
1.40269
1.40842
1.4148
1.42196
1.43
1.43901
1.45007
1.45889
2.01133
3.40609
1.40269
1.40842
1.4148
1.42196
1.43
1.43902
1.45006
1.45897
2.04057
3.4216
1.40269
1.40842
1.4148
1.42196
1.43
1.43902
1.45006
1.45899
2.06659
3.43231
1.40269
1.40842
1.41479
1.42196
1.42999
1.43903
1.45006
1.45896
2.08605
3.43329
1.40269
1.40842
1.41479
1.42197
1.42999
1.43904
1.45006
1.45891
2.10046
3.42169
1.40269
1.40842
1.41479
1.42197
1.42999
1.43904
1.45006
1.45889
2.1063
3.42109
3.85422
3.84425
3.83769
3.81742
3.79015
3.75235
3.70106
3.6359
3.55718
3.46112
3.84804
3.83518
3.82466
3.80301
3.77317
3.73183
3.67833
3.61218
3.53037
3.43078
3.83717
3.82211
3.80833
3.78425
3.75268
3.7102
3.65636
3.58782
3.50202
3.39866
3.82214
3.80607
3.79138
3.76683
3.73541
3.69143
3.63618
3.56441
3.47465
3.36682
3.80624
3.78976
3.77468
3.74998
3.71865
3.67319
3.61731
3.54253
3.44897
3.33593
3.79213
3.77547
3.7616
3.73603
3.70441
3.65686
3.60014
3.52209
3.42439
3.30528
3.78196
3.76484
3.75173
3.72459
3.69307
3.64305
3.58506
3.50338
3.40141
3.2752
3.77612
3.75773
3.74389
3.716
3.68467
3.63234
3.57267
3.48659
3.37931
3.24483
3.77544
3.75602
3.74169
3.71238
3.68002
3.62465
3.56293
3.47209
3.35905
3.21499
3.78011
3.75939
3.74456
3.7134
3.67962
3.62209
3.55747
3.46085
3.34108
3.18625
3.79082
3.76842
3.75268
3.71962
3.68453
3.6251
3.55751
3.4552
3.32755
3.1596
3.80948
3.78568
3.769
3.73344
3.69682
3.6346
3.56385
3.45692
3.32038
3.1355
3.84207
3.81587
3.79764
3.75862
3.71901
3.65293
3.57726
3.46506
3.3199
3.1169
3.88618
3.85316
3.82951
3.78437
3.74218
3.67455
3.59521
3.47786
3.32383
3.10333
3.91766
3.87874
3.85458
3.80651
3.76209
3.69404
3.61112
3.49156
3.32894
3.09593
3.89335
3.85694
3.84541
3.80611
3.7638
3.69885
3.61472
3.49443
3.32447
3.09265
3.87577
3.82581
3.81415
3.78117
3.74162
3.6797
3.5955
3.47743
3.30467
3.08343
3.92667
3.84234
3.81107
3.76303
3.71539
3.65234
3.56857
3.45431
3.28311
3.0675
3.97202
3.83368
3.77811
3.713
3.65374
3.5885
3.50816
3.4016
3.23599
3.00579
4.18173
4.02676
3.92115
3.82145
3.73131
3.64998
3.56293
3.46355
3.30702
3.11582
3.23723
2.86139
2.50675
2.20529
1.95378
1.80502
1.79951
2.04742
2.26069
2.162
3.19503
2.80364
2.44955
2.15037
1.90842
1.79428
1.81621
2.09892
2.27375
2.17043
3.14979
2.74579
2.3903
2.09393
1.86715
1.78451
1.83784
2.14567
2.28216
2.17669
3.10338
2.68745
2.33045
2.03817
1.82827
1.77563
1.87057
2.18649
2.28656
2.18289
3.05711
2.63033
2.27123
1.98411
1.78602
1.76901
1.91565
2.2239
2.29014
2.18528
3.0106
2.57234
2.21338
1.92629
1.75211
1.76576
1.97205
2.25789
2.29349
2.19005
2.96299
2.51316
2.15334
1.86231
1.72952
1.76719
2.03279
2.28945
2.29748
2.19556
2.91421
2.45285
2.08616
1.80283
1.71437
1.79061
2.08913
2.317
2.3038
2.20123
2.86425
2.38822
2.01624
1.75075
1.69725
1.82313
2.13649
2.33876
2.31434
2.2069
2.81222
2.31944
1.9498
1.70224
1.67724
1.86585
2.18061
2.35904
2.3242
2.21093
2.75571
2.24725
1.88757
1.64925
1.66254
1.91547
2.22508
2.37717
2.33271
2.21152
2.69294
2.17317
1.82509
1.59891
1.64892
1.96436
2.26514
2.38961
2.34003
2.21408
2.62223
2.09253
1.75213
1.56563
1.64281
2.01129
2.29351
2.39458
2.34554
2.21964
2.54046
1.99865
1.67871
1.54329
1.6463
2.05517
2.31209
2.39622
2.35007
2.22538
2.43837
1.88747
1.62059
1.52316
1.65723
2.09744
2.32935
2.39376
2.34732
2.22643
2.30786
1.77049
1.56081
1.49803
1.6748
2.13888
2.3527
2.3933
2.34502
2.22175
2.14039
1.64888
1.49277
1.45992
1.70001
2.17657
2.37941
2.39775
2.34547
2.22247
1.94189
1.53104
1.42058
1.41736
1.74076
2.20444
2.39655
2.40094
2.35024
2.22936
1.67996
1.4142
1.35777
1.38472
1.79293
2.21351
2.39492
2.39299
2.35711
2.23949
1.41548
1.27632
1.29218
1.35997
1.84771
2.20735
2.38001
2.36736
2.35854
2.24421
3.36745
3.20588
3.11894
3.01716
2.81167
2.5539
2.2872
2.0366
1.72363
1.42871
3.3636
3.2028
3.11477
3.01354
2.80759
2.54942
2.28318
2.03094
1.72016
1.43298
3.35663
3.19858
3.11357
3.00874
2.80003
2.54202
2.27669
2.02146
1.71428
1.44013
3.34537
3.19435
3.11582
3.00461
2.79044
2.53219
2.26764
2.00808
1.70716
1.45043
3.33208
3.19332
3.1229
3.00264
2.78052
2.52145
2.25659
1.98979
1.69873
1.46404
3.3172
3.19738
3.13524
2.99996
2.76723
2.50625
2.24165
1.96623
1.68939
1.48093
3.30679
3.20984
3.15215
2.99504
2.75197
2.4888
2.22226
1.93814
1.68171
1.50258
3.30205
3.22939
3.16843
2.98771
2.73159
2.46649
2.19842
1.90559
1.67441
1.53084
3.30644
3.25652
3.17649
2.96717
2.70517
2.43926
2.16903
1.87064
1.66618
1.56884
3.32509
3.28328
3.17811
2.94154
2.67363
2.40742
2.13418
1.83452
1.65563
1.62053
3.34944
3.3015
3.16275
2.90863
2.63757
2.37042
2.09477
1.80057
1.64675
1.6819
3.37732
3.31003
3.13494
2.86958
2.59607
2.32924
2.05001
1.77257
1.6475
1.74734
3.40962
3.29927
3.09481
2.82434
2.54958
2.28236
2.0015
1.75298
1.65847
1.81911
3.43786
3.27895
3.04924
2.77331
2.49659
2.22899
1.94909
1.74145
1.69335
1.8914
3.45457
3.24876
2.99931
2.71549
2.43694
2.16775
1.89521
1.73204
1.75655
1.96154
3.44839
3.21145
2.94284
2.65037
2.36894
2.0985
1.85043
1.72981
1.8525
2.02116
3.42913
3.16809
2.87714
2.57451
2.29441
2.02328
1.8117
1.73706
1.96263
2.06187
3.39909
3.11416
2.79795
2.48814
2.21172
1.94976
1.79069
1.77942
2.06881
2.09447
3.35542
3.03995
2.7024
2.39134
2.1202
1.88303
1.77902
1.85231
2.1598
2.12179
3.29268
2.94252
2.59224
2.2869
2.02641
1.83055
1.78319
1.95745
2.22756
2.146
3.29605
2.94421
2.59487
2.29778
2.04023
1.8088
1.74126
1.87912
2.19421
2.12259
3.35903
3.04371
2.70694
2.39917
2.13124
1.88132
1.75925
1.80904
2.11929
2.10444
3.40224
3.11897
2.804
2.49647
2.2202
1.95639
1.78596
1.76936
2.0387
2.08264
3.43142
3.17305
2.88417
2.58374
2.30248
2.02829
1.81994
1.74668
1.95574
2.05237
3.44982
3.21583
2.95031
2.65907
2.37644
2.10061
1.8543
1.73955
1.86926
2.01749
3.45544
3.252
3.00565
2.72385
2.44309
2.16548
1.89376
1.74204
1.78816
1.97133
3.43785
3.28086
3.05484
2.78031
2.50145
2.22671
1.94224
1.7486
1.72391
1.91321
3.40897
3.30017
3.09911
2.83015
2.5544
2.28116
1.99203
1.75698
1.68338
1.84868
3.37611
3.31157
3.13827
2.87472
2.60074
2.3298
2.04389
1.77371
1.66048
1.78114
3.34776
3.30146
3.16532
2.91273
2.64202
2.37309
2.09051
1.79843
1.6548
1.71162
3.32334
3.28256
3.17918
2.94466
2.67781
2.40999
2.13306
1.83202
1.66053
1.64584
3.30497
3.25515
3.17716
2.96917
2.70785
2.44179
2.16935
1.86731
1.6709
1.58636
3.30085
3.22822
3.16857
2.98916
2.73366
2.46807
2.19879
1.90363
1.67667
1.54006
3.30574
3.20873
3.15177
2.99484
2.75222
2.48907
2.22301
1.9365
1.68027
1.50591
3.31648
3.19636
3.13456
2.99888
2.76658
2.50551
2.24095
1.96517
1.68712
1.47992
3.33176
3.19242
3.12198
3.00093
2.77861
2.5197
2.25542
1.98883
1.696
1.46025
3.3454
3.19358
3.11461
3.00241
2.78779
2.52919
2.26456
2.00655
1.70648
1.44619
3.35694
3.19799
3.11236
3.00611
2.79655
2.53796
2.27234
2.01914
1.71464
1.43641
3.36408
3.20237
3.11343
3.01065
2.80357
2.54463
2.27775
2.02786
1.72183
1.43007
3.36806
3.2056
3.11758
3.01401
2.80737
2.54867
2.28106
2.03296
1.72621
1.42654
3.84758
3.8448
3.8449
3.82997
3.80704
3.7731
3.72533
3.66455
3.59394
3.50483
3.79227
3.81901
3.83973
3.83787
3.82042
3.79123
3.74895
3.69155
3.62632
3.5477
3.67737
3.70127
3.74554
3.76951
3.78158
3.77285
3.74478
3.70135
3.64709
3.57818
3.6193
3.60075
3.61708
3.64065
3.6765
3.70071
3.70342
3.68312
3.64567
3.59541
3.6523
3.60546
3.57181
3.55881
3.56392
3.57708
3.59734
3.61381
3.61423
3.58828
3.64273
3.59508
3.56284
3.53277
3.50207
3.48316
3.48484
3.50576
3.52928
3.54403
3.67511
3.62624
3.57925
3.53414
3.49183
3.45352
3.43117
3.42525
3.43608
3.46584
3.70784
3.66027
3.62209
3.58054
3.53214
3.48738
3.4447
3.40257
3.37971
3.38801
3.73521
3.69147
3.66153
3.61981
3.57316
3.523
3.47444
3.4207
3.37161
3.34807
3.77103
3.72615
3.69498
3.65625
3.61126
3.55935
3.50111
3.44057
3.38477
3.34355
3.79101
3.7517
3.71961
3.67925
3.63687
3.58841
3.52816
3.46075
3.39988
3.35415
3.78078
3.74948
3.72415
3.69164
3.65496
3.61202
3.55883
3.49189
3.4253
3.37028
3.77779
3.75515
3.7317
3.70127
3.66826
3.62826
3.58147
3.52508
3.46263
3.39581
3.77797
3.76105
3.73867
3.71147
3.68176
3.64589
3.60247
3.55249
3.4905
3.41757
3.78085
3.76804
3.74554
3.71944
3.69016
3.65561
3.61534
3.57102
3.51503
3.4418
3.78432
3.7747
3.75176
3.72642
3.69771
3.66439
3.62614
3.58313
3.53023
3.46175
3.78725
3.78049
3.75724
3.73266
3.70428
3.67143
3.63409
3.59233
3.54249
3.47812
3.78957
3.78433
3.7613
3.73742
3.70944
3.67689
3.6401
3.5985
3.54995
3.48873
3.7907
3.78619
3.76353
3.74021
3.71264
3.68033
3.64372
3.60163
3.55329
3.49373
3.79063
3.78676
3.76471
3.74193
3.71477
3.68284
3.64633
3.60383
3.55504
3.49635
1.40269
1.40842
1.4148
1.42195
1.43002
1.43897
1.45011
1.45911
1.53909
3.12255
1.40269
1.40842
1.4148
1.42195
1.43002
1.43897
1.45008
1.45931
1.50972
3.01982
1.40269
1.40842
1.4148
1.42195
1.43003
1.43896
1.45005
1.45957
1.49248
2.93782
1.40269
1.40842
1.4148
1.42194
1.43003
1.43896
1.45002
1.45988
1.48267
2.91398
1.40269
1.40842
1.4148
1.42194
1.43003
1.43896
1.44999
1.46021
1.47718
2.92094
1.40269
1.40842
1.4148
1.42195
1.43003
1.43897
1.44993
1.46054
1.47409
2.9532
1.40269
1.40842
1.4148
1.42195
1.43002
1.43899
1.44985
1.46084
1.47245
2.96068
1.40269
1.40842
1.4148
1.42195
1.43002
1.43901
1.44974
1.4611
1.47167
2.94323
1.40269
1.40842
1.4148
1.42195
1.43002
1.43903
1.44962
1.46132
1.47138
2.90969
1.40269
1.40842
1.4148
1.42195
1.43002
1.43905
1.44953
1.46151
1.4713
2.87289
1.40269
1.40842
1.41481
1.42194
1.43002
1.43906
1.44949
1.46167
1.47133
2.84345
1.40269
1.40842
1.41481
1.42194
1.43002
1.43906
1.44947
1.46182
1.4714
2.82691
1.40269
1.40842
1.41481
1.42194
1.43002
1.43906
1.44946
1.46196
1.47149
2.81404
1.40269
1.40842
1.41481
1.42194
1.43002
1.43906
1.44945
1.46209
1.47158
2.80216
1.40269
1.40842
1.41481
1.42194
1.43003
1.43906
1.44942
1.46222
1.47169
2.7919
1.40269
1.40842
1.41481
1.42193
1.43003
1.43906
1.44939
1.46236
1.47179
2.78274
1.4027
1.40842
1.41481
1.42193
1.43004
1.43906
1.44935
1.46248
1.47188
2.775
1.4027
1.40842
1.41481
1.42193
1.43004
1.43907
1.44932
1.46262
1.47195
2.76898
1.4027
1.40841
1.41481
1.42193
1.43005
1.43907
1.44929
1.46271
1.472
2.76469
1.4027
1.40841
1.41482
1.42193
1.43005
1.43907
1.44927
1.46282
1.47199
2.76262
1.4027
1.40841
1.41482
1.42193
1.43005
1.43907
1.44927
1.46282
1.47199
2.76264
1.4027
1.40841
1.41481
1.42193
1.43005
1.43907
1.44929
1.46271
1.472
2.76471
1.4027
1.40842
1.41481
1.42193
1.43004
1.43907
1.44932
1.46262
1.47195
2.76898
1.4027
1.40842
1.41481
1.42193
1.43004
1.43906
1.44935
1.46248
1.47188
2.77497
1.40269
1.40842
1.41481
1.42193
1.43003
1.43906
1.44939
1.46236
1.47179
2.78266
1.40269
1.40842
1.41481
1.42194
1.43003
1.43906
1.44942
1.46222
1.47169
2.79178
1.40269
1.40842
1.41481
1.42194
1.43002
1.43906
1.44945
1.46209
1.47158
2.80204
1.40269
1.40842
1.41481
1.42194
1.43002
1.43906
1.44946
1.46196
1.47149
2.81393
1.40269
1.40842
1.41481
1.42194
1.43002
1.43906
1.44947
1.46182
1.4714
2.82677
1.40269
1.40842
1.41481
1.42194
1.43002
1.43906
1.44949
1.46167
1.47133
2.84319
1.40269
1.40842
1.4148
1.42195
1.43002
1.43905
1.44953
1.46151
1.4713
2.87258
1.40269
1.40842
1.4148
1.42195
1.43002
1.43903
1.44962
1.46132
1.47138
2.90948
1.40269
1.40842
1.4148
1.42195
1.43002
1.43901
1.44974
1.4611
1.47167
2.94317
1.40269
1.40842
1.4148
1.42195
1.43002
1.43899
1.44985
1.46084
1.47244
2.96065
1.40269
1.40842
1.4148
1.42195
1.43003
1.43897
1.44993
1.46054
1.47409
2.95347
1.40269
1.40842
1.4148
1.42194
1.43003
1.43896
1.44999
1.46021
1.47717
2.92133
1.40269
1.40842
1.4148
1.42194
1.43003
1.43896
1.45002
1.45988
1.48266
2.9141
1.40269
1.40842
1.4148
1.42195
1.43003
1.43896
1.45005
1.45957
1.49245
2.93792
1.40269
1.40842
1.4148
1.42195
1.43002
1.43897
1.45008
1.45931
1.50966
3.01983
1.40269
1.40842
1.4148
1.42195
1.43002
1.43897
1.45011
1.45911
1.53901
3.12265
3.79004
3.78615
3.76395
3.741
3.71366
3.68158
3.64496
3.60241
3.55371
3.49524
3.79013
3.7856
3.76281
3.73933
3.71162
3.67918
3.64248
3.60035
3.5521
3.49274
3.78908
3.78377
3.76063
3.73663
3.70855
3.6759
3.63904
3.59743
3.54897
3.48793
3.78683
3.77995
3.75663
3.73199
3.70354
3.67064
3.63328
3.59152
3.54183
3.47762
3.78392
3.7742
3.75126
3.72589
3.69714
3.66384
3.62562
3.58265
3.52992
3.46157
3.78047
3.76763
3.74514
3.71906
3.68981
3.65533
3.61514
3.57093
3.51511
3.44199
3.77765
3.76075
3.7384
3.71125
3.68162
3.6459
3.60261
3.55285
3.491
3.41818
3.77752
3.75497
3.73162
3.70131
3.66843
3.62858
3.58191
3.52579
3.46345
3.39684
3.78055
3.7494
3.72421
3.69187
3.65537
3.61265
3.55972
3.49289
3.42645
3.37168
3.79082
3.75177
3.71996
3.67981
3.63765
3.58941
3.52932
3.46203
3.40136
3.35578
3.77127
3.72653
3.69547
3.65692
3.61215
3.56047
3.5025
3.44213
3.38646
3.3453
3.73584
3.69219
3.66233
3.62071
3.57411
3.52407
3.47577
3.42217
3.37321
3.34977
3.7086
3.66122
3.62305
3.58156
3.53314
3.48831
3.44568
3.40371
3.38106
3.38954
3.67575
3.62716
3.58033
3.53518
3.49284
3.45436
3.4319
3.42604
3.43706
3.46697
3.64271
3.59517
3.563
3.53344
3.50306
3.48407
3.48559
3.50635
3.52981
3.54455
3.65236
3.60559
3.57185
3.55884
3.56427
3.57768
3.59796
3.61427
3.61447
3.58838
3.62083
3.60175
3.61724
3.64057
3.67658
3.7011
3.70402
3.68352
3.64559
3.59492
3.67749
3.70132
3.74576
3.76991
3.78214
3.77353
3.74522
3.70148
3.6467
3.57682
3.7924
3.81944
3.84034
3.83873
3.82124
3.79186
3.74919
3.69116
3.62516
3.54542
3.8485
3.84575
3.84593
3.83087
3.80766
3.77334
3.72497
3.66345
3.59197
3.50203
)
;

boundaryField
{
    inlet
    {
        type            calculated;
        value           uniform 1.40001;
    }
    outlet
    {
        type            calculated;
        value           nonuniform List<scalar> 
100
(
2.12265
2.10448
2.08268
2.05241
2.01749
1.97131
1.91322
1.84873
1.78121
1.71169
1.64591
1.58643
1.54013
1.50597
1.47997
1.4603
1.44623
1.43646
1.43011
1.42659
2.23572
2.22833
2.22814
2.22955
2.22709
2.22178
2.21574
2.21368
2.21041
2.20612
2.19968
2.19261
2.18685
2.18218
2.17644
2.16902
2.16041
2.15209
2.14351
2.13485
2.23481
2.22624
2.22673
2.22838
2.20265
2.1556
2.11298
2.05725
2.00572
1.96928
1.95595
1.94413
1.94797
1.96448
2.00503
2.06261
2.12811
2.16278
2.20751
2.23595
2.16213
2.17051
2.17674
2.18291
2.18534
2.19018
2.19579
2.20151
2.20715
2.211
2.21155
2.21429
2.22001
2.22572
2.22632
2.22172
2.22285
2.22989
2.24009
2.24425
1.42877
1.43303
1.44017
1.45045
1.46404
1.48092
1.50255
1.53081
1.56882
1.62053
1.68194
1.74744
1.81927
1.8916
1.96174
2.02134
2.06201
2.09462
2.12197
2.14618
)
;
    }
    triangle
    {
        type            calculated;
        value           nonuniform List<scalar> 
40
(
4.18195
4.02715
3.92169
3.82217
3.73219
3.65099
3.564
3.46409
3.3062
3.10674
1.18943
1.16073
1.15845
1.16167
1.16287
1.16033
1.15031
1.14353
1.13678
1.13116
1.12696
1.12057
1.11227
1.10306
1.09502
1.0869
1.08454
1.0882
1.10003
1.1111
4.18173
4.02676
3.92115
3.82145
3.73131
3.64998
3.56293
3.46355
3.30702
3.11582
)
;
    }
    top
    {
        type            symmetryPlane;
    }
    bottom
    {
        type            symmetryPlane;
    }
    defaultFaces
    {
        type            empty;
    }
}


// ************************************************************************* //
