/*--------------------------------*- C++ -*----------------------------------*\
  =========                 |
  \\      /  F ield         | OpenFOAM: The Open Source CFD Toolbox
   \\    /   O peration     | Website:  https://openfoam.org
    \\  /    A nd           | Version:  8
     \\/     M anipulation  |
\*---------------------------------------------------------------------------*/
FoamFile
{
    version     2.0;
    format      ascii;
    class       volScalarField;
    location    "3.6";
    object      T;
}
// * * * * * * * * * * * * * * * * * * * * * * * * * * * * * * * * * * * * * //

dimensions      [0 0 0 1 0 0 0];

internalField   nonuniform List<scalar> 
2600
(
1.54061
1.45534
1.26393
1.19571
1.30538
1.38242
1.43402
1.41359
1.38864
1.34222
1.57164
1.4977
1.30256
1.23591
1.32481
1.40428
1.47382
1.44665
1.39768
1.343
1.57636
1.50182
1.32897
1.28163
1.34562
1.43286
1.52449
1.48676
1.41545
1.34873
1.57744
1.49551
1.35186
1.31997
1.36612
1.46888
1.58759
1.53511
1.43832
1.3613
1.57542
1.49201
1.38485
1.35863
1.39017
1.52222
1.65946
1.60161
1.46226
1.37678
1.57179
1.49915
1.43597
1.41269
1.42615
1.58842
1.71197
1.65487
1.4912
1.39915
1.56547
1.51571
1.49912
1.47809
1.49107
1.66092
1.73563
1.67808
1.5263
1.43606
1.56263
1.52537
1.53732
1.53817
1.56607
1.71294
1.74564
1.68653
1.56733
1.47719
1.56116
1.52742
1.55494
1.58187
1.64267
1.7416
1.73502
1.68396
1.60023
1.51586
1.56003
1.52529
1.5596
1.61512
1.68174
1.73795
1.72547
1.67704
1.62235
1.54454
1.55835
1.52117
1.55556
1.63828
1.69934
1.72666
1.68868
1.65374
1.62455
1.56146
1.55315
1.50909
1.55403
1.64616
1.70351
1.7157
1.63722
1.6187
1.62378
1.56423
1.5444
1.49591
1.55104
1.66039
1.72194
1.70152
1.57276
1.57069
1.60768
1.5619
1.53386
1.47973
1.55214
1.66342
1.72778
1.66911
1.51957
1.52319
1.58047
1.54879
1.5239
1.46757
1.55357
1.6634
1.71235
1.61531
1.47652
1.4832
1.53709
1.51977
1.51343
1.4591
1.54064
1.64108
1.657
1.54354
1.44254
1.45029
1.49368
1.47622
1.50532
1.44889
1.4991
1.5842
1.56474
1.47454
1.42244
1.42887
1.44948
1.4308
1.49761
1.42347
1.4385
1.49824
1.47464
1.42174
1.41118
1.41946
1.41741
1.38981
1.48487
1.38068
1.37422
1.4265
1.42028
1.38587
1.4004
1.41116
1.40486
1.36906
1.45863
1.32572
1.3149
1.37695
1.37383
1.36439
1.39436
1.40329
1.39389
1.35755
1.44839
1.27283
1.27153
1.32685
1.33051
1.34796
1.39346
1.39714
1.38301
1.34739
1.42542
1.25531
1.24029
1.28339
1.29575
1.33285
1.39348
1.39297
1.3779
1.3404
1.41043
1.25439
1.21993
1.25652
1.27321
1.32109
1.39134
1.39082
1.37644
1.33788
1.40244
1.26107
1.20761
1.23986
1.25898
1.31127
1.38473
1.38812
1.3745
1.33652
1.40648
1.26705
1.20508
1.22872
1.24781
1.30014
1.37463
1.38278
1.37027
1.33431
1.41613
1.27777
1.21002
1.22224
1.23671
1.2889
1.3664
1.37643
1.36555
1.33092
1.43025
1.29538
1.21771
1.21993
1.22617
1.278
1.35913
1.37106
1.36215
1.32675
1.4456
1.31636
1.23356
1.22033
1.21754
1.26353
1.35046
1.3661
1.35887
1.32342
1.46046
1.33633
1.25406
1.2252
1.21187
1.24539
1.33813
1.3617
1.35535
1.32034
1.47334
1.35452
1.27067
1.23534
1.20834
1.22778
1.32019
1.35665
1.35221
1.31788
1.48347
1.37056
1.28639
1.24405
1.20967
1.21512
1.2986
1.35075
1.34912
1.31567
1.491
1.38431
1.30116
1.25014
1.21222
1.20756
1.27773
1.34444
1.34621
1.31366
1.49671
1.39578
1.31539
1.25675
1.2144
1.20248
1.26003
1.33801
1.34372
1.31169
1.50139
1.40583
1.3272
1.26595
1.21565
1.19991
1.24457
1.32983
1.34093
1.30946
1.50547
1.41548
1.33708
1.27529
1.21813
1.1987
1.23036
1.32003
1.33758
1.30641
1.50925
1.42444
1.34672
1.28343
1.22408
1.19683
1.21664
1.30698
1.33336
1.30267
1.51277
1.43255
1.35637
1.29162
1.23115
1.19642
1.20393
1.29152
1.32928
1.29875
1.51589
1.44016
1.3655
1.3007
1.23787
1.19784
1.19342
1.27543
1.32511
1.29534
1.51822
1.44731
1.37432
1.3097
1.24502
1.20003
1.18548
1.25908
1.32078
1.2924
1.51972
1.45399
1.38307
1.31791
1.25359
1.20191
1.18362
1.24198
1.31533
1.28977
1.97037
1.94171
1.91799
1.89196
1.86495
1.83816
1.80993
1.77873
1.73467
1.70705
1.91806
1.88833
1.87024
1.8492
1.82833
1.80566
1.78003
1.74891
1.70463
1.64937
1.88595
1.86072
1.83969
1.81649
1.796
1.77443
1.75039
1.72097
1.67939
1.61648
1.84193
1.81936
1.79827
1.77459
1.75431
1.73328
1.71091
1.68375
1.64569
1.58522
1.78375
1.76808
1.75557
1.73804
1.72154
1.70244
1.68199
1.65619
1.62102
1.56592
1.7253
1.72209
1.71898
1.70927
1.6982
1.68226
1.66416
1.63961
1.60696
1.55742
1.71138
1.70435
1.69992
1.69165
1.68351
1.67015
1.65426
1.63095
1.60041
1.55573
1.70281
1.69593
1.69138
1.68338
1.67562
1.66298
1.64843
1.62659
1.59776
1.55659
1.69184
1.68592
1.68212
1.67499
1.66795
1.65627
1.64301
1.62243
1.59574
1.55817
1.67928
1.67407
1.67125
1.66543
1.65933
1.64871
1.63646
1.61745
1.59341
1.55933
1.66639
1.66175
1.65966
1.65485
1.64963
1.6401
1.62915
1.61215
1.59036
1.5595
1.65402
1.64993
1.64841
1.64453
1.64017
1.63177
1.62215
1.60687
1.58701
1.5592
1.643
1.6394
1.63847
1.63544
1.63182
1.6245
1.61574
1.6019
1.58374
1.55866
1.63362
1.63042
1.63007
1.62767
1.62442
1.61795
1.60995
1.59744
1.58086
1.55815
1.62543
1.62252
1.62236
1.62062
1.61775
1.61215
1.60484
1.59348
1.57824
1.55763
1.61834
1.61566
1.61553
1.61418
1.6117
1.60687
1.60015
1.58987
1.57591
1.55717
1.61203
1.60942
1.60947
1.60829
1.60605
1.6018
1.59559
1.58631
1.57357
1.55654
1.6067
1.60399
1.60381
1.60248
1.60025
1.59647
1.59086
1.5826
1.5711
1.55569
1.60297
1.60011
1.59947
1.59767
1.59531
1.59156
1.58607
1.57858
1.56831
1.55442
1.60188
1.59886
1.59754
1.59492
1.59191
1.58769
1.58192
1.57465
1.56523
1.55268
1.00077
1.0024
1.00421
1.00624
1.00851
1.01105
1.01416
1.01658
1.32505
1.74067
1.00077
1.0024
1.00421
1.00624
1.00851
1.01105
1.01416
1.0166
1.32408
1.73558
1.00077
1.0024
1.00421
1.00624
1.00851
1.01105
1.01416
1.01661
1.31748
1.72879
1.00077
1.0024
1.00421
1.00624
1.00851
1.01105
1.01416
1.01662
1.3066
1.72266
1.00077
1.0024
1.00421
1.00624
1.00851
1.01105
1.01416
1.01661
1.29358
1.72192
1.00077
1.0024
1.00421
1.00624
1.00851
1.01104
1.01416
1.01659
1.27889
1.7251
1.00077
1.0024
1.00421
1.00624
1.00851
1.01104
1.01416
1.01658
1.25942
1.72368
1.00077
1.0024
1.00421
1.00624
1.00851
1.01104
1.01417
1.01656
1.23822
1.71779
1.00077
1.0024
1.00421
1.00624
1.00852
1.01104
1.01417
1.01656
1.21729
1.70772
1.00077
1.0024
1.00421
1.00624
1.00852
1.01104
1.01418
1.01655
1.19741
1.6958
1.00077
1.0024
1.00421
1.00624
1.00852
1.01103
1.01418
1.01655
1.17873
1.68328
1.00077
1.0024
1.00421
1.00624
1.00852
1.01103
1.01418
1.01655
1.16109
1.67098
1.00077
1.0024
1.00421
1.00624
1.00852
1.01103
1.01419
1.01655
1.14388
1.65978
1.00077
1.0024
1.00421
1.00624
1.00852
1.01103
1.01419
1.01656
1.12646
1.65015
1.00077
1.0024
1.00421
1.00624
1.00852
1.01103
1.01419
1.01656
1.1088
1.64159
1.00077
1.0024
1.00421
1.00624
1.00852
1.01103
1.01419
1.01656
1.0915
1.63386
1.00077
1.0024
1.00421
1.00624
1.00852
1.01103
1.01419
1.01657
1.07746
1.62654
1.00077
1.0024
1.00421
1.00624
1.00852
1.01103
1.01419
1.01659
1.06583
1.61995
1.00077
1.0024
1.00421
1.00624
1.00852
1.01103
1.01418
1.01661
1.05538
1.6146
1.00077
1.0024
1.00421
1.00624
1.00852
1.01103
1.01417
1.01663
1.046
1.61121
1.00077
1.0024
1.00421
1.00624
1.00852
1.01103
1.01417
1.01663
1.04597
1.61135
1.00077
1.0024
1.00421
1.00624
1.00852
1.01103
1.01418
1.01661
1.05534
1.61473
1.00077
1.0024
1.00421
1.00624
1.00852
1.01103
1.01419
1.01659
1.06579
1.62007
1.00077
1.0024
1.00421
1.00624
1.00852
1.01103
1.01419
1.01657
1.07742
1.62665
1.00077
1.0024
1.00421
1.00624
1.00852
1.01103
1.01419
1.01656
1.09146
1.63397
1.00077
1.0024
1.00421
1.00624
1.00852
1.01103
1.01419
1.01656
1.10877
1.6417
1.00077
1.0024
1.00421
1.00624
1.00852
1.01103
1.01419
1.01656
1.12645
1.65024
1.00077
1.0024
1.00421
1.00624
1.00852
1.01103
1.01419
1.01655
1.14389
1.65987
1.00077
1.0024
1.00421
1.00624
1.00852
1.01103
1.01418
1.01655
1.16111
1.67107
1.00077
1.0024
1.00421
1.00624
1.00852
1.01103
1.01418
1.01655
1.17877
1.68336
1.00077
1.0024
1.00421
1.00624
1.00852
1.01104
1.01418
1.01655
1.19747
1.69586
1.00077
1.0024
1.00421
1.00624
1.00852
1.01104
1.01417
1.01656
1.21736
1.70776
1.00077
1.0024
1.00421
1.00624
1.00851
1.01104
1.01417
1.01656
1.2383
1.71781
1.00077
1.0024
1.00421
1.00624
1.00851
1.01104
1.01416
1.01658
1.2595
1.72367
1.00077
1.0024
1.00421
1.00624
1.00851
1.01104
1.01416
1.01659
1.27896
1.72508
1.00077
1.0024
1.00421
1.00624
1.00851
1.01105
1.01416
1.01661
1.29365
1.72191
1.00077
1.0024
1.00421
1.00624
1.00851
1.01105
1.01416
1.01662
1.30667
1.72266
1.00077
1.0024
1.00421
1.00624
1.00851
1.01105
1.01416
1.01661
1.31754
1.7288
1.00077
1.0024
1.00421
1.00624
1.00851
1.01105
1.01416
1.0166
1.32411
1.73558
1.00077
1.0024
1.00421
1.00624
1.00851
1.01105
1.01416
1.01659
1.32506
1.74067
1.60205
1.59902
1.59767
1.59498
1.59189
1.58759
1.58167
1.57425
1.56467
1.55198
1.60312
1.60025
1.59956
1.59768
1.59522
1.59137
1.58574
1.57811
1.56769
1.5537
1.60683
1.60409
1.60384
1.60243
1.60009
1.5962
1.59045
1.58208
1.57044
1.55496
1.61215
1.60947
1.60946
1.60822
1.60586
1.60148
1.59514
1.58576
1.57289
1.55581
1.61845
1.61571
1.61551
1.61404
1.61146
1.60652
1.59966
1.5893
1.57522
1.55645
1.62553
1.62256
1.62232
1.62045
1.61746
1.61177
1.60433
1.59291
1.57755
1.55692
1.63371
1.63044
1.63002
1.62749
1.62412
1.61755
1.60943
1.59686
1.58017
1.55748
1.64307
1.63938
1.63838
1.63524
1.63151
1.62409
1.61521
1.60132
1.58307
1.55803
1.65407
1.64989
1.64829
1.64431
1.63985
1.63135
1.62162
1.6063
1.58635
1.55868
1.66642
1.6617
1.65954
1.65463
1.64931
1.63969
1.62863
1.61158
1.58974
1.55912
1.67929
1.67401
1.67113
1.66521
1.65902
1.64831
1.63595
1.61692
1.59285
1.55917
1.69183
1.68584
1.68198
1.67478
1.66765
1.65588
1.64253
1.62196
1.59526
1.55825
1.70277
1.69584
1.69123
1.68317
1.67533
1.66262
1.64798
1.62617
1.59738
1.55688
1.71132
1.70423
1.69976
1.69144
1.68324
1.66983
1.65388
1.63059
1.60017
1.55612
1.7252
1.72196
1.71883
1.70911
1.69802
1.68204
1.66386
1.6393
1.60677
1.55822
1.78365
1.76795
1.75548
1.73797
1.72145
1.70229
1.68177
1.65594
1.62089
1.56749
1.84186
1.81928
1.79822
1.77456
1.75425
1.73317
1.71074
1.68356
1.64573
1.58739
1.88589
1.86065
1.83963
1.81642
1.79592
1.7743
1.75023
1.72086
1.67958
1.6188
1.918
1.88824
1.87013
1.84906
1.82818
1.80548
1.77984
1.74882
1.70482
1.65157
1.97033
1.94164
1.91789
1.89183
1.8648
1.83799
1.80975
1.77865
1.73479
1.70844
1.51898
1.45381
1.38266
1.31403
1.24956
1.21084
1.19928
1.26472
1.31928
1.29655
1.51751
1.44725
1.3741
1.30412
1.24057
1.20934
1.20756
1.27945
1.32284
1.29893
1.51525
1.44041
1.36482
1.29357
1.23263
1.20748
1.21705
1.29439
1.32567
1.30094
1.51232
1.43314
1.35517
1.28294
1.22555
1.20596
1.22847
1.30902
1.32819
1.3035
1.50903
1.4258
1.34543
1.2725
1.21804
1.20521
1.24214
1.32273
1.33107
1.30565
1.50547
1.41794
1.33571
1.26083
1.21221
1.20618
1.25758
1.3338
1.33449
1.30852
1.50151
1.40945
1.32503
1.2475
1.20775
1.21002
1.27381
1.34161
1.33874
1.31153
1.49706
1.40021
1.31182
1.2356
1.20472
1.22023
1.29006
1.34742
1.34258
1.31472
1.49184
1.38915
1.29681
1.22627
1.20085
1.23156
1.30462
1.35204
1.34598
1.31747
1.48528
1.37588
1.28156
1.21758
1.19722
1.2454
1.31835
1.35681
1.34845
1.31917
1.47651
1.36023
1.2665
1.20451
1.19828
1.26145
1.33222
1.36174
1.35081
1.3199
1.46518
1.3427
1.25027
1.18965
1.19859
1.2789
1.34585
1.36633
1.35371
1.32144
1.4519
1.32317
1.2302
1.17938
1.19892
1.29618
1.35741
1.37037
1.35729
1.32425
1.43846
1.30248
1.21037
1.1724
1.20067
1.31086
1.36623
1.37439
1.36174
1.32788
1.427
1.2843
1.19813
1.16593
1.20395
1.32272
1.37339
1.37723
1.36476
1.33079
1.42027
1.27553
1.19112
1.15767
1.20885
1.33259
1.38056
1.37988
1.36716
1.33205
1.41808
1.27468
1.18818
1.14758
1.21727
1.34107
1.38752
1.38393
1.36942
1.3342
1.42651
1.28412
1.18781
1.1435
1.23343
1.34945
1.39425
1.38889
1.37254
1.33721
1.4377
1.31553
1.19626
1.14914
1.25624
1.35793
1.40122
1.39353
1.37699
1.3405
1.4809
1.37719
1.22264
1.16627
1.28264
1.36768
1.41235
1.39868
1.38267
1.3426
1.70086
1.67316
1.58879
1.49085
1.41214
1.34877
1.28531
1.22206
1.14014
1.06543
1.70078
1.67253
1.5871
1.4893
1.41072
1.34735
1.28406
1.22053
1.13923
1.06675
1.70203
1.67129
1.58361
1.48545
1.4073
1.34432
1.28155
1.21775
1.1377
1.06908
1.70494
1.66835
1.57691
1.47897
1.40205
1.33976
1.27772
1.21375
1.13595
1.07253
1.70906
1.66253
1.5663
1.47027
1.39568
1.3344
1.27308
1.20853
1.134
1.07718
1.71247
1.65193
1.55251
1.45979
1.38833
1.3282
1.26779
1.20236
1.13206
1.08309
1.7143
1.6361
1.53692
1.44867
1.38114
1.32229
1.26227
1.19575
1.13069
1.09092
1.71079
1.61549
1.51997
1.43815
1.37407
1.3165
1.25674
1.1889
1.12916
1.10159
1.69924
1.59148
1.50186
1.42704
1.36731
1.31093
1.25096
1.1822
1.12736
1.11605
1.68022
1.56521
1.48472
1.41756
1.36109
1.30554
1.24481
1.17545
1.12692
1.13343
1.6518
1.53922
1.46919
1.40955
1.35534
1.29996
1.23824
1.16903
1.12864
1.1517
1.61581
1.51684
1.45748
1.40303
1.34966
1.29414
1.23083
1.16382
1.13182
1.1724
1.57926
1.49882
1.44869
1.3973
1.34388
1.28752
1.22272
1.16076
1.13802
1.19514
1.54878
1.4886
1.44267
1.39177
1.33745
1.27971
1.21364
1.16031
1.15036
1.21675
1.53037
1.48256
1.43787
1.38583
1.33006
1.27022
1.20394
1.16081
1.16925
1.236
1.52146
1.47899
1.43309
1.37903
1.321
1.25875
1.19619
1.16275
1.19717
1.25192
1.51891
1.47688
1.42754
1.3702
1.31024
1.24553
1.19052
1.16776
1.23017
1.2646
1.51929
1.4749
1.41996
1.35888
1.29712
1.2321
1.19051
1.18309
1.26296
1.27564
1.52028
1.47049
1.40909
1.34464
1.28114
1.22016
1.1901
1.20733
1.29059
1.28418
1.51996
1.46197
1.39465
1.32789
1.26372
1.21246
1.19269
1.23884
1.31005
1.29177
1.52072
1.46246
1.39538
1.33044
1.26695
1.20669
1.18259
1.2186
1.30257
1.28591
1.52102
1.47132
1.41013
1.34643
1.28368
1.22017
1.18419
1.19561
1.28076
1.27998
1.51994
1.47588
1.42125
1.36074
1.29905
1.2341
1.18826
1.18034
1.25515
1.27307
1.51943
1.47785
1.42897
1.37219
1.31206
1.24686
1.19295
1.17058
1.22832
1.26266
1.52185
1.47984
1.43456
1.38084
1.32265
1.25928
1.19767
1.1654
1.20165
1.25089
1.53058
1.48319
1.43909
1.38754
1.33138
1.26967
1.20377
1.16321
1.17773
1.23764
1.5488
1.48898
1.44375
1.39317
1.33847
1.27916
1.21204
1.16202
1.15878
1.22177
1.57924
1.49901
1.4495
1.39843
1.34488
1.2872
1.22048
1.16174
1.1449
1.20306
1.61574
1.51718
1.45809
1.40402
1.35062
1.29423
1.22937
1.16408
1.1356
1.18231
1.6517
1.53934
1.46976
1.41034
1.35624
1.30052
1.23721
1.16851
1.13115
1.16059
1.68008
1.56528
1.48502
1.41817
1.36194
1.30609
1.24451
1.17482
1.12921
1.14036
1.69908
1.59141
1.50207
1.42741
1.36786
1.31148
1.25103
1.18138
1.12874
1.12139
1.71061
1.61543
1.52008
1.43844
1.3745
1.31685
1.25684
1.1884
1.12972
1.10442
1.7141
1.63602
1.53695
1.44866
1.38122
1.32237
1.26247
1.19533
1.1303
1.0919
1.7123
1.65181
1.55247
1.45958
1.38822
1.32806
1.26767
1.20209
1.1315
1.08281
1.70896
1.66239
1.56617
1.46993
1.39531
1.33405
1.27284
1.20831
1.13331
1.07607
1.70492
1.66821
1.57666
1.47851
1.40153
1.33914
1.27704
1.2134
1.13579
1.07128
1.70208
1.67117
1.58331
1.48491
1.40662
1.34347
1.28057
1.21721
1.13782
1.06797
1.70088
1.67244
1.58679
1.4887
1.40991
1.34633
1.28284
1.2198
1.13968
1.06588
1.70098
1.6731
1.58849
1.4902
1.41128
1.34765
1.28392
1.22119
1.14083
1.06478
1.60448
1.60219
1.59988
1.5955
1.59097
1.58554
1.57886
1.57093
1.5619
1.5504
1.66046
1.64032
1.62171
1.60773
1.59674
1.58783
1.57913
1.56897
1.5588
1.54771
1.74307
1.71636
1.68265
1.64849
1.62149
1.60019
1.58362
1.57037
1.55912
1.54673
1.77602
1.76279
1.74248
1.71054
1.67329
1.6366
1.60631
1.58157
1.56371
1.54897
1.77844
1.77204
1.76413
1.7494
1.7251
1.6902
1.65066
1.61316
1.58311
1.55787
1.75842
1.75526
1.75568
1.75347
1.74565
1.72819
1.69971
1.66275
1.62142
1.58236
1.7422
1.7399
1.74216
1.74494
1.74378
1.73965
1.72959
1.70809
1.67312
1.62425
1.73041
1.72845
1.73225
1.73756
1.74161
1.74352
1.74213
1.73471
1.71484
1.67358
1.72256
1.72041
1.72392
1.72781
1.73349
1.7398
1.74533
1.74438
1.73737
1.71356
1.72046
1.71656
1.71883
1.72166
1.7259
1.73254
1.73971
1.7438
1.74328
1.73547
1.71777
1.71372
1.71491
1.71592
1.71843
1.72318
1.72971
1.73681
1.74086
1.74047
1.7102
1.70729
1.70829
1.70928
1.71122
1.71444
1.71943
1.72611
1.73438
1.73888
1.7033
1.70172
1.70238
1.703
1.70438
1.70616
1.70927
1.71479
1.72418
1.73441
1.69771
1.69686
1.69705
1.69748
1.6985
1.69974
1.70144
1.70495
1.71163
1.72433
1.69356
1.69322
1.6926
1.69267
1.69304
1.69363
1.69465
1.69696
1.70155
1.71303
1.69035
1.69039
1.68926
1.68892
1.68892
1.68907
1.68961
1.69086
1.69354
1.70227
1.6878
1.68864
1.68703
1.68638
1.68602
1.68585
1.68599
1.68668
1.68836
1.69446
1.68582
1.68787
1.6859
1.68503
1.6844
1.68396
1.68393
1.68419
1.68526
1.68988
1.68463
1.68774
1.68561
1.68458
1.68381
1.68321
1.68307
1.68312
1.68391
1.68797
1.68417
1.68787
1.68572
1.68468
1.6839
1.68332
1.68314
1.68311
1.68377
1.68779
1.00077
1.0024
1.00421
1.00624
1.00852
1.01103
1.01417
1.01667
1.03704
1.60685
1.00077
1.0024
1.00421
1.00624
1.00852
1.01103
1.01415
1.01673
1.02977
1.59301
1.00077
1.0024
1.00421
1.00624
1.00852
1.01103
1.01414
1.01681
1.02547
1.56603
1.00077
1.0024
1.00421
1.00624
1.00852
1.01103
1.01413
1.01689
1.02298
1.54031
1.00077
1.0024
1.00421
1.00624
1.00852
1.01103
1.01412
1.01699
1.02157
1.51883
1.00077
1.0024
1.00421
1.00624
1.00852
1.01104
1.01411
1.01708
1.02076
1.50716
1.00077
1.0024
1.00421
1.00624
1.00852
1.01104
1.01408
1.01716
1.02033
1.49391
1.00077
1.0024
1.00421
1.00624
1.00852
1.01105
1.01405
1.01723
1.02013
1.48049
1.00077
1.0024
1.00421
1.00624
1.00852
1.01105
1.01402
1.0173
1.02006
1.46768
1.00077
1.0024
1.00421
1.00624
1.00852
1.01106
1.01399
1.01735
1.02004
1.45696
1.00077
1.0024
1.00421
1.00624
1.00852
1.01106
1.01398
1.01739
1.02005
1.44824
1.00077
1.0024
1.00421
1.00624
1.00852
1.01106
1.01397
1.01743
1.02007
1.44172
1.00077
1.0024
1.00421
1.00624
1.00852
1.01106
1.01397
1.01747
1.0201
1.43575
1.00077
1.0024
1.00421
1.00623
1.00852
1.01106
1.01397
1.01751
1.02012
1.4302
1.00077
1.0024
1.00421
1.00623
1.00852
1.01106
1.01396
1.01755
1.02015
1.4254
1.00077
1.0024
1.00422
1.00623
1.00852
1.01106
1.01395
1.01759
1.02018
1.42132
1.00077
1.0024
1.00422
1.00623
1.00852
1.01106
1.01394
1.01762
1.02021
1.41806
1.00077
1.0024
1.00422
1.00623
1.00852
1.01106
1.01393
1.01766
1.02023
1.41572
1.00077
1.0024
1.00422
1.00623
1.00852
1.01107
1.01393
1.01768
1.02024
1.41436
1.00077
1.0024
1.00422
1.00623
1.00853
1.01107
1.01392
1.01772
1.02024
1.41391
1.00077
1.0024
1.00422
1.00623
1.00853
1.01107
1.01392
1.01772
1.02024
1.41393
1.00077
1.0024
1.00422
1.00623
1.00852
1.01107
1.01393
1.01768
1.02024
1.41438
1.00077
1.0024
1.00422
1.00623
1.00852
1.01106
1.01393
1.01766
1.02023
1.41573
1.00077
1.0024
1.00422
1.00623
1.00852
1.01106
1.01394
1.01762
1.02021
1.41806
1.00077
1.0024
1.00422
1.00623
1.00852
1.01106
1.01395
1.01759
1.02018
1.42131
1.00077
1.0024
1.00421
1.00623
1.00852
1.01106
1.01396
1.01755
1.02015
1.42537
1.00077
1.0024
1.00421
1.00623
1.00852
1.01106
1.01397
1.01751
1.02012
1.43017
1.00077
1.0024
1.00421
1.00624
1.00852
1.01106
1.01397
1.01747
1.0201
1.43572
1.00077
1.0024
1.00421
1.00624
1.00852
1.01106
1.01397
1.01743
1.02007
1.44168
1.00077
1.0024
1.00421
1.00624
1.00852
1.01106
1.01398
1.01739
1.02005
1.44819
1.00077
1.0024
1.00421
1.00624
1.00852
1.01106
1.01399
1.01735
1.02004
1.45691
1.00077
1.0024
1.00421
1.00624
1.00852
1.01105
1.01402
1.0173
1.02006
1.46764
1.00077
1.0024
1.00421
1.00624
1.00852
1.01105
1.01405
1.01723
1.02013
1.48044
1.00077
1.0024
1.00421
1.00624
1.00852
1.01104
1.01408
1.01716
1.02033
1.49384
1.00077
1.0024
1.00421
1.00624
1.00852
1.01104
1.01411
1.01708
1.02076
1.50713
1.00077
1.0024
1.00421
1.00624
1.00852
1.01103
1.01412
1.01699
1.02157
1.51879
1.00077
1.0024
1.00421
1.00624
1.00852
1.01103
1.01413
1.01689
1.02298
1.54018
1.00077
1.0024
1.00421
1.00624
1.00852
1.01103
1.01414
1.01681
1.02546
1.56591
1.00077
1.0024
1.00421
1.00624
1.00852
1.01103
1.01415
1.01673
1.02976
1.59297
1.00077
1.0024
1.00421
1.00624
1.00852
1.01103
1.01417
1.01667
1.03702
1.60698
1.6842
1.68774
1.68557
1.68451
1.68371
1.68311
1.68291
1.68287
1.68352
1.68753
1.68465
1.68761
1.68547
1.68442
1.68363
1.68301
1.68286
1.68289
1.68367
1.68774
1.68582
1.68774
1.68577
1.68488
1.68424
1.68378
1.68374
1.68399
1.68507
1.68971
1.68776
1.68852
1.68692
1.68626
1.68589
1.68572
1.68586
1.68653
1.68823
1.69437
1.69028
1.69031
1.68917
1.68883
1.68883
1.68898
1.68953
1.69079
1.6935
1.70228
1.69348
1.69315
1.69253
1.6926
1.69298
1.6936
1.69464
1.69698
1.70163
1.71318
1.69764
1.6968
1.69699
1.69745
1.69849
1.69976
1.70151
1.70508
1.71183
1.72459
1.70324
1.70169
1.70237
1.70301
1.70443
1.70625
1.70941
1.71503
1.72449
1.73474
1.71016
1.7073
1.70832
1.70935
1.71133
1.7146
1.71969
1.72643
1.73476
1.73922
1.71776
1.71378
1.71499
1.71605
1.71861
1.72342
1.73003
1.7372
1.74126
1.74081
1.72053
1.71665
1.71893
1.72179
1.72608
1.73278
1.74005
1.74419
1.74366
1.73576
1.72267
1.72054
1.72405
1.72795
1.73365
1.74001
1.74563
1.74471
1.73768
1.71374
1.73048
1.72855
1.73234
1.73769
1.74175
1.74371
1.74233
1.73493
1.71504
1.67369
1.74223
1.73999
1.74226
1.74507
1.74394
1.73981
1.72975
1.70824
1.67326
1.62436
1.75832
1.75519
1.75567
1.75356
1.74585
1.72844
1.69993
1.66292
1.62151
1.58243
1.77833
1.77199
1.76416
1.74951
1.72535
1.6905
1.65091
1.6133
1.58315
1.55786
1.7764
1.76317
1.74278
1.71089
1.67364
1.63688
1.6065
1.58163
1.56364
1.54876
1.74366
1.71697
1.68321
1.64894
1.62179
1.60039
1.58367
1.57029
1.55891
1.54636
1.66131
1.64099
1.62213
1.60801
1.59688
1.58787
1.57908
1.56878
1.55848
1.54722
1.6047
1.60242
1.60008
1.59563
1.59103
1.5855
1.5787
1.57064
1.56145
1.54977
)
;

boundaryField
{
    inlet
    {
        type            fixedValue;
        value           uniform 1;
    }
    outlet
    {
        type            inletOutlet;
        inletValue      uniform 1;
        value           nonuniform List<scalar> 
100
(
1.28587
1.27995
1.27305
1.26263
1.25089
1.23765
1.22177
1.20303
1.18226
1.16054
1.14032
1.12133
1.10437
1.09186
1.08276
1.07604
1.07124
1.06793
1.06585
1.06474
1.34674
1.34014
1.33779
1.3364
1.33411
1.33058
1.32652
1.3233
1.32024
1.31775
1.31552
1.31354
1.3116
1.30936
1.30626
1.30251
1.29862
1.29522
1.29231
1.28971
1.3425
1.34289
1.34825
1.36083
1.37691
1.39907
1.43582
1.47698
1.51573
1.54457
1.5613
1.564
1.56165
1.54853
1.51974
1.4762
1.43023
1.3894
1.36943
1.35732
1.29647
1.29888
1.30092
1.30348
1.30561
1.30843
1.31139
1.31456
1.31732
1.31913
1.31989
1.32131
1.32403
1.32768
1.33086
1.33207
1.33397
1.33689
1.34014
1.34258
1.06539
1.06671
1.06905
1.07251
1.07718
1.0831
1.09094
1.10161
1.11606
1.13343
1.15167
1.17234
1.19504
1.21662
1.23587
1.25181
1.26451
1.27555
1.28407
1.29166
)
;
    }
    triangle
    {
        type            zeroGradient;
    }
    top
    {
        type            symmetryPlane;
    }
    bottom
    {
        type            symmetryPlane;
    }
    defaultFaces
    {
        type            empty;
    }
}


// ************************************************************************* //
