/*--------------------------------*- C++ -*----------------------------------*\
  =========                 |
  \\      /  F ield         | OpenFOAM: The Open Source CFD Toolbox
   \\    /   O peration     | Website:  https://openfoam.org
    \\  /    A nd           | Version:  8
     \\/     M anipulation  |
\*---------------------------------------------------------------------------*/
FoamFile
{
    version     2.0;
    format      ascii;
    class       volVectorField;
    location    "3.6";
    object      U;
}
// * * * * * * * * * * * * * * * * * * * * * * * * * * * * * * * * * * * * * //

dimensions      [0 1 -1 0 0 0 0];

internalField   nonuniform List<vector> 
2600
(
(0.738917 0.0322924 0)
(1.3417 0.138798 0)
(1.68712 0.35461 0)
(1.77398 0.5295 0)
(1.51539 0.333337 0)
(1.3187 0.139258 0)
(1.40881 0.00716757 0)
(1.47725 0.0500834 0)
(1.48387 0.0563735 0)
(1.50437 0.0331695 0)
(0.248056 -0.142847 0)
(0.910141 0.0963669 0)
(1.53196 0.31877 0)
(1.75356 0.488329 0)
(1.51087 0.324393 0)
(1.31486 0.119859 0)
(1.37535 -0.0233058 0)
(1.46395 0.0218343 0)
(1.4784 0.0604704 0)
(1.49832 0.0408286 0)
(0.0325506 -0.151568 0)
(0.510275 0.00656527 0)
(1.26103 0.246955 0)
(1.68867 0.434998 0)
(1.50857 0.310252 0)
(1.29757 0.110218 0)
(1.30081 -0.0192584 0)
(1.41348 0.00930885 0)
(1.4684 0.0578515 0)
(1.48691 0.0403294 0)
(-0.0536037 -0.177112 0)
(0.235764 -0.0592331 0)
(0.930398 0.138959 0)
(1.55969 0.386888 0)
(1.49454 0.311717 0)
(1.25964 0.117838 0)
(1.15997 -0.00745732 0)
(1.30542 0.0211891 0)
(1.44477 0.0523053 0)
(1.46747 0.0322855 0)
(-0.114223 -0.164534 0)
(0.0538641 -0.116377 0)
(0.609331 0.0254337 0)
(1.37312 0.332093 0)
(1.45712 0.306696 0)
(1.17051 0.127823 0)
(0.949668 -0.00757102 0)
(1.13219 -0.00632424 0)
(1.39911 0.0537848 0)
(1.43283 0.0334305 0)
(-0.166438 -0.158061 0)
(-0.0942999 -0.141814 0)
(0.318419 -0.0678315 0)
(1.145 0.240207 0)
(1.36789 0.319262 0)
(1.00566 0.135202 0)
(0.719019 -0.0026202 0)
(0.933636 -0.0271529 0)
(1.32489 0.0511872 0)
(1.37963 0.041164 0)
(-0.21147 -0.140388 0)
(-0.227727 -0.143883 0)
(0.0321063 -0.115867 0)
(0.872409 0.147481 0)
(1.19199 0.290171 0)
(0.772458 0.176755 0)
(0.53928 -0.00657703 0)
(0.774457 -0.0649375 0)
(1.22036 0.0286057 0)
(1.30426 0.0399005 0)
(-0.250153 -0.119188 0)
(-0.344287 -0.147186 0)
(-0.23007 -0.189716 0)
(0.5341 0.0785026 0)
(0.903795 0.273376 0)
(0.512161 0.176773 0)
(0.453296 0.00252393 0)
(0.695851 -0.0803251 0)
(1.09242 0.0201311 0)
(1.21427 0.0310575 0)
(-0.270497 -0.0825794 0)
(-0.435476 -0.150652 0)
(-0.443017 -0.19556 0)
(0.144716 0.0234065 0)
(0.53616 0.299597 0)
(0.309294 0.216239 0)
(0.439099 -0.0135855 0)
(0.684419 -0.108806 0)
(0.971902 -0.00654131 0)
(1.12641 0.0354972 0)
(-0.271311 -0.0412086 0)
(-0.493947 -0.150835 0)
(-0.559836 -0.223601 0)
(-0.20433 -0.0136534 0)
(0.187324 0.261152 0)
(0.219546 0.203364 0)
(0.505053 -0.0557304 0)
(0.713689 -0.131168 0)
(0.895186 -0.00225231 0)
(1.06401 0.0276027 0)
(-0.273398 0.00257198 0)
(-0.514776 -0.128493 0)
(-0.59021 -0.237256 0)
(-0.406363 -0.0471307 0)
(-0.0427769 0.272706 0)
(0.222374 0.170948 0)
(0.695836 -0.0525667 0)
(0.794402 -0.12276 0)
(0.877196 -0.023488 0)
(1.03572 0.03408 0)
(-0.261396 0.0477932 0)
(-0.501269 -0.0923218 0)
(-0.577646 -0.243386 0)
(-0.452467 -0.087111 0)
(-0.115309 0.225259 0)
(0.317952 0.13608 0)
(0.935534 -0.0925757 0)
(0.922567 -0.138129 0)
(0.895965 -0.0370684 0)
(1.03142 0.0250135 0)
(-0.237834 0.085857 0)
(-0.434638 -0.0657482 0)
(-0.495977 -0.227983 0)
(-0.424911 -0.10846 0)
(-0.0882247 0.150412 0)
(0.545073 0.0706935 0)
(1.13897 -0.111436 0)
(1.069 -0.124717 0)
(0.944752 -0.0172556 0)
(1.0471 0.0192465 0)
(-0.209412 0.114696 0)
(-0.312309 -0.0369729 0)
(-0.300276 -0.205863 0)
(-0.294794 -0.0827733 0)
(0.0607767 0.11281 0)
(0.853969 0.0143272 0)
(1.27275 -0.129452 0)
(1.18965 -0.115198 0)
(1.02625 -0.0284876 0)
(1.10222 0.025044 0)
(-0.172423 0.130024 0)
(-0.145671 -0.0259973 0)
(0.013289 -0.196372 0)
(0.0129412 -0.086555 0)
(0.369209 0.0600934 0)
(1.15262 -0.0457983 0)
(1.34724 -0.14714 0)
(1.26852 -0.100145 0)
(1.12498 -0.0109074 0)
(1.19703 0.0126055 0)
(-0.123402 0.129801 0)
(0.0531231 -0.0444133 0)
(0.413307 -0.212848 0)
(0.456297 -0.0695575 0)
(0.790442 0.0242089 0)
(1.37592 -0.0992964 0)
(1.38378 -0.165147 0)
(1.31476 -0.103979 0)
(1.22065 -0.00530416 0)
(1.30511 0.028339 0)
(-0.057422 0.139286 0)
(0.304948 -0.0865624 0)
(0.842861 -0.246004 0)
(0.905093 -0.107808 0)
(1.17771 -0.0592721 0)
(1.51071 -0.129471 0)
(1.40135 -0.161295 0)
(1.33947 -0.104447 0)
(1.29784 -0.0108755 0)
(1.39642 0.021138 0)
(0.0493839 0.10783 0)
(0.648934 -0.14842 0)
(1.21863 -0.296868 0)
(1.25012 -0.137745 0)
(1.43172 -0.105889 0)
(1.57618 -0.150383 0)
(1.4111 -0.15356 0)
(1.35126 -0.094377 0)
(1.35194 -0.0111817 0)
(1.45758 0.00964349 0)
(0.300813 0.0976636 0)
(1.06268 -0.207791 0)
(1.4742 -0.329636 0)
(1.45229 -0.159097 0)
(1.55605 -0.103556 0)
(1.60256 -0.163179 0)
(1.41818 -0.156803 0)
(1.35699 -0.0931832 0)
(1.38306 0.00221516 0)
(1.48867 0.0199717 0)
(0.8277 -0.0908335 0)
(1.41059 -0.27253 0)
(1.60672 -0.365592 0)
(1.54601 -0.159626 0)
(1.60834 -0.136377 0)
(1.61081 -0.160008 0)
(1.42578 -0.157814 0)
(1.36179 -0.0936118 0)
(1.39992 -0.00567556 0)
(1.50108 0.0237188 0)
(1.42543 -0.0395763 0)
(1.61015 -0.282159 0)
(1.67035 -0.378836 0)
(1.5857 -0.204725 0)
(1.62957 -0.181434 0)
(1.61678 -0.158714 0)
(1.43417 -0.154287 0)
(1.36694 -0.0952407 0)
(1.40838 -0.0173512 0)
(1.50555 0.0153014 0)
(1.53962 0.101548 0)
(1.69038 -0.274044 0)
(1.69413 -0.381618 0)
(1.60908 -0.238025 0)
(1.63932 -0.218601 0)
(1.62187 -0.172648 0)
(1.44178 -0.150909 0)
(1.37382 -0.0939885 0)
(1.42 -0.021321 0)
(1.5114 0.00854669 0)
(1.52138 0.125396 0)
(1.70556 -0.230935 0)
(1.69016 -0.371199 0)
(1.61875 -0.26601 0)
(1.64545 -0.246284 0)
(1.63293 -0.18583 0)
(1.45022 -0.147865 0)
(1.38418 -0.0902148 0)
(1.43198 -0.0198711 0)
(1.51688 0.00851932 0)
(1.45718 0.166562 0)
(1.69703 -0.20519 0)
(1.66743 -0.364692 0)
(1.63112 -0.292228 0)
(1.65768 -0.275595 0)
(1.65074 -0.206562 0)
(1.46035 -0.149731 0)
(1.39662 -0.0884588 0)
(1.44493 -0.020848 0)
(1.52245 0.00890981 0)
(1.4116 0.176682 0)
(1.66787 -0.165521 0)
(1.65261 -0.348227 0)
(1.63349 -0.318305 0)
(1.66622 -0.307035 0)
(1.66225 -0.233402 0)
(1.47093 -0.15407 0)
(1.40974 -0.0910146 0)
(1.45798 -0.0258724 0)
(1.52814 0.00798052 0)
(1.37776 0.181743 0)
(1.63208 -0.128617 0)
(1.64729 -0.332803 0)
(1.64651 -0.335147 0)
(1.68354 -0.339516 0)
(1.66372 -0.256443 0)
(1.48382 -0.161462 0)
(1.4222 -0.0950082 0)
(1.47074 -0.0290641 0)
(1.53314 0.0048416 0)
(1.35388 0.181543 0)
(1.59897 -0.0972963 0)
(1.64055 -0.31024 0)
(1.65658 -0.341023 0)
(1.69332 -0.362017 0)
(1.66763 -0.283009 0)
(1.50118 -0.16671 0)
(1.43054 -0.0966209 0)
(1.47964 -0.0288805 0)
(1.53712 0.0018554 0)
(1.3351 0.179875 0)
(1.57065 -0.0716843 0)
(1.62342 -0.279497 0)
(1.66291 -0.34382 0)
(1.69956 -0.378034 0)
(1.67536 -0.310778 0)
(1.52174 -0.17459 0)
(1.43542 -0.099431 0)
(1.48447 -0.0294991 0)
(1.53912 0.00153722 0)
(1.31867 0.177971 0)
(1.54312 -0.046005 0)
(1.618 -0.268104 0)
(1.66157 -0.340919 0)
(1.70271 -0.388947 0)
(1.68271 -0.343537 0)
(1.54435 -0.187071 0)
(1.43731 -0.102973 0)
(1.48707 -0.0322419 0)
(1.54008 0.00256075 0)
(1.30328 0.17536 0)
(1.51685 -0.0262229 0)
(1.60843 -0.232645 0)
(1.65693 -0.338259 0)
(1.70371 -0.399253 0)
(1.69023 -0.381359 0)
(1.57275 -0.209786 0)
(1.4372 -0.107695 0)
(1.48818 -0.0358784 0)
(1.53995 0.00295411 0)
(1.28829 0.173216 0)
(1.49194 -0.011857 0)
(1.59494 -0.203245 0)
(1.65109 -0.326812 0)
(1.70086 -0.404288 0)
(1.69284 -0.406181 0)
(1.5963 -0.238243 0)
(1.43837 -0.114543 0)
(1.48814 -0.0403245 0)
(1.53916 0.00283277 0)
(1.2738 0.170569 0)
(1.46873 -0.000976383 0)
(1.57651 -0.176216 0)
(1.64277 -0.305865 0)
(1.69668 -0.406802 0)
(1.69139 -0.417626 0)
(1.61618 -0.269523 0)
(1.44389 -0.123084 0)
(1.48815 -0.0447367 0)
(1.53899 0.00270099 0)
(1.26004 0.167489 0)
(1.44667 0.0100767 0)
(1.56012 -0.158626 0)
(1.63003 -0.286231 0)
(1.69231 -0.401253 0)
(1.68979 -0.423429 0)
(1.63141 -0.296821 0)
(1.45387 -0.131067 0)
(1.49008 -0.0486588 0)
(1.53979 0.00347536 0)
(1.24733 0.16332 0)
(1.42555 0.02083 0)
(1.54377 -0.141502 0)
(1.61718 -0.272453 0)
(1.68664 -0.393269 0)
(1.68584 -0.425023 0)
(1.64323 -0.320983 0)
(1.46958 -0.141495 0)
(1.49331 -0.0522113 0)
(1.54167 0.00471144 0)
(1.23585 0.158702 0)
(1.40574 0.0298963 0)
(1.52627 -0.12333 0)
(1.60576 -0.261872 0)
(1.67596 -0.37984 0)
(1.68649 -0.428966 0)
(1.65225 -0.342184 0)
(1.49317 -0.153468 0)
(1.50024 -0.0565795 0)
(1.54483 0.00493842 0)
(1.2256 0.153297 0)
(1.38825 0.0358818 0)
(1.50868 -0.108124 0)
(1.59297 -0.244444 0)
(1.66578 -0.370413 0)
(1.68503 -0.432694 0)
(1.66129 -0.363757 0)
(1.5144 -0.165919 0)
(1.509 -0.0605811 0)
(1.54926 0.00481678 0)
(1.2166 0.147071 0)
(1.37202 0.04024 0)
(1.49234 -0.0962801 0)
(1.57986 -0.229081 0)
(1.65491 -0.356075 0)
(1.68388 -0.433519 0)
(1.66934 -0.381639 0)
(1.54293 -0.182708 0)
(1.51815 -0.0629929 0)
(1.55402 0.00561103 0)
(1.20866 0.140359 0)
(1.35734 0.041582 0)
(1.47712 -0.0860306 0)
(1.56544 -0.213274 0)
(1.6445 -0.34147 0)
(1.6805 -0.433358 0)
(1.67669 -0.396348 0)
(1.56971 -0.203607 0)
(1.52596 -0.0665452 0)
(1.55748 0.00688986 0)
(1.20154 0.133729 0)
(1.34405 0.0407163 0)
(1.46222 -0.0762959 0)
(1.5537 -0.202342 0)
(1.63127 -0.322907 0)
(1.67594 -0.429189 0)
(1.683 -0.407255 0)
(1.59174 -0.226522 0)
(1.53231 -0.0708859 0)
(1.55949 0.0079682 0)
(1.19562 0.12841 0)
(1.33226 0.039605 0)
(1.44883 -0.0693697 0)
(1.54083 -0.187856 0)
(1.61998 -0.309183 0)
(1.6737 -0.422472 0)
(1.68786 -0.409408 0)
(1.61034 -0.251518 0)
(1.53816 -0.0755387 0)
(1.56225 0.00954565 0)
(0.370129 0.0892694 0)
(0.462269 0.139651 0)
(0.512926 0.212723 0)
(0.567412 0.264795 0)
(0.612447 0.306764 0)
(0.657538 0.338744 0)
(0.706276 0.368911 0)
(0.768148 0.398663 0)
(0.853281 0.439844 0)
(1.00987 0.477061 0)
(0.403212 0.126957 0)
(0.471065 0.159589 0)
(0.504477 0.218477 0)
(0.554869 0.265587 0)
(0.60026 0.306624 0)
(0.649021 0.338338 0)
(0.701572 0.368992 0)
(0.766733 0.399331 0)
(0.856007 0.439741 0)
(1.00755 0.467448 0)
(0.46572 0.119519 0)
(0.512179 0.143247 0)
(0.529142 0.189928 0)
(0.568922 0.230405 0)
(0.608293 0.271614 0)
(0.657291 0.306047 0)
(0.712019 0.340524 0)
(0.780608 0.372157 0)
(0.875558 0.411599 0)
(1.03304 0.423103 0)
(0.531172 0.130498 0)
(0.561293 0.158169 0)
(0.569323 0.197022 0)
(0.602016 0.222631 0)
(0.631663 0.255325 0)
(0.674012 0.285111 0)
(0.724277 0.317594 0)
(0.791737 0.346679 0)
(0.886662 0.380856 0)
(1.04102 0.381332 0)
(0.580828 0.149959 0)
(0.604305 0.171144 0)
(0.61198 0.204545 0)
(0.64224 0.228779 0)
(0.667281 0.257494 0)
(0.706644 0.279307 0)
(0.753068 0.306539 0)
(0.817942 0.329378 0)
(0.911118 0.359084 0)
(1.05904 0.351177 0)
(0.62703 0.150956 0)
(0.64637 0.166802 0)
(0.654633 0.194434 0)
(0.683614 0.217138 0)
(0.706494 0.2471 0)
(0.744815 0.270324 0)
(0.788933 0.296126 0)
(0.850695 0.314488 0)
(0.937388 0.336755 0)
(1.07619 0.328507 0)
(0.681742 0.16766 0)
(0.697031 0.181846 0)
(0.702984 0.205975 0)
(0.727558 0.224561 0)
(0.747931 0.249155 0)
(0.784194 0.266747 0)
(0.825568 0.289456 0)
(0.884437 0.303886 0)
(0.964966 0.319885 0)
(1.09183 0.31063 0)
(0.734281 0.180278 0)
(0.746914 0.192241 0)
(0.752118 0.211333 0)
(0.773047 0.225753 0)
(0.790276 0.246996 0)
(0.823052 0.262439 0)
(0.860954 0.281982 0)
(0.916503 0.294969 0)
(0.989927 0.304579 0)
(1.10279 0.293787 0)
(0.77901 0.192 0)
(0.789894 0.201723 0)
(0.79446 0.21743 0)
(0.812334 0.229717 0)
(0.827815 0.247437 0)
(0.857354 0.258656 0)
(0.891853 0.274742 0)
(0.942368 0.28323 0)
(1.01013 0.291244 0)
(1.10984 0.279158 0)
(0.817094 0.199845 0)
(0.82626 0.207694 0)
(0.829824 0.22018 0)
(0.84489 0.230274 0)
(0.858992 0.245026 0)
(0.885615 0.254167 0)
(0.916923 0.266615 0)
(0.963909 0.274633 0)
(1.02488 0.277393 0)
(1.11305 0.265179 0)
(0.848513 0.207292 0)
(0.85605 0.213435 0)
(0.858815 0.223032 0)
(0.871406 0.230698 0)
(0.884249 0.242189 0)
(0.908284 0.248869 0)
(0.937019 0.259253 0)
(0.980365 0.263982 0)
(1.03563 0.264258 0)
(1.11409 0.252392 0)
(0.874113 0.212062 0)
(0.880223 0.216583 0)
(0.882435 0.223667 0)
(0.892976 0.229906 0)
(0.904925 0.239175 0)
(0.926869 0.244049 0)
(0.953692 0.251058 0)
(0.993338 0.253792 0)
(1.0436 0.252263 0)
(1.1138 0.240646 0)
(0.894444 0.217279 0)
(0.899491 0.220381 0)
(0.901819 0.225308 0)
(0.910998 0.228792 0)
(0.922364 0.234816 0)
(0.941974 0.237594 0)
(0.966631 0.242052 0)
(1.00307 0.243574 0)
(1.04907 0.240813 0)
(1.11256 0.229611 0)
(0.911762 0.21937 0)
(0.915859 0.221055 0)
(0.918377 0.224068 0)
(0.926188 0.225942 0)
(0.93679 0.229856 0)
(0.954552 0.231669 0)
(0.977399 0.234081 0)
(1.01082 0.234085 0)
(1.05324 0.230416 0)
(1.11099 0.21945 0)
(0.926365 0.221183 0)
(0.929862 0.221471 0)
(0.932186 0.222739 0)
(0.939002 0.22349 0)
(0.949016 0.225245 0)
(0.965062 0.225515 0)
(0.986265 0.225956 0)
(1.01717 0.22477 0)
(1.05605 0.220036 0)
(1.109 0.20955 0)
(0.939507 0.222843 0)
(0.942839 0.22146 0)
(0.944319 0.221177 0)
(0.950035 0.220294 0)
(0.959454 0.220369 0)
(0.974316 0.219606 0)
(0.994246 0.218618 0)
(1.02305 0.216533 0)
(1.05927 0.211264 0)
(1.10756 0.200668 0)
(0.951776 0.22445 0)
(0.954821 0.222281 0)
(0.955641 0.220503 0)
(0.960675 0.218193 0)
(0.969109 0.216211 0)
(0.982827 0.214039 0)
(1.00142 0.21151 0)
(1.028 0.208056 0)
(1.06151 0.2019 0)
(1.10609 0.191793 0)
(0.964022 0.226446 0)
(0.966868 0.223364 0)
(0.967131 0.219995 0)
(0.971832 0.21593 0)
(0.9791 0.212163 0)
(0.991398 0.208783 0)
(1.00856 0.205351 0)
(1.03325 0.201075 0)
(1.06446 0.1941 0)
(1.10517 0.183763 0)
(0.97692 0.228523 0)
(0.979508 0.225094 0)
(0.979033 0.221189 0)
(0.983478 0.216505 0)
(0.989919 0.211359 0)
(1.00103 0.205747 0)
(1.0162 0.199895 0)
(1.03835 0.194008 0)
(1.0673 0.186393 0)
(1.10442 0.176185 0)
(0.986487 0.231093 0)
(0.989267 0.227332 0)
(0.988878 0.221456 0)
(0.993728 0.214431 0)
(0.999356 0.207724 0)
(1.01003 0.201944 0)
(1.02439 0.196444 0)
(1.0444 0.189485 0)
(1.07094 0.180157 0)
(1.10421 0.169419 0)
(2.23572 1.29536e-07 0)
(2.22671 -4.92914e-07 0)
(2.21684 1.04066e-06 0)
(2.20597 -2.30313e-06 0)
(2.19399 3.75059e-06 0)
(2.18098 -8.71388e-06 0)
(2.16511 1.28899e-05 0)
(2.1545 -2.57707e-05 0)
(1.48792 0.0156108 0)
(0.426013 0.0239506 0)
(2.23572 3.76262e-07 0)
(2.22671 -1.42907e-06 0)
(2.21684 3.01529e-06 0)
(2.20597 -6.53691e-06 0)
(2.19399 1.06151e-05 0)
(2.18097 -2.35925e-05 0)
(2.16512 3.88047e-05 0)
(2.15451 -9.3904e-05 0)
(1.48651 0.049732 0)
(0.461587 0.0605169 0)
(2.23572 6.21589e-07 0)
(2.22671 -2.35286e-06 0)
(2.21684 4.97535e-06 0)
(2.20597 -1.0742e-05 0)
(2.19398 1.74397e-05 0)
(2.18098 -3.79508e-05 0)
(2.16513 6.04345e-05 0)
(2.15452 -0.000139521 0)
(1.50667 0.0868648 0)
(0.512651 0.091246 0)
(2.23572 8.62702e-07 0)
(2.22671 -3.24766e-06 0)
(2.21684 6.87971e-06 0)
(2.20597 -1.47631e-05 0)
(2.19398 2.40175e-05 0)
(2.18098 -5.10297e-05 0)
(2.16513 8.14944e-05 0)
(2.15449 -0.000240067 0)
(1.54614 0.116692 0)
(0.576004 0.111493 0)
(2.23572 1.09733e-06 0)
(2.22671 -4.10198e-06 0)
(2.21684 8.70987e-06 0)
(2.20597 -1.85571e-05 0)
(2.19398 3.02379e-05 0)
(2.18098 -6.23287e-05 0)
(2.16514 9.77708e-05 0)
(2.15436 -0.00033746 0)
(1.59676 0.141382 0)
(0.640753 0.138822 0)
(2.23572 1.3237e-06 0)
(2.22671 -4.90684e-06 0)
(2.21684 1.04468e-05 0)
(2.20597 -2.20795e-05 0)
(2.19398 3.6117e-05 0)
(2.18099 -7.32985e-05 0)
(2.16514 0.000115388 0)
(2.15416 -0.000361792 0)
(1.65256 0.160577 0)
(0.709164 0.156578 0)
(2.23572 1.54019e-06 0)
(2.22671 -5.65553e-06 0)
(2.21683 1.20752e-05 0)
(2.20598 -2.52817e-05 0)
(2.19398 4.14313e-05 0)
(2.18099 -8.21838e-05 0)
(2.16514 0.000133779 0)
(2.154 -0.000416934 0)
(1.71001 0.174189 0)
(0.767819 0.177997 0)
(2.23572 1.74542e-06 0)
(2.22671 -6.34376e-06 0)
(2.21683 1.3586e-05 0)
(2.20598 -2.81726e-05 0)
(2.19398 4.63148e-05 0)
(2.181 -8.99847e-05 0)
(2.16514 0.000150393 0)
(2.15388 -0.000435527 0)
(1.76479 0.181436 0)
(0.819141 0.193446 0)
(2.23572 1.93822e-06 0)
(2.22671 -6.96907e-06 0)
(2.21683 1.49702e-05 0)
(2.20598 -3.07335e-05 0)
(2.19398 5.06904e-05 0)
(2.181 -9.68184e-05 0)
(2.16515 0.000167193 0)
(2.1538 -0.000447092 0)
(1.81564 0.185534 0)
(0.862762 0.20919 0)
(2.23572 2.11774e-06 0)
(2.22671 -7.53155e-06 0)
(2.21683 1.62276e-05 0)
(2.20598 -3.29889e-05 0)
(2.19398 5.45945e-05 0)
(2.18101 -0.000102434 0)
(2.16515 0.000181287 0)
(2.15374 -0.000448088 0)
(1.86355 0.186012 0)
(0.901853 0.219966 0)
(2.23572 2.28339e-06 0)
(2.22671 -8.03268e-06 0)
(2.21683 1.7359e-05 0)
(2.20598 -3.49603e-05 0)
(2.19398 5.80799e-05 0)
(2.18101 -0.000107433 0)
(2.16516 0.000193767 0)
(2.15369 -0.00043944 0)
(1.909 0.182821 0)
(0.935778 0.230145 0)
(2.23572 2.43487e-06 0)
(2.22671 -8.47555e-06 0)
(2.21683 1.83708e-05 0)
(2.20598 -3.66788e-05 0)
(2.19398 6.11493e-05 0)
(2.18102 -0.000111462 0)
(2.16516 0.000203811 0)
(2.15364 -0.000427163 0)
(1.95348 0.176255 0)
(0.965596 0.238117 0)
(2.23572 2.57213e-06 0)
(2.22671 -8.86381e-06 0)
(2.21683 1.92715e-05 0)
(2.20599 -3.81867e-05 0)
(2.19398 6.39136e-05 0)
(2.18102 -0.000115063 0)
(2.16517 0.000211949 0)
(2.15359 -0.000412293 0)
(1.99939 0.167158 0)
(0.991386 0.246099 0)
(2.23572 2.69524e-06 0)
(2.22671 -9.20107e-06 0)
(2.21683 2.00688e-05 0)
(2.20599 -3.95092e-05 0)
(2.19398 6.64091e-05 0)
(2.18102 -0.000118317 0)
(2.16517 0.000218795 0)
(2.15354 -0.000394853 0)
(2.04393 0.155082 0)
(1.01537 0.251609 0)
(2.23572 2.8044e-06 0)
(2.22671 -9.49066e-06 0)
(2.21683 2.07703e-05 0)
(2.20599 -4.06698e-05 0)
(2.19398 6.87119e-05 0)
(2.18102 -0.00012147 0)
(2.16518 0.0002247 0)
(2.15349 -0.000375661 0)
(2.08665 0.140055 0)
(1.03863 0.25681 0)
(2.23572 2.89987e-06 0)
(2.22671 -9.73534e-06 0)
(2.21683 2.13808e-05 0)
(2.20599 -4.16774e-05 0)
(2.19398 7.08431e-05 0)
(2.18102 -0.000124397 0)
(2.16519 0.00022992 0)
(2.15343 -0.000356675 0)
(2.12707 0.121035 0)
(1.06262 0.261635 0)
(2.23572 2.98197e-06 0)
(2.22671 -9.93768e-06 0)
(2.21683 2.19045e-05 0)
(2.20599 -4.25353e-05 0)
(2.19398 7.27928e-05 0)
(2.18102 -0.000127834 0)
(2.16521 0.000235775 0)
(2.15337 -0.000342545 0)
(2.16052 0.0984858 0)
(1.08897 0.266995 0)
(2.23572 3.05109e-06 0)
(2.22671 -1.01003e-05 0)
(2.21683 2.2346e-05 0)
(2.20599 -4.32511e-05 0)
(2.19398 7.45849e-05 0)
(2.18102 -0.000130933 0)
(2.16522 0.000245336 0)
(2.1533 -0.000334308 0)
(2.18311 0.0755216 0)
(1.11859 0.273055 0)
(2.23572 3.10794e-06 0)
(2.22671 -1.02262e-05 0)
(2.21683 2.27072e-05 0)
(2.20599 -4.38172e-05 0)
(2.19398 7.61119e-05 0)
(2.18102 -0.000133879 0)
(2.16525 0.000255795 0)
(2.15322 -0.000338916 0)
(2.1918 0.0561266 0)
(1.15185 0.279083 0)
(2.23572 3.15322e-06 0)
(2.22671 -1.03188e-05 0)
(2.21683 2.29896e-05 0)
(2.20599 -4.42421e-05 0)
(2.19398 7.74213e-05 0)
(2.18102 -0.000136284 0)
(2.16528 0.000267687 0)
(2.15312 -0.000356332 0)
(2.18687 0.0408069 0)
(1.18359 0.285678 0)
(2.23572 -3.15344e-06 0)
(2.22671 1.03193e-05 0)
(2.21683 -2.29907e-05 0)
(2.20599 4.42423e-05 0)
(2.19398 -7.74195e-05 0)
(2.18102 0.000136268 0)
(2.16528 -0.000267682 0)
(2.15312 0.000356307 0)
(2.18693 -0.0407672 0)
(1.18341 -0.285763 0)
(2.23572 -3.10821e-06 0)
(2.22671 1.02269e-05 0)
(2.21683 -2.27085e-05 0)
(2.20599 4.38175e-05 0)
(2.19398 -7.61097e-05 0)
(2.18102 0.000133863 0)
(2.16525 -0.000255794 0)
(2.15322 0.000338891 0)
(2.19193 -0.056093 0)
(1.15173 -0.279157 0)
(2.23572 -3.05142e-06 0)
(2.22671 1.01011e-05 0)
(2.21683 -2.23475e-05 0)
(2.20599 4.32515e-05 0)
(2.19398 -7.45822e-05 0)
(2.18102 0.000130918 0)
(2.16522 -0.000245327 0)
(2.1533 0.000334282 0)
(2.18331 -0.0754939 0)
(1.11849 -0.273113 0)
(2.23572 -2.98236e-06 0)
(2.22671 9.93865e-06 0)
(2.21683 -2.19063e-05 0)
(2.20599 4.25358e-05 0)
(2.19398 -7.27898e-05 0)
(2.18102 0.000127818 0)
(2.16521 -0.000235761 0)
(2.15337 0.00034251 0)
(2.16075 -0.0984839 0)
(1.08888 -0.267028 0)
(2.23572 -2.90032e-06 0)
(2.22671 9.73648e-06 0)
(2.21683 -2.13829e-05 0)
(2.20599 4.16782e-05 0)
(2.19398 -7.084e-05 0)
(2.18102 0.000124381 0)
(2.16519 -0.000229903 0)
(2.15343 0.000356629 0)
(2.1273 -0.12107 0)
(1.06253 -0.261646 0)
(2.23572 -2.80492e-06 0)
(2.22671 9.492e-06 0)
(2.21683 -2.07728e-05 0)
(2.20599 4.06711e-05 0)
(2.19398 -6.87091e-05 0)
(2.18102 0.000121453 0)
(2.16518 -0.00022467 0)
(2.15349 0.000375618 0)
(2.08685 -0.140123 0)
(1.03854 -0.256797 0)
(2.23572 -2.69583e-06 0)
(2.22671 9.20264e-06 0)
(2.21683 -2.00717e-05 0)
(2.20599 3.95111e-05 0)
(2.19398 -6.64072e-05 0)
(2.18102 0.000118299 0)
(2.16517 -0.000218754 0)
(2.15354 0.000394822 0)
(2.04409 -0.155179 0)
(1.01528 -0.25158 0)
(2.23572 -2.57278e-06 0)
(2.22671 8.86563e-06 0)
(2.21683 -1.9275e-05 0)
(2.20599 3.81895e-05 0)
(2.19398 -6.39131e-05 0)
(2.18102 0.000115046 0)
(2.16517 -0.000211901 0)
(2.15359 0.000412275 0)
(1.9995 -0.167275 0)
(0.991294 -0.246059 0)
(2.23572 -2.4356e-06 0)
(2.22671 8.47764e-06 0)
(2.21683 -1.83748e-05 0)
(2.20598 3.66827e-05 0)
(2.19398 -6.11508e-05 0)
(2.18102 0.000111449 0)
(2.16516 -0.000203756 0)
(2.15364 0.000427138 0)
(1.95355 -0.176387 0)
(0.965507 -0.238059 0)
(2.23572 -2.28418e-06 0)
(2.22671 8.03505e-06 0)
(2.21683 -1.73636e-05 0)
(2.20598 3.49654e-05 0)
(2.19398 -5.80836e-05 0)
(2.18101 0.000107423 0)
(2.16516 -0.000193709 0)
(2.15369 0.000439463 0)
(1.90902 -0.182956 0)
(0.935688 -0.230085 0)
(2.23572 -2.1186e-06 0)
(2.22671 7.53422e-06 0)
(2.21683 -1.62328e-05 0)
(2.20598 3.29954e-05 0)
(2.19398 -5.46006e-05 0)
(2.18101 0.000102429 0)
(2.16515 -0.000181225 0)
(2.15374 0.000448017 0)
(1.86351 -0.186138 0)
(0.901759 -0.219909 0)
(2.23572 -1.93915e-06 0)
(2.22671 6.97204e-06 0)
(2.21683 -1.4976e-05 0)
(2.20598 3.07414e-05 0)
(2.19398 -5.06989e-05 0)
(2.181 9.68173e-05 0)
(2.16515 -0.000167134 0)
(2.1538 0.000447024 0)
(1.81556 -0.185649 0)
(0.862666 -0.209133 0)
(2.23572 -1.74641e-06 0)
(2.22671 6.34702e-06 0)
(2.21683 -1.35923e-05 0)
(2.20598 2.81817e-05 0)
(2.19398 -4.63251e-05 0)
(2.181 8.99878e-05 0)
(2.16514 -0.000150333 0)
(2.15388 0.000435276 0)
(1.76466 -0.181534 0)
(0.819043 -0.193384 0)
(2.23572 -1.54124e-06 0)
(2.22671 5.65908e-06 0)
(2.21683 -1.2082e-05 0)
(2.20598 2.52922e-05 0)
(2.19398 -4.14438e-05 0)
(2.18099 8.21907e-05 0)
(2.16514 -0.000133736 0)
(2.154 0.000416781 0)
(1.70985 -0.174272 0)
(0.767704 -0.177955 0)
(2.23572 -1.3248e-06 0)
(2.22671 4.91065e-06 0)
(2.21684 -1.04541e-05 0)
(2.20597 2.20909e-05 0)
(2.19398 -3.61298e-05 0)
(2.18099 7.3306e-05 0)
(2.16514 -0.000115362 0)
(2.15417 0.00036098 0)
(1.65238 -0.160636 0)
(0.709058 -0.156506 0)
(2.23572 -1.09848e-06 0)
(2.22671 4.10604e-06 0)
(2.21684 -8.71757e-06 0)
(2.20597 1.85702e-05 0)
(2.19398 -3.02552e-05 0)
(2.18098 6.23424e-05 0)
(2.16514 -9.77407e-05 0)
(2.15436 0.000337682 0)
(1.59656 -0.141413 0)
(0.640652 -0.138776 0)
(2.23572 -8.63891e-07 0)
(2.22671 3.25191e-06 0)
(2.21684 -6.88762e-06 0)
(2.20597 1.47762e-05 0)
(2.19398 -2.40303e-05 0)
(2.18098 5.10173e-05 0)
(2.16513 -8.15261e-05 0)
(2.15449 0.000238926 0)
(1.54596 -0.116694 0)
(0.575926 -0.111434 0)
(2.23572 -6.22805e-07 0)
(2.22671 2.35728e-06 0)
(2.21684 -4.98363e-06 0)
(2.20597 1.07571e-05 0)
(2.19398 -1.74649e-05 0)
(2.18098 3.80456e-05 0)
(2.16513 -6.05057e-05 0)
(2.15452 0.000138784 0)
(1.50653 -0.0868337 0)
(0.51258 -0.0912117 0)
(2.23572 -3.77495e-07 0)
(2.22671 1.43358e-06 0)
(2.21684 -3.02357e-06 0)
(2.20597 6.55086e-06 0)
(2.19399 -1.06265e-05 0)
(2.18097 2.35209e-05 0)
(2.16512 -3.84712e-05 0)
(2.1545 9.467e-05 0)
(1.48642 -0.0496714 0)
(0.461554 -0.0604735 0)
(2.23572 -1.30784e-07 0)
(2.22671 4.97503e-07 0)
(2.21684 -1.04914e-06 0)
(2.20597 2.31836e-06 0)
(2.19399 -3.77217e-06 0)
(2.18098 8.79722e-06 0)
(2.16511 -1.32918e-05 0)
(2.15451 2.64439e-05 0)
(1.48795 -0.0155496 0)
(0.426016 -0.0239006 0)
(0.98613 -0.231128 0)
(0.988934 -0.227351 0)
(0.988579 -0.221435 0)
(0.99352 -0.214363 0)
(0.999248 -0.207549 0)
(1.0101 -0.201646 0)
(1.02465 -0.196 0)
(1.04493 -0.188916 0)
(1.0717 -0.179455 0)
(1.10518 -0.168635 0)
(0.97664 -0.228544 0)
(0.979285 -0.225088 0)
(0.978839 -0.221137 0)
(0.983383 -0.216388 0)
(0.989938 -0.211144 0)
(1.00126 -0.205432 0)
(1.01662 -0.199447 0)
(1.039 -0.193432 0)
(1.06814 -0.18568 0)
(1.10545 -0.175434 0)
(0.963787 -0.22646 0)
(0.966719 -0.223343 0)
(0.967027 -0.219927 0)
(0.971858 -0.215799 0)
(0.979257 -0.211927 0)
(0.991767 -0.208449 0)
(1.0091 -0.204871 0)
(1.03401 -0.200498 0)
(1.06536 -0.193391 0)
(1.10624 -0.183022 0)
(0.951583 -0.22444 0)
(0.954727 -0.222222 0)
(0.955604 -0.220391 0)
(0.960806 -0.218024 0)
(0.969375 -0.215936 0)
(0.983303 -0.213693 0)
(1.00206 -0.211014 0)
(1.02884 -0.207509 0)
(1.06248 -0.201208 0)
(1.1072 -0.191058 0)
(0.939351 -0.22283 0)
(0.942817 -0.221389 0)
(0.944368 -0.221056 0)
(0.950236 -0.220111 0)
(0.959801 -0.220032 0)
(0.974871 -0.219228 0)
(0.994962 -0.218106 0)
(1.02397 -0.216021 0)
(1.06031 -0.210591 0)
(1.10868 -0.199943 0)
(0.926274 -0.22116 0)
(0.929863 -0.221348 0)
(0.932302 -0.222576 0)
(0.939288 -0.223284 0)
(0.94948 -0.224941 0)
(0.965696 -0.225185 0)
(0.987048 -0.225456 0)
(1.01814 -0.224283 0)
(1.05715 -0.219401 0)
(1.11013 -0.208838 0)
(0.911696 -0.219299 0)
(0.9159 -0.220941 0)
(0.918574 -0.223883 0)
(0.926576 -0.225702 0)
(0.937335 -0.22952 0)
(0.955225 -0.231331 0)
(0.978218 -0.233574 0)
(1.01183 -0.233623 0)
(1.05438 -0.229827 0)
(1.11213 -0.218778 0)
(0.894405 -0.217194 0)
(0.899606 -0.220272 0)
(0.902092 -0.225158 0)
(0.911425 -0.228555 0)
(0.922947 -0.234516 0)
(0.942697 -0.237317 0)
(0.967513 -0.241608 0)
(1.0041 -0.243141 0)
(1.05025 -0.240293 0)
(1.11371 -0.229015 0)
(0.874118 -0.211967 0)
(0.880386 -0.216461 0)
(0.882722 -0.223518 0)
(0.893395 -0.229682 0)
(0.905517 -0.23888 0)
(0.927598 -0.243767 0)
(0.954583 -0.250602 0)
(0.994374 -0.253398 0)
(1.0448 -0.251821 0)
(1.11488 -0.240195 0)
(0.848548 -0.207208 0)
(0.856228 -0.213321 0)
(0.859103 -0.222908 0)
(0.87183 -0.230508 0)
(0.884851 -0.241933 0)
(0.909021 -0.248646 0)
(0.937953 -0.258916 0)
(0.981409 -0.263681 0)
(1.0368 -0.263897 0)
(1.11493 -0.25214 0)
(0.817158 -0.199773 0)
(0.826456 -0.20758 0)
(0.830127 -0.220041 0)
(0.845321 -0.23007 0)
(0.85959 -0.244769 0)
(0.88634 -0.253967 0)
(0.917833 -0.266278 0)
(0.964939 -0.274402 0)
(1.02595 -0.277185 0)
(1.11353 -0.265337 0)
(0.779082 -0.191949 0)
(0.790091 -0.201639 0)
(0.794755 -0.217337 0)
(0.812747 -0.229574 0)
(0.828392 -0.247259 0)
(0.858056 -0.258523 0)
(0.892747 -0.274542 0)
(0.943365 -0.283206 0)
(1.01097 -0.291216 0)
(1.10978 -0.279535 0)
(0.734358 -0.180226 0)
(0.747112 -0.192163 0)
(0.752398 -0.211253 0)
(0.773413 -0.225634 0)
(0.790804 -0.246828 0)
(0.823692 -0.262343 0)
(0.861782 -0.281802 0)
(0.917405 -0.295037 0)
(0.990565 -0.304584 0)
(1.10241 -0.2943 0)
(0.681813 -0.167627 0)
(0.697222 -0.181777 0)
(0.703246 -0.205883 0)
(0.727869 -0.224484 0)
(0.748396 -0.249072 0)
(0.784773 -0.266737 0)
(0.82633 -0.289402 0)
(0.885256 -0.304076 0)
(0.965519 -0.320272 0)
(1.09097 -0.311122 0)
(0.627092 -0.150899 0)
(0.646549 -0.166724 0)
(0.654877 -0.194354 0)
(0.683903 -0.217038 0)
(0.706922 -0.246993 0)
(0.745353 -0.270344 0)
(0.789632 -0.29618 0)
(0.851434 -0.314792 0)
(0.937799 -0.337135 0)
(1.0745 -0.328639 0)
(0.580864 -0.149936 0)
(0.604449 -0.17109 0)
(0.612221 -0.204474 0)
(0.642562 -0.228813 0)
(0.66773 -0.257601 0)
(0.707164 -0.279495 0)
(0.753695 -0.306691 0)
(0.818574 -0.329708 0)
(0.911247 -0.359297 0)
(1.05717 -0.352667 0)
(0.531203 -0.130473 0)
(0.561417 -0.158161 0)
(0.569506 -0.197087 0)
(0.602305 -0.2227 0)
(0.632064 -0.255378 0)
(0.674452 -0.285203 0)
(0.724764 -0.317725 0)
(0.792197 -0.346986 0)
(0.886891 -0.381739 0)
(1.03797 -0.382937 0)
(0.465744 -0.119518 0)
(0.51228 -0.143252 0)
(0.529289 -0.189974 0)
(0.569136 -0.230491 0)
(0.608607 -0.271719 0)
(0.657687 -0.306201 0)
(0.71245 -0.340697 0)
(0.780902 -0.372493 0)
(0.874724 -0.412189 0)
(1.02947 -0.424894 0)
(0.403231 -0.126934 0)
(0.471151 -0.15959 0)
(0.504611 -0.218506 0)
(0.555061 -0.265646 0)
(0.600524 -0.306704 0)
(0.649358 -0.338453 0)
(0.70194 -0.369143 0)
(0.766992 -0.39952 0)
(0.855095 -0.439949 0)
(1.0035 -0.468922 0)
(0.370163 -0.0892498 0)
(0.462361 -0.139651 0)
(0.513059 -0.212753 0)
(0.567596 -0.264853 0)
(0.612695 -0.30685 0)
(0.657868 -0.33886 0)
(0.70664 -0.369077 0)
(0.768461 -0.398828 0)
(0.852431 -0.439994 0)
(1.00491 -0.476878 0)
(1.19644 -0.127952 0)
(1.33337 -0.0412766 0)
(1.45397 0.0692575 0)
(1.54819 0.197944 0)
(1.61742 0.326095 0)
(1.6563 0.398807 0)
(1.67443 0.368879 0)
(1.61538 0.194775 0)
(1.55589 0.0530629 0)
(1.56771 -0.0136654 0)
(1.20218 -0.133376 0)
(1.34477 -0.0431286 0)
(1.46804 0.0765035 0)
(1.56269 0.213299 0)
(1.62732 0.345464 0)
(1.6593 0.405212 0)
(1.66719 0.35903 0)
(1.59931 0.173433 0)
(1.55012 0.0518702 0)
(1.56395 -0.0113158 0)
(1.20909 -0.140177 0)
(1.35757 -0.043945 0)
(1.48322 0.084526 0)
(1.57748 0.22917 0)
(1.63647 0.366966 0)
(1.66162 0.40636 0)
(1.65755 0.345665 0)
(1.58158 0.155073 0)
(1.54461 0.051021 0)
(1.56027 -0.00856246 0)
(1.21679 -0.147057 0)
(1.37163 -0.0443484 0)
(1.50015 0.0951098 0)
(1.5946 0.250545 0)
(1.64238 0.386253 0)
(1.66338 0.4082 0)
(1.64761 0.329067 0)
(1.55971 0.135754 0)
(1.53977 0.0510188 0)
(1.55727 -0.00494627 0)
(1.22547 -0.153593 0)
(1.38743 -0.0415623 0)
(1.5174 0.106539 0)
(1.61167 0.273834 0)
(1.64647 0.397167 0)
(1.66342 0.408184 0)
(1.63432 0.305422 0)
(1.54599 0.122391 0)
(1.53554 0.0520224 0)
(1.55223 -0.0020899 0)
(1.23531 -0.159304 0)
(1.40381 -0.0388925 0)
(1.53732 0.123202 0)
(1.6283 0.29649 0)
(1.65396 0.41121 0)
(1.65901 0.409842 0)
(1.61899 0.279919 0)
(1.53128 0.108256 0)
(1.53092 0.0511494 0)
(1.54696 0.000779182 0)
(1.24625 -0.164255 0)
(1.42328 -0.0308706 0)
(1.55679 0.140116 0)
(1.64446 0.313791 0)
(1.65945 0.425382 0)
(1.65495 0.405967 0)
(1.59971 0.251716 0)
(1.52202 0.0991674 0)
(1.52679 0.0507289 0)
(1.54104 0.00201049 0)
(1.25843 -0.168618 0)
(1.44217 -0.0226602 0)
(1.57741 0.157045 0)
(1.66452 0.340888 0)
(1.66276 0.439195 0)
(1.64941 0.393508 0)
(1.58278 0.227219 0)
(1.51478 0.0903828 0)
(1.52234 0.0487839 0)
(1.537 0.00318024 0)
(1.27162 -0.172568 0)
(1.46249 -0.0118297 0)
(1.59915 0.174008 0)
(1.68047 0.368943 0)
(1.66376 0.445001 0)
(1.63594 0.372131 0)
(1.56624 0.203142 0)
(1.51207 0.0833396 0)
(1.5178 0.0462595 0)
(1.53413 0.00400899 0)
(1.28553 -0.176388 0)
(1.48226 -0.00295956 0)
(1.62384 0.198288 0)
(1.69247 0.401278 0)