/*--------------------------------*- C++ -*----------------------------------*\
  =========                 |
  \\      /  F ield         | OpenFOAM: The Open Source CFD Toolbox
   \\    /   O peration     | Website:  https://openfoam.org
    \\  /    A nd           | Version:  7
     \\/     M anipulation  |
\*---------------------------------------------------------------------------*/
FoamFile
{
    version     2.0;
    format      ascii;
    class       volScalarField;
    location    "0.2";
    object      T;
}
// * * * * * * * * * * * * * * * * * * * * * * * * * * * * * * * * * * * * * //

dimensions      [0 0 0 1 0 0 0];

internalField   nonuniform List<scalar> 
3225
(
1.26464
1.26379
1.26298
1.26219
1.26141
1.26065
1.25991
1.25922
1.25855
1.25787
1.25719
1.25642
1.2556
1.25475
1.25383
1.25282
1.2625
1.26193
1.26134
1.26073
1.26013
1.25953
1.25895
1.25836
1.25777
1.25726
1.2568
1.25637
1.25592
1.25544
1.25483
1.25414
1.25334
1.25242
1.25138
1.2609
1.26049
1.26003
1.25955
1.25904
1.2585
1.25793
1.25734
1.25674
1.25615
1.25558
1.25503
1.25449
1.25397
1.25347
1.25297
1.25238
1.25174
1.25099
1.25011
1.24911
1.25671
1.25639
1.25607
1.25577
1.25541
1.25499
1.25454
1.2541
1.25364
1.25316
1.25266
1.25216
1.25166
1.25117
1.25068
1.25022
1.24976
1.24926
1.24868
1.24806
1.2473
1.24642
1.24541
1.25464
1.25356
1.25297
1.25224
1.25178
1.25134
1.25099
1.25065
1.2503
1.24995
1.24956
1.24911
1.24864
1.24821
1.24778
1.24736
1.24692
1.24649
1.24606
1.24561
1.24508
1.2445
1.24384
1.24306
1.24214
1.2411
1.25121
1.25098
1.25016
1.24965
1.24893
1.2484
1.24782
1.24729
1.2468
1.24638
1.24599
1.24558
1.24516
1.24473
1.24428
1.24381
1.24334
1.2429
1.24249
1.24204
1.24154
1.24096
1.24034
1.2396
1.23875
1.23777
1.23668
1.24805
1.24804
1.24745
1.24703
1.24634
1.2458
1.24517
1.24461
1.24405
1.24352
1.24301
1.24253
1.24208
1.24163
1.24115
1.24064
1.24016
1.23967
1.23917
1.23865
1.23807
1.23745
1.23674
1.23593
1.23501
1.23398
1.23287
1.2454
1.24545
1.24496
1.24465
1.24409
1.24365
1.24309
1.24259
1.24203
1.2415
1.24095
1.2404
1.23984
1.23926
1.23868
1.23814
1.23762
1.23708
1.23653
1.23592
1.23525
1.23454
1.23378
1.23292
1.23197
1.23093
1.22983
1.24323
1.2433
1.2429
1.24267
1.24218
1.24182
1.2413
1.24085
1.24033
1.23982
1.23928
1.23871
1.23812
1.23751
1.23687
1.23623
1.23558
1.23496
1.23434
1.23368
1.233
1.23226
1.23144
1.23055
1.22957
1.22855
1.22747
1.24129
1.24139
1.24104
1.24084
1.24042
1.2401
1.23964
1.23924
1.23876
1.23829
1.23777
1.23723
1.23664
1.23601
1.23534
1.23464
1.23395
1.23326
1.23253
1.2318
1.23109
1.23034
1.22952
1.22863
1.22768
1.2267
1.22568
1.23957
1.23968
1.23938
1.23922
1.23885
1.23856
1.23814
1.23776
1.2373
1.23685
1.23634
1.23581
1.23523
1.2346
1.23393
1.23324
1.23253
1.23178
1.23101
1.23026
1.22949
1.22869
1.22785
1.22698
1.22607
1.22513
1.22416
1.23796
1.23807
1.2378
1.23767
1.23734
1.23707
1.23668
1.23632
1.23588
1.23544
1.23495
1.23442
1.23385
1.23323
1.23256
1.23188
1.23117
1.23041
1.22964
1.22888
1.22809
1.22728
1.22645
1.22558
1.22468
1.22375
1.22282
1.23643
1.23655
1.23631
1.2362
1.23591
1.23567
1.2353
1.23496
1.23453
1.23411
1.23361
1.23309
1.23251
1.23189
1.23123
1.23056
1.22985
1.2291
1.22836
1.22761
1.22683
1.22603
1.22519
1.22434
1.22346
1.22257
1.22166
1.23496
1.23507
1.23486
1.23476
1.2345
1.23428
1.23394
1.23361
1.23321
1.23279
1.2323
1.23178
1.2312
1.23059
1.22994
1.22927
1.22856
1.22784
1.22713
1.2264
1.22563
1.22484
1.22402
1.22318
1.22233
1.22146
1.22059
1.23353
1.23364
1.23345
1.23337
1.23314
1.23293
1.23262
1.23231
1.23192
1.23151
1.23104
1.23052
1.22994
1.22933
1.2287
1.22803
1.22733
1.22664
1.22595
1.22523
1.22449
1.22371
1.2229
1.22206
1.22123
1.22038
1.21955
1.23214
1.23224
1.23208
1.23201
1.2318
1.23162
1.23133
1.23103
1.23066
1.23026
1.22979
1.22927
1.22871
1.22811
1.22748
1.22682
1.22614
1.22549
1.22481
1.22411
1.22337
1.2226
1.22178
1.22094
1.2201
1.2193
1.21853
1.23078
1.23089
1.23074
1.23069
1.2305
1.23033
1.23006
1.22978
1.22942
1.22902
1.22856
1.22805
1.2275
1.22691
1.22629
1.22565
1.22501
1.22437
1.2237
1.223
1.22227
1.22149
1.22067
1.2198
1.21895
1.21819
1.21753
1.22947
1.22957
1.22944
1.2294
1.22923
1.22908
1.22882
1.22855
1.22819
1.2278
1.22734
1.22684
1.2263
1.22572
1.22511
1.22451
1.2239
1.22327
1.22261
1.2219
1.22116
1.22036
1.21952
1.21864
1.2178
1.2171
1.21655
1.22819
1.2283
1.22817
1.22814
1.228
1.22785
1.22761
1.22733
1.22698
1.22659
1.22613
1.22564
1.22511
1.22454
1.22396
1.22339
1.2228
1.22217
1.2215
1.22078
1.22001
1.21919
1.21834
1.21747
1.21667
1.21605
1.21562
1.22696
1.22706
1.22695
1.22692
1.22678
1.22664
1.2264
1.22613
1.22577
1.22538
1.22492
1.22444
1.22391
1.22337
1.22283
1.22227
1.22169
1.22106
1.22037
1.21962
1.2188
1.21794
1.21709
1.21629
1.21559
1.21508
1.21479
1.22576
1.22586
1.22575
1.22573
1.22559
1.22544
1.2252
1.22492
1.22457
1.22417
1.22372
1.22324
1.22273
1.22222
1.2217
1.22114
1.22055
1.2199
1.21919
1.21839
1.21753
1.21664
1.21582
1.21513
1.2146
1.21425
1.21413
1.2246
1.22469
1.22458
1.22455
1.22441
1.22426
1.22401
1.22373
1.22337
1.22297
1.22253
1.22205
1.22157
1.22108
1.22055
1.21999
1.21938
1.2187
1.21794
1.21709
1.21618
1.21529
1.21455
1.21404
1.21372
1.21358
1.21364
1.22346
1.22353
1.22342
1.22339
1.22324
1.22308
1.22283
1.22254
1.22218
1.22178
1.22133
1.22087
1.22041
1.21992
1.21939
1.2188
1.21815
1.21742
1.2166
1.21571
1.21479
1.21396
1.21338
1.21309
1.21301
1.21308
1.21337
1.22232
1.22239
1.22229
1.22224
1.22208
1.22192
1.22166
1.22136
1.22099
1.22058
1.22014
1.21971
1.21924
1.21875
1.21819
1.21756
1.21685
1.21605
1.21519
1.21428
1.2134
1.2127
1.21234
1.21231
1.21243
1.21278
1.21331
1.2212
1.22126
1.22117
1.22111
1.22095
1.22077
1.2205
1.22017
1.21979
1.21937
1.21896
1.21853
1.21805
1.21753
1.21693
1.21624
1.21545
1.21459
1.21371
1.21285
1.21209
1.21161
1.2115
1.21166
1.21208
1.21272
1.21338
1.22008
1.22013
1.22006
1.21999
1.21983
1.21962
1.21933
1.21898
1.21858
1.21818
1.21777
1.21733
1.21683
1.21626
1.2156
1.21482
1.21395
1.21306
1.21222
1.21149
1.21095
1.21074
1.21082
1.21124
1.21196
1.21281
1.21353
1.21896
1.21902
1.21896
1.21887
1.2187
1.21846
1.21813
1.21776
1.21737
1.21698
1.21655
1.21609
1.21556
1.21492
1.21416
1.21331
1.21239
1.21151
1.21079
1.21029
1.21006
1.21009
1.2104
1.21109
1.21203
1.21301
1.21369
1.21785
1.21792
1.21785
1.21774
1.21753
1.21725
1.2169
1.21653
1.21616
1.21575
1.21531
1.2148
1.2142
1.21347
1.21262
1.2117
1.21081
1.21004
1.20952
1.20932
1.20939
1.20969
1.21029
1.21119
1.21226
1.21325
1.21376
1.21675
1.2168
1.2167
1.21655
1.21631
1.21599
1.21565
1.2153
1.21492
1.2145
1.21401
1.21342
1.21273
1.2119
1.21099
1.21009
1.20932
1.20874
1.2085
1.20859
1.20895
1.20956
1.21043
1.2115
1.21262
1.21345
1.21373
1.21563
1.21563
1.2155
1.2153
1.21502
1.21472
1.2144
1.21404
1.21365
1.21319
1.21263
1.21193
1.21111
1.21022
1.20934
1.20857
1.208
1.20769
1.20775
1.20812
1.2088
1.20968
1.21076
1.21195
1.21299
1.21356
1.21362
1.21446
1.2144
1.21424
1.214
1.21374
1.21346
1.21313
1.21276
1.21232
1.21179
1.21112
1.2103
1.20937
1.20849
1.20777
1.20726
1.20694
1.20694
1.20726
1.20796
1.2089
1.21002
1.21125
1.21242
1.21324
1.21353
1.21343
1.21324
1.21314
1.21294
1.21272
1.21247
1.21218
1.21184
1.21143
1.2109
1.21025
1.20946
1.20854
1.20759
1.20683
1.20638
1.2062
1.20621
1.20647
1.2071
1.20806
1.20923
1.21052
1.21178
1.2128
1.21332
1.21338
1.21312
1.21198
1.21185
1.21166
1.21146
1.21119
1.21088
1.2105
1.21
1.20935
1.20854
1.20764
1.20673
1.20591
1.20539
1.20527
1.2054
1.20576
1.20637
1.20725
1.2084
1.20974
1.21109
1.21225
1.213
1.21326
1.21314
1.21267
1.21068
1.21057
1.2104
1.21019
1.20989
1.20953
1.20905
1.20843
1.20762
1.20668
1.20576
1.20499
1.20448
1.2043
1.20441
1.20489
1.20564
1.20655
1.20767
1.20897
1.21033
1.21159
1.21254
1.21303
1.21305
1.21277
1.21208
1.20944
1.20935
1.20915
1.2089
1.20855
1.20809
1.20745
1.20666
1.20573
1.20477
1.20398
1.20351
1.20338
1.20348
1.20391
1.20474
1.20579
1.20698
1.2083
1.20965
1.21091
1.21195
1.21262
1.21287
1.21274
1.21226
1.21132
1.20828
1.20815
1.20789
1.20758
1.20711
1.20648
1.20566
1.20472
1.20377
1.20298
1.20251
1.20243
1.20254
1.20299
1.20379
1.2049
1.20619
1.20759
1.209
1.21029
1.21137
1.21212
1.21252
1.21253
1.21226
1.21156
1.21036
1.20717
1.20696
1.20659
1.20614
1.20548
1.20466
1.20369
1.20272
1.20194
1.20151
1.20149
1.20164
1.20208
1.20287
1.20398
1.20533
1.2068
1.20827
1.20963
1.21077
1.2116
1.2121
1.21221
1.21204
1.21155
1.21062
1.20922
1.20598
1.20569
1.20513
1.20448
1.20359
1.20263
1.20167
1.20089
1.20046
1.20046
1.20075
1.20128
1.20205
1.20308
1.20443
1.20597
1.2075
1.20891
1.2101
1.21102
1.21162
1.21184
1.21172
1.21133
1.2106
1.20949
1.20802
1.20463
1.2042
1.2034
1.20252
1.20149
1.20056
1.19985
1.19947
1.19948
1.19975
1.20041
1.20131
1.20235
1.2036
1.20509
1.20666
1.20815
1.20942
1.2104
1.21108
1.2114
1.21133
1.211
1.21038
1.20949
1.20834
1.20682
1.203
1.20237
1.20133
1.20033
1.19937
1.19874
1.19849
1.19857
1.19888
1.19951
1.20047
1.20164
1.20292
1.20433
1.20584
1.20733
1.20867
1.20975
1.21052
1.21091
1.21088
1.21057
1.21
1.20927
1.20841
1.20721
1.20556
1.20099
1.20014
1.19902
1.19814
1.19754
1.19743
1.19762
1.19807
1.19877
1.1997
1.20085
1.20218
1.20361
1.2051
1.20657
1.20793
1.20907
1.2099
1.21038
1.21039
1.21008
1.20948
1.20886
1.20823
1.20737
1.2059
1.20434
1.19855
1.19767
1.19679
1.19633
1.1963
1.19659
1.19721
1.19807
1.19906
1.2002
1.20146
1.20282
1.20427
1.20579
1.20725
1.20846
1.20931
1.20979
1.20983
1.20952
1.20888
1.2083
1.20786
1.20729
1.20606
1.20462
1.20327
1.19592
1.19539
1.19505
1.19514
1.19552
1.19628
1.19733
1.19845
1.19961
1.20082
1.2021
1.20345
1.20491
1.20645
1.20782
1.20876
1.20925
1.20926
1.20888
1.20818
1.20765
1.20735
1.20699
1.20606
1.2047
1.20346
1.20253
1.19368
1.19374
1.19391
1.19444
1.1953
1.19652
1.19782
1.19902
1.20017
1.20137
1.20266
1.20409
1.20564
1.20711
1.20813
1.20867
1.20868
1.20825
1.20745
1.2069
1.20671
1.20653
1.20585
1.20462
1.20345
1.20265
1.20219
1.19221
1.19263
1.19329
1.19434
1.19567
1.19711
1.19839
1.19955
1.20064
1.20184
1.20322
1.20487
1.20642
1.20752
1.20804
1.20803
1.20757
1.20673
1.20614
1.20598
1.20592
1.20544
1.20438
1.20329
1.2026
1.20227
1.20216
1.19113
1.19209
1.19335
1.19484
1.19636
1.19766
1.19883
1.19988
1.20104
1.20238
1.20403
1.20567
1.20688
1.20738
1.20734
1.20682
1.20596
1.2054
1.20524
1.20523
1.20486
1.20398
1.20301
1.20242
1.20219
1.20222
1.20228
1.19069
1.19229
1.19399
1.1956
1.19689
1.19799
1.19898
1.2002
1.20162
1.20331
1.20489
1.20608
1.2066
1.20653
1.20601
1.2052
1.20467
1.20448
1.20447
1.20415
1.20344
1.20262
1.20217
1.20202
1.20219
1.20241
1.2024
1.19112
1.1931
1.1947
1.19603
1.19709
1.19809
1.19938
1.20084
1.20255
1.20412
1.20528
1.20569
1.20558
1.20509
1.20445
1.20395
1.20372
1.20365
1.20332
1.20275
1.20209
1.20182
1.20179
1.20212
1.20252
1.20258
1.20226
1.19203
1.19377
1.19503
1.19606
1.19722
1.19863
1.20017
1.20177
1.20322
1.20434
1.20476
1.20462
1.20413
1.2036
1.20317
1.20291
1.20277
1.20242
1.20195
1.20144
1.20132
1.20143
1.20196
1.20255
1.20276
1.20252
1.20153
1.19264
1.19391
1.19508
1.19643
1.1979
1.19947
1.201
1.20235
1.20331
1.20366
1.20353
1.20318
1.20272
1.20227
1.20196
1.20175
1.20142
1.20106
1.20074
1.20072
1.20093
1.20158
1.20232
1.20276
1.20266
1.20191
1.20025
1.19275
1.19422
1.1957
1.19721
1.19869
1.20008
1.20133
1.20222
1.20253
1.20242
1.20214
1.20176
1.20134
1.20095
1.20065
1.20034
1.20005
1.19997
1.20006
1.20036
1.20108
1.20185
1.20241
1.20244
1.20198
1.20075
1.19882
1.19346
1.19502
1.1965
1.1979
1.19913
1.2002
1.20101
1.20138
1.20134
1.2011
1.20071
1.20028
1.19987
1.19951
1.19924
1.19907
1.19908
1.19933
1.19975
1.20055
1.20135
1.20189
1.20194
1.20157
1.20079
1.19946
1.19751
1.19426
1.19573
1.19698
1.19817
1.19914
1.19985
1.20015
1.20013
1.19995
1.19961
1.19916
1.1987
1.19832
1.19812
1.1981
1.1982
1.19858
1.1991
1.19996
1.20078
1.20135
1.2014
1.20099
1.20022
1.19936
1.19819
1.1962
1.1948
1.19608
1.19708
1.198
1.19862
1.19887
1.1988
1.19858
1.19827
1.1979
1.19749
1.19714
1.19701
1.19704
1.19728
1.19781
1.19848
1.19936
1.20017
1.20072
1.20085
1.20053
1.19968
1.19873
1.19786
1.19681
1.19482
1.195
1.19608
1.19674
1.19726
1.19745
1.19744
1.19723
1.19685
1.19645
1.19612
1.19593
1.19592
1.19602
1.19639
1.19698
1.19771
1.19865
1.19948
1.20007
1.20019
1.20003
1.19937
1.1982
1.19706
1.19612
1.19512
1.19321
1.19478
1.19563
1.19591
1.19608
1.19598
1.19577
1.19541
1.19501
1.1947
1.19465
1.1947
1.19496
1.19549
1.19612
1.1969
1.19782
1.1986
1.1992
1.19941
1.19931
1.19893
1.19798
1.19653
1.19527
1.19428
1.19327
1.19157
1.19404
1.19456
1.19457
1.19448
1.19413
1.19376
1.19344
1.1933
1.19335
1.19352
1.19389
1.19452
1.1952
1.19608
1.19699
1.19775
1.19823
1.19839
1.1983
1.19807
1.19752
1.19638
1.19476
1.19354
1.19261
1.19164
1.19027
1.1927
1.19283
1.19263
1.19245
1.19213
1.19188
1.19185
1.192
1.19235
1.19291
1.19358
1.19428
1.1952
1.19609
1.19683
1.19733
1.19739
1.19719
1.19681
1.19644
1.19584
1.19467
1.19306
1.19199
1.1913
1.19046
1.18932
1.19086
1.19085
1.19067
1.19055
1.19041
1.1905
1.19071
1.19116
1.19188
1.19263
1.19342
1.19436
1.1952
1.19585
1.19625
1.19641
1.19622
1.1956
1.19497
1.19454
1.19403
1.19301
1.19161
1.19073
1.19029
1.18965
1.18868
1.18851
1.18872
1.18866
1.18874
1.18906
1.18948
1.1901
1.19088
1.19165
1.19252
1.19344
1.19425
1.19489
1.19522
1.19529
1.19516
1.19462
1.19369
1.1929
1.19254
1.19217
1.19137
1.19034
1.18974
1.18958
1.18921
1.18835
1.18532
1.18598
1.1867
1.18741
1.18812
1.18898
1.18987
1.19069
1.19161
1.19247
1.1932
1.19375
1.19409
1.19413
1.19396
1.19355
1.19271
1.19157
1.19096
1.19074
1.19044
1.18984
1.18925
1.18905
1.18919
1.189
1.18823
1.18359
1.18487
1.18592
1.18682
1.18779
1.18874
1.18968
1.19064
1.1915
1.19217
1.1926
1.19279
1.19276
1.19254
1.19226
1.19174
1.19066
1.18958
1.18922
1.18922
1.18916
1.18882
1.18852
1.1886
1.189
1.18886
1.18823
1.18306
1.18428
1.18553
1.1868
1.18779
1.18874
1.18966
1.19044
1.19103
1.19142
1.19158
1.19138
1.19094
1.19059
1.19037
1.1899
1.18884
1.18796
1.18779
1.18798
1.18827
1.18819
1.18812
1.18842
1.18891
1.18872
1.18822
1.18498
1.18567
1.18635
1.18712
1.188
1.18873
1.18936
1.18985
1.19015
1.19023
1.19006
1.18961
1.18878
1.18843
1.18836
1.18809
1.18735
1.1868
1.1867
1.18706
1.18769
1.18777
1.1879
1.18844
1.18884
1.18859
1.18812
1.18665
1.18673
1.18694
1.18733
1.18791
1.1884
1.18877
1.18895
1.18885
1.18862
1.18823
1.18729
1.18663
1.18649
1.18651
1.18628
1.18592
1.1858
1.18597
1.18667
1.18741
1.18752
1.18779
1.18851
1.18875
1.1884
1.18788
1.18757
1.18737
1.18733
1.18742
1.18757
1.18765
1.18764
1.18738
1.18707
1.18669
1.18581
1.1848
1.18463
1.18477
1.18488
1.18477
1.18469
1.18486
1.18552
1.18662
1.18733
1.18738
1.18769
1.1885
1.18867
1.18822
1.18755
1.1877
1.18727
1.18705
1.18679
1.1866
1.18628
1.18577
1.18535
1.18507
1.18465
1.18372
1.18288
1.18279
1.18319
1.18381
1.18398
1.18398
1.1843
1.18533
1.18661
1.18725
1.18725
1.18755
1.18833
1.18854
1.1881
1.18724
1.1872
1.18656
1.18595
1.1855
1.18496
1.18427
1.18338
1.18298
1.18295
1.18268
1.18186
1.18136
1.18134
1.18186
1.1829
1.1835
1.18369
1.18411
1.18531
1.18655
1.18708
1.18709
1.18736
1.188
1.18824
1.18796
1.18712
1.18553
1.18464
1.184
1.18335
1.18261
1.18149
1.18082
1.18084
1.18088
1.18073
1.1805
1.18043
1.18055
1.18127
1.18242
1.18311
1.18341
1.18408
1.18533
1.1864
1.18674
1.18685
1.18721
1.1876
1.18775
1.18763
1.18709
1.1823
1.18143
1.18088
1.1804
1.17946
1.17855
1.17858
1.17879
1.17889
1.17893
1.17906
1.17939
1.18008
1.18127
1.1823
1.18286
1.18315
1.18406
1.18533
1.18616
1.18623
1.18648
1.18706
1.18728
1.18715
1.18708
1.18682
1.17733
1.17707
1.17732
1.17716
1.17634
1.17588
1.17619
1.17717
1.17778
1.1778
1.17781
1.17843
1.17974
1.18128
1.18227
1.18248
1.18278
1.18396
1.18525
1.18581
1.18571
1.18603
1.18679
1.18706
1.18672
1.18644
1.18625
1.17171
1.17239
1.17373
1.17373
1.17323
1.17345
1.1741
1.17572
1.17695
1.17726
1.17716
1.17785
1.17955
1.18126
1.18207
1.18204
1.18244
1.18375
1.18499
1.18541
1.18529
1.18555
1.18635
1.18678
1.18651
1.18596
1.18564
1.16529
1.16787
1.16972
1.17053
1.17116
1.17172
1.17297
1.17494
1.17602
1.17652
1.17673
1.17774
1.1795
1.18095
1.18157
1.18155
1.18222
1.18354
1.18452
1.18484
1.18495
1.1852
1.18576
1.18628
1.18629
1.18582
1.18523
1.15938
1.16384
1.16613
1.16759
1.16888
1.17038
1.1727
1.17449
1.17532
1.17555
1.17641
1.17793
1.17964
1.18056
1.18073
1.18104
1.18208
1.18331
1.18387
1.1841
1.1846
1.18504
1.18523
1.18555
1.18586
1.18574
1.1851
1.15385
1.16183
1.16317
1.16465
1.1669
1.16979
1.17275
1.17432
1.17441
1.17446
1.17598
1.17807
1.17959
1.18002
1.17984
1.18053
1.18186
1.18293
1.18308
1.18332
1.18412
1.18491
1.18495
1.18484
1.18511
1.18544
1.1851
1.14273
1.16108
1.16261
1.16373
1.16632
1.16985
1.17263
1.17382
1.1735
1.17393
1.17566
1.1779
1.17905
1.17915
1.17915
1.18006
1.18156
1.18239
1.18246
1.18263
1.18353
1.18454
1.18472
1.18439
1.18443
1.18483
1.18491
1.11329
1.15501
1.16169
1.16449
1.16739
1.16995
1.17141
1.17208
1.17262
1.17402
1.17603
1.17747
1.17802
1.17802
1.17857
1.17972
1.181
1.18165
1.18195
1.18223
1.18294
1.18386
1.18429
1.18413
1.18391
1.18413
1.18439
1.05939
1.12622
1.15559
1.16586
1.16984
1.17094
1.17043
1.17055
1.17209
1.17434
1.17624
1.17687
1.1767
1.17714
1.17823
1.17955
1.18022
1.18068
1.1814
1.18214
1.18256
1.18303
1.18361
1.1839
1.18371
1.18358
1.18366
1.02012
1.06337
1.12997
1.16092
1.17016
1.17112
1.16967
1.17012
1.17202
1.17466
1.17578
1.17577
1.17555
1.17651
1.17826
1.17934
1.17938
1.17962
1.18063
1.18193
1.18242
1.18229
1.18273
1.18345
1.18368
1.18328
1.183
1.00886
1.01612
1.06462
1.13669
1.16528
1.16761
1.16903
1.17061
1.17313
1.17447
1.17492
1.17437
1.17477
1.17615
1.17807
1.17889
1.1788
1.17883
1.17989
1.18144
1.18206
1.18188
1.182
1.18279
1.18348
1.18325
1.1826
1.00536
1.00561
1.01355
1.06677
1.13635
1.16081
1.16974
1.17246
1.17295
1.17302
1.17306
1.17369
1.17461
1.17612
1.17733
1.17798
1.17817
1.17835
1.17931
1.18068
1.18144
1.18154
1.18147
1.18207
1.1829
1.18306
1.18252
1.00344
1.0034
1.00365
1.01185
1.06417
1.13272
1.16587
1.17261
1.17209
1.17109
1.1721
1.17403
1.17554
1.17586
1.17599
1.17663
1.17758
1.17842
1.17896
1.17973
1.18054
1.18115
1.18134
1.18145
1.18201
1.18251
1.18245
1.00207
1.00222
1.00216
1.00239
1.01038
1.06294
1.13843
1.16724
1.1687
1.17005
1.17216
1.17454
1.17534
1.17528
1.17476
1.17554
1.17719
1.17849
1.17877
1.17873
1.17944
1.18063
1.18143
1.18132
1.18118
1.18159
1.18211
1.00122
1.00134
1.00144
1.00137
1.0016
1.00961
1.06438
1.13405
1.16271
1.17178
1.17284
1.17337
1.17375
1.17379
1.17398
1.175
1.17684
1.17793
1.17819
1.17795
1.17857
1.18002
1.18113
1.18132
1.18088
1.18087
1.18139
1.00073
1.00079
1.00087
1.00092
1.00087
1.00109
1.00884
1.06035
1.13281
1.16814
1.17273
1.17191
1.17227
1.17344
1.17445
1.17507
1.17595
1.17678
1.17739
1.17771
1.1781
1.17921
1.18031
1.18087
1.18084
1.18061
1.18074
1.00043
1.00046
1.00051
1.00057
1.0006
1.00056
1.00075
1.0083
1.06175
1.13878
1.16617
1.16868
1.17131
1.17431
1.1753
1.17498
1.17469
1.17531
1.17689
1.17811
1.17832
1.17838
1.17908
1.18001
1.18065
1.18072
1.18054
1.00026
1.00028
1.0003
1.00033
1.00037
1.00039
1.00036
1.00057
1.0085
1.06324
1.13529
1.16149
1.17124
1.17495
1.17501
1.17368
1.17305
1.17416
1.17666
1.17814
1.17843
1.17793
1.17816
1.17917
1.18016
1.18046
1.18044
1.00015
1.00017
1.00018
1.0002
1.00022
1.00024
1.00025
1.00024
1.00044
1.0082
1.06218
1.13464
1.16609
1.17453
1.17398
1.17203
1.17216
1.1737
1.17623
1.17732
1.17751
1.17737
1.17795
1.17902
1.17956
1.17979
1.17996
1.00009
1.0001
1.00011
1.00012
1.00013
1.00015
1.00016
1.00017
1.00016
1.00036
1.00864
1.06492
1.1386
1.16661
1.17294
1.17215
1.17265
1.17387
1.1753
1.17594
1.17614
1.17677
1.17809
1.17922
1.17931
1.17908
1.17926
1.00006
1.00006
1.00007
1.00007
1.00008
1.00009
1.0001
1.00011
1.00011
1.00011
1.00034
1.00937
1.06666
1.13708
1.1677
1.17177
1.17303
1.17405
1.17511
1.17539
1.17533
1.17605
1.17756
1.17875
1.17896
1.17867
1.1788
1.00003
1.00004
1.00004
1.00004
1.00005
1.00005
1.00006
1.00007
1.00008
1.00008
1.00008
1.00033
1.00968
1.06772
1.14319
1.16642
1.17061
1.17341
1.17487
1.1753
1.17505
1.17549
1.17667
1.17786
1.17827
1.17839
1.17874
1.00002
1.00002
1.00002
1.00003
1.00003
1.00003
1.00004
1.00004
1.00005
1.00005
1.00005
1.00005
1.00033
1.01082
1.07454
1.14429
1.16448
1.17268
1.1743
1.17436
1.17415
1.17487
1.17625
1.17733
1.17758
1.17791
1.17848
1.00001
1.00001
1.00002
1.00002
1.00002
1.00002
1.00002
1.00003
1.00003
1.00003
1.00004
1.00004
1.00004
1.0004
1.01255
1.07658
1.14277
1.17043
1.17356
1.17271
1.17289
1.17411
1.17631
1.17732
1.17722
1.17731
1.17787
1.00001
1.00001
1.00001
1.00001
1.00001
1.00001
1.00001
1.00002
1.00002
1.00002
1.00002
1.00003
1.00003
1.00003
1.00045
1.01388
1.08063
1.1509
1.17032
1.17079
1.1719
1.1741
1.17612
1.17667
1.17653
1.17662
1.17726
1.00001
1.00001
1.00001
1.00001
1.00001
1.00001
1.00001
1.00001
1.00001
1.00001
1.00002
1.00002
1.00002
1.00002
1.00002
1.00057
1.01652
1.08961
1.15109
1.16576
1.17244
1.17488
1.17546
1.17534
1.17533
1.1758
1.17702
1
1
1
1
1
1.00001
1.00001
1.00001
1.00001
1.00001
1.00001
1.00001
1.00001
1.00001
1.00001
1.00002
1.00077
1.01973
1.09232
1.14938
1.17158
1.17528
1.17522
1.1739
1.17415
1.1756
1.17744
1
1
1
1
1
1
1
1
1.00001
1.00001
1.00001
1.00001
1.00001
1.00001
1.00001
1.00001
1.00002
1.00099
1.02293
1.09813
1.15907
1.17274
1.1721
1.17215
1.17348
1.17606
1.17728
1
1
1
1
1
1
1
1
1
1
1
1
1.00001
1.00001
1.00001
1.00001
1.00001
1.00002
1.00141
1.02809
1.11017
1.16034
1.16752
1.1719
1.17477
1.17608
1.17631
1
1
1
1
1
1
1
1
1
1
1
1
1
1
1
1.00001
1.00001
1.00001
1.00002
1.00203
1.03442
1.11274
1.15677
1.17328
1.17586
1.17607
1.17487
1
1
1
1
1
1
1
1
1
1
1
1
1
1
1
1
1
1
1
1.00003
1.00274
1.03958
1.11911
1.16606
1.17452
1.17383
1.1728
1
1
1
1
1
1
1
1
1
1
1
1
1
1
1
1
1
1
1
1
1.00005
1.00404
1.04905
1.13345
1.16729
1.16959
1.17219
1
1
1
1
1
1
1
1
1
1
1
1
1
1
1
1
1
1
1
1
1
1.00009
1.00615
1.06055
1.13447
1.16325
1.17436
1
1
1
1
1
1
1
1
1
1
1
1
1
1
1
1
1
1
1
1
1
1
1.00016
1.00857
1.06693
1.13994
1.17158
1
1
1
1
1
1
1
1
1
1
1
1
1
1
1
1
1
1
1
1
1
1
1
1.00027
1.01228
1.08095
1.15414
1
1
1
1
1
1
1
1
1
1
1
1
1
1
1
1
1
1
1
1
1
1
1
1
1.00057
1.01869
1.09732
1
1
1
1
1
1
1
1
1
1
1
1
1
1
1
1
1
1
1
1
1
1
1
1
1.00001
1.00107
1.02592
1
1
1
1
1
1
1
1
1
1
1
1
1
1
1
1
1
1
1
1
1
1
1
1
1
1.00001
1.00179
1
1
1
1
1
1
1
1
1
1
1
1
1
1
1
1
1
1
1
1
1
1
1
1
1
1
1.00003
1
1
1
1
1
1
1
1
1
1
1
1
1
1
1
1
1
1
1
1
1
1
1
1
1
1
1
1
1
1
1
1
1
1
1
1
1
1
1
1
1
1
1
1
1
1
1
1
1
1
1
1
1
1
1
1
1
1
1
1
1
1
1
1
1
1
1
1
1
1
1
1
1
1
1
1
1
1
1
1
1
1
1
1
1
1
1
1
1
1
1
1
1
1
1
1
1
1
1
1
1
1
1
1
1
1
1
1
1
1
1
1
1
1
1
1
1
1
1
1
1
1
1
1
1
1
1
1
1
1
1
1
1
1
1
1
1
1
1
1
1
1
1
1
1
1
1
1
1
1
1
1
1
1
1
1
1
1
1
1
1
1
1
1
1
1
1
1
1
1
1
1
1
1
1
1
1
1
1
1
1
1
1
1
1
1
1
1
1
1
1
1
1
1
1
1
1
1
1
1
1
1
1
1
1
1
1
1
1
1
1
1
1
1
1
1
1
1
1
1
1
1
1
1
1
1
1
1
1
1
1
1
1
1
1
1
1
1
1
1
1
1
1
1
1
1
1
1
1
1
1
1
1
1
1
1
1
1
1
1
1
1
1
1
1
1
1
1
1
1
1
1
1
1
1
1
1
1
1
1
1
1
1
1
1
1
1
1
1
1
1
1
1
1
1
1
1
1
1
1
1
1
1
1
1
1
1
1
1
1
1
1
1
1
1
1
1
1
1
1
1
1
1
1
1
1
1
1
1
1
1
1
1
1
1
1
1
1
1
)
;

boundaryField
{
    inlet
    {
        type            fixedValue;
        value           nonuniform 0();
    }
    outlet
    {
        type            inletOutlet;
        inletValue      nonuniform 0();
        value           nonuniform 0();
    }
    triangle
    {
        type            zeroGradient;
    }
    top
    {
        type            symmetryPlane;
    }
    bottom
    {
        type            symmetryPlane;
    }
    defaultFaces
    {
        type            empty;
    }
    procBoundary19to11
    {
        type            processor;
        value           nonuniform List<scalar> 
16
(
1.26733
1.26639
1.2655
1.2655
1.26366
1.26307
1.26307
1.26161
1.26127
1.26127
1.25856
1.25746
1.25717
1.25717
1.25516
1.25516
)
;
    }
    procBoundary19to18
    {
        type            processor;
        value           nonuniform List<scalar> 
115
(
1.25361
1.24991
1.24688
1.24441
1.24228
1.2404
1.23866
1.23704
1.23549
1.234
1.23256
1.23116
1.2298
1.22848
1.22721
1.22598
1.22479
1.22363
1.22249
1.22136
1.22023
1.21911
1.21798
1.21685
1.21573
1.21457
1.21334
1.21208
1.21081
1.20956
1.20843
1.20741
1.20635
1.20514
1.2037
1.20191
1.19962
1.1968
1.19407
1.1921
1.19064
1.18968
1.18951
1.19036
1.19128
1.19156
1.19202
1.19285
1.19361
1.19408
1.19427
1.19404
1.19301
1.19121
1.18819
1.18406
1.18133
1.18169
1.18502
1.18805
1.18933
1.18964
1.18898
1.18694
1.18345
1.17787
1.16891
1.15682
1.14237
1.12304
1.09413
1.05665
1.02796
1.01442
1.00847
1.00527
1.00321
1.00191
1.00114
1.00067
1.0004
1.00024
1.00014
1.00008
1.00005
1.00003
1.00002
1.00001
1.00001
1
1
1
1
1
1
1
1
1
1
1
1
1
1
1
1
1
1
1
1
1
1
1
1
1
1
)
;
    }
    procBoundary19to20
    {
        type            processor;
        value           nonuniform List<scalar> 
120
(
1.25173
1.25022
1.248
1.24428
1.23994
1.2355
1.23169
1.22867
1.22637
1.22463
1.22317
1.22189
1.22078
1.21975
1.21877
1.21782
1.21693
1.21609
1.21534
1.21469
1.21418
1.21387
1.21376
1.21377
1.21379
1.21382
1.21381
1.21374
1.2136
1.21334
1.21295
1.21243
1.21175
1.21091
1.2099
1.20874
1.20751
1.20629
1.20506
1.2039
1.2029
1.20223
1.20196
1.20199
1.20213
1.2022
1.20194
1.20107
1.19966
1.19808
1.19665
1.19531
1.19392
1.19246
1.191
1.18973
1.18878
1.18817
1.18777
1.1875
1.18737
1.18733
1.18735
1.1874
1.18726
1.18689
1.18643
1.18607
1.18596
1.186
1.18583
1.1853
1.18468
1.18425
1.18406
1.18405
1.18395
1.18352
1.18284
1.18222
1.18186
1.18184
1.18193
1.18165
1.18101
1.18037
1.18011
1.17997
1.17962
1.17927
1.17904
1.17882
1.17854
1.17822
1.17796
1.17778
1.17725
1.17596
1.17441
1.17378
1.17446
1.17593
1.17567
1.17142
1.15345
1.10224
1.0342
1.00356
1.00008
1
1
1
1
1
1
1
1
1
1
1
)
;
    }
    procBoundary19to26
    {
        type            processor;
        value           uniform 1;
    }
    procBoundary19to27
    {
        type            processor;
        value           nonuniform List<scalar> 
28
(
1
1
1
1
1
1
1
1
1
1
1
1
1
1
1
1
1
1
1
1
1
1
1
1
1
1
1
1
)
;
    }
}


// ************************************************************************* //
