/*--------------------------------*- C++ -*----------------------------------*\
  =========                 |
  \\      /  F ield         | OpenFOAM: The Open Source CFD Toolbox
   \\    /   O peration     | Website:  https://openfoam.org
    \\  /    A nd           | Version:  7
     \\/     M anipulation  |
\*---------------------------------------------------------------------------*/
FoamFile
{
    version     2.0;
    format      ascii;
    class       volVectorField;
    location    "1.2";
    object      U;
}
// * * * * * * * * * * * * * * * * * * * * * * * * * * * * * * * * * * * * * //

dimensions      [0 1 -1 0 0 0 0];

internalField   nonuniform List<vector> 
325
(
(0.298518 -0.0237048 0)
(-0.131986 0.0903679 0)
(0.0520522 -0.0324111 0)
(0.425118 -0.0540642 0)
(0.806753 -0.0624179 0)
(-0.0467172 0.0677064 0)
(0.388896 -0.087615 0)
(0.953488 -0.116986 0)
(1.42277 -0.0875299 0)
(0.0857266 0.0614582 0)
(0.913356 -0.143318 0)
(1.57849 -0.130019 0)
(2.00462 -0.134146 0)
(0.291882 -0.0767673 0)
(1.56959 -0.280187 0)
(2.15738 -0.214412 0)
(2.41356 -0.148412 0)
(0.851983 -0.0783392 0)
(2.17052 -0.308691 0)
(2.54923 -0.184926 0)
(2.63013 -0.186924 0)
(1.86796 -0.61154 0)
(2.57644 -0.519946 0)
(2.72432 -0.20599 0)
(2.71936 -0.169394 0)
(2.32831 0.0590043 0)
(2.83637 -0.376605 0)
(2.77568 -0.269644 0)
(2.7506 -0.224897 0)
(2.30864 0.300463 0)
(2.81783 -0.364263 0)
(2.80467 -0.284408 0)
(2.76538 -0.274511 0)
(2.22175 0.463277 0)
(2.66936 -0.0531756 0)
(2.79543 -0.283443 0)
(2.76507 -0.304964 0)
(2.09939 0.576279 0)
(2.60097 0.0178133 0)
(2.78317 -0.231089 0)
(2.73399 -0.319443 0)
(2.04095 0.627341 0)
(2.48942 0.224441 0)
(2.75236 -0.195631 0)
(2.71163 -0.304929 0)
(1.95837 0.673807 0)
(2.44398 0.282684 0)
(2.70505 -0.099508 0)
(2.72078 -0.292923 0)
(1.92272 0.704057 0)
(2.36518 0.381216 0)
(2.63951 -0.00279061 0)
(2.72071 -0.23123 0)
(1.89167 0.73521 0)
(2.31967 0.434278 0)
(2.60109 0.0508541 0)
(2.72615 -0.193053 0)
(1.85894 0.76264 0)
(2.28285 0.476499 0)
(2.54954 0.140256 0)
(2.69217 -0.0973359 0)
(1.83213 0.779619 0)
(2.23315 0.522806 0)
(2.51894 0.191821 0)
(2.68928 -0.0553648 0)
(1.81613 0.797705 0)
(2.20084 0.547622 0)
(2.48372 0.250597 0)
(2.65199 0.0434575 0)
(1.81272 0.810119 0)
(2.14463 0.589759 0)
(2.44309 0.309057 0)
(2.63749 0.0917219 0)
(1.83788 0.801579 0)
(2.1118 0.61759 0)
(2.41304 0.354877 0)
(2.59874 0.162809 0)
(1.90858 0.77716 0)
(2.09948 0.647055 0)
(2.37272 0.415912 0)
(2.56815 0.211215 0)
(1.95905 0.752797 0)
(2.08564 0.677302 0)
(2.34657 0.465431 0)
(2.53571 0.262142 0)
(2.00239 0.716871 0)
(2.06996 0.703196 0)
(2.31651 0.520208 0)
(2.51337 0.300897 0)
(2.05707 0.682329 0)
(2.06733 0.720362 0)
(2.291 0.562853 0)
(2.49684 0.334356 0)
(2.15397 0.637747 0)
(2.07232 0.738345 0)
(2.2655 0.592919 0)
(2.46718 0.378176 0)
(2.25119 0.619765 0)
(2.08121 0.740735 0)
(2.24073 0.619402 0)
(2.44777 0.398008 0)
(2.37467 0.563396 0)
(2.09186 0.740952 0)
(2.21787 0.644288 0)
(2.41057 0.438697 0)
(1.67155 0.980159 0)
(1.70094 1.0098 0)
(1.68867 1.00133 0)
(1.658 0.963127 0)
(1.5141 1.05941 0)
(1.61129 1.01718 0)
(1.63884 0.977504 0)
(1.65074 0.935805 0)
(1.51743 0.954573 0)
(1.59431 0.95047 0)
(1.61229 0.920057 0)
(1.61114 0.921796 0)
(1.42106 0.958387 0)
(1.49677 0.955094 0)
(1.53744 0.932139 0)
(1.55638 0.901074 0)
(1.49768 0.824449 0)
(1.44492 0.894293 0)
(1.49425 0.88263 0)
(1.50777 0.87543 0)
(2.56746 0.542864 0)
(1.46921 0.875642 0)
(1.45705 0.872395 0)
(1.47549 0.866535 0)
(3.02465 0.0230247 0)
(1.60909 0.819625 0)
(1.44891 0.864366 0)
(1.47083 0.864164 0)
(2.99996 1.40606e-05 0)
(2.57309 0.567392 0)
(1.50853 0.871806 0)
(1.47264 0.872005 0)
(2.99997 1.34471e-05 0)
(3.03167 0.0429277 0)
(1.68089 0.812055 0)
(1.46802 0.880252 0)
(2.99997 1.4354e-05 0)
(3.00001 0.000680974 0)
(2.25915 0.687992 0)
(1.49858 0.884006 0)
(2.99997 1.25295e-05 0)
(2.99996 1.83384e-05 0)
(3.01279 0.153426 0)
(1.65234 0.826302 0)
(2.99997 1.25681e-05 0)
(2.99997 1.81403e-05 0)
(3.00013 0.0113568 0)
(1.80446 0.785146 0)
(2.99998 1.26966e-05 0)
(2.99997 1.56201e-05 0)
(2.99989 0.000192507 0)
(2.34997 0.648849 0)
(2.99998 1.31077e-05 0)
(2.99997 1.52809e-05 0)
(2.99996 2.42132e-05 0)
(3.05602 0.188383 0)
(2.99998 1.28089e-05 0)
(2.99998 1.51225e-05 0)
(2.99997 2.05279e-05 0)
(3.06177 -0.0446964 0)
(2.99998 1.27695e-05 0)
(2.99998 1.52535e-05 0)
(2.99997 2.04453e-05 0)
(3.00547 -0.00613763 0)
(2.99998 1.21914e-05 0)
(2.99998 1.42333e-05 0)
(2.99997 1.94128e-05 0)
(2.9999 -0.000879515 0)
(2.99998 1.19555e-05 0)
(2.99998 1.38827e-05 0)
(2.99998 1.91818e-05 0)
(3.00005 -0.000165229 0)
(2.99999 1.11633e-05 0)
(2.99998 1.26e-05 0)
(2.99998 1.78145e-05 0)
(3.00001 -4.55844e-05 0)
(2.99999 1.2045e-05 0)
(2.99998 1.77672e-05 0)
(2.99999 -1.37378e-06 0)
(2.73193 0.444037 0)
(2.13682 0.747768 0)
(2.2033 0.669372 0)
(2.37391 0.474834 0)
(3.10654 0.150611 0)
(2.27513 0.725227 0)
(2.23128 0.696379 0)
(2.33507 0.545417 0)
(3.09334 0.0104051 0)
(2.43719 0.656944 0)
(2.26974 0.687206 0)
(2.34068 0.5937 0)
(3.00763 0.0012342 0)
(2.68221 0.498053 0)
(2.30756 0.713373 0)
(2.33484 0.656445 0)
(3.00008 2.79838e-05 0)
(2.93108 0.290248 0)
(2.39489 0.701678 0)
(2.36799 0.674284 0)
(2.99999 1.36593e-05 0)
(3.02151 0.1101 0)
(2.51041 0.642964 0)
(2.40389 0.661229 0)
(2.99999 8.56983e-06 0)
(3.00084 0.0343844 0)
(2.69284 0.496819 0)
(2.42364 0.679354 0)
(3 6.30998e-06 0)
(2.99805 0.00688071 0)
(2.88278 0.32999 0)
(2.47345 0.66898 0)
(3 4.06804e-06 0)
(2.99949 0.00124013 0)
(2.9882 0.155624 0)
(2.55295 0.611002 0)
(3 2.79584e-06 0)
(2.99992 0.000185316 0)
(2.99335 0.0576188 0)
(2.68432 0.485096 0)
(3 1.77311e-06 0)
(2.99999 3.05864e-05 0)
(2.99569 0.0146181 0)
(2.85007 0.339989 0)
(3 1.17027e-06 0)
(3 6.24585e-06 0)
(2.99877 0.00328322 0)
(3.00561 0.18104 0)
(3 8.04017e-07 0)
(3 1.98891e-06 0)
(2.99974 0.00072838 0)
(3.04684 0.0583078 0)
(3 5.35751e-07 0)
(3 9.68829e-07 0)
(2.99995 0.000145438 0)
(3.01369 0.0147315 0)
(3 3.73356e-07 0)
(3 5.36636e-07 0)
(2.99999 2.48868e-05 0)
(3.00072 0.00309629 0)
(3 2.53113e-07 0)
(3 2.95056e-07 0)
(3 3.45302e-06 0)
(2.99973 0.000678111 0)
(3 1.61436e-07 0)
(3 1.61225e-07 0)
(3 5.91994e-07 0)
(2.99983 0.000255032 0)
(3 8.28873e-08 0)
(3 1.26444e-07 0)
(3 2.11546e-07 0)
(2.9999 0.000137179 0)
(3 3.70469e-08 0)
(3 8.47668e-08 0)
(3 3.75531e-08 0)
(2.99993 7.16466e-05 0)
(3 9.63109e-09 0)
(3 3.53149e-08 0)
(3 -1.32259e-08 0)
(2.99992 8.04463e-05 0)
(2.99999 9.78402e-06 0)
(2.99999 1.00911e-05 0)
(2.99998 1.7372e-05 0)
(2.99998 1.34738e-05 0)
(2.99999 1.02215e-05 0)
(2.99999 1.05742e-05 0)
(2.99999 1.58511e-05 0)
(2.99999 8.58747e-06 0)
(2.99999 8.73502e-06 0)
(2.99999 1.3548e-05 0)
(2.99999 7.57751e-06 0)
(2.99999 7.95276e-06 0)
(2.99999 1.1103e-05 0)
(3 5.8677e-06 0)
(2.99999 6.62999e-06 0)
(2.99999 8.72259e-06 0)
(3 4.97568e-06 0)
(3 6.78256e-06 0)
(2.99999 7.34088e-06 0)
(3 3.91614e-06 0)
(3 4.58343e-06 0)
(3 5.82552e-06 0)
(3 2.86711e-06 0)
(3 3.44426e-06 0)
(3 4.49764e-06 0)
(3 1.88597e-06 0)
(3 2.24079e-06 0)
(3 2.9126e-06 0)
(3 1.17501e-06 0)
(3 1.4772e-06 0)
(3 1.80082e-06 0)
(3 7.62249e-07 0)
(3 9.38989e-07 0)
(3 1.1419e-06 0)
(3 4.70912e-07 0)
(3 6.03551e-07 0)
(3 7.09472e-07 0)
(3 2.98622e-07 0)
(3 3.90992e-07 0)
(3 4.5004e-07 0)
(3 1.82473e-07 0)
(3 2.44243e-07 0)
(3 2.76778e-07 0)
(3 1.12026e-07 0)
(3 1.53167e-07 0)
(3 1.67359e-07 0)
(3 6.81299e-08 0)
(3 9.25995e-08 0)
(3 9.96863e-08 0)
(3 4.09614e-08 0)
(3 5.46685e-08 0)
(3 5.9722e-08 0)
(3 2.35899e-08 0)
(3 3.07301e-08 0)
(3 3.48523e-08 0)
(3 1.19068e-08 0)
(3 1.54836e-08 0)
(3 1.75436e-08 0)
(3 3.44681e-09 0)
(3 4.42419e-09 0)
(3 5.13524e-09 0)
)
;

boundaryField
{
    inlet
    {
        type            fixedValue;
        value           nonuniform 0();
    }
    outlet
    {
        type            inletOutlet;
        inletValue      nonuniform 0();
        value           nonuniform 0();
    }
    triangle
    {
        type            slip;
    }
    top
    {
        type            symmetryPlane;
    }
    bottom
    {
        type            symmetryPlane;
    }
    defaultFaces
    {
        type            empty;
    }
    procBoundary6to2
    {
        type            processor;
        value           nonuniform List<vector> 5((-0.037083 -0.00174564 0) (-0.183155 0.069334 0) (-0.140311 -0.0273863 0) (0.0531528 -0.0383061 0) (0.0531528 -0.0383061 0));
    }
    procBoundary6to5
    {
        type            processor;
        value           nonuniform List<vector> 
43
(
(1.62609 0.920385 0)
(1.41735 1.14688 0)
(1.67074 0.97332 0)
(2.32391 0.618379 0)
(3.00622 0.0240554 0)
(2.99996 9.8025e-06 0)
(2.99997 9.9443e-06 0)
(2.99997 8.52197e-06 0)
(2.99997 9.88618e-06 0)
(2.99997 9.62179e-06 0)
(2.99998 1.08544e-05 0)
(2.99998 1.11463e-05 0)
(2.99998 1.05646e-05 0)
(2.99998 1.09967e-05 0)
(2.99998 1.07467e-05 0)
(2.99998 1.08486e-05 0)
(2.99999 1.0219e-05 0)
(2.99999 9.96927e-06 0)
(2.99999 9.14486e-06 0)
(2.99999 1.0624e-05 0)
(2.99999 1.0624e-05 0)
(2.99999 1.0624e-05 0)
(2.99999 7.22989e-06 0)
(2.99999 6.87727e-06 0)
(2.99999 6.87727e-06 0)
(2.99999 6.05178e-06 0)
(2.99999 5.6882e-06 0)
(3 4.74733e-06 0)
(3 4.6292e-06 0)
(3 3.04956e-06 0)
(3 2.30268e-06 0)
(3 1.54916e-06 0)
(3 1.01314e-06 0)
(3 6.47709e-07 0)
(3 4.1184e-07 0)
(3 2.63358e-07 0)
(3 1.62675e-07 0)
(3 1.00821e-07 0)
(3 6.06237e-08 0)
(3 3.59003e-08 0)
(3 2.02859e-08 0)
(3 1.01964e-08 0)
(3 2.90276e-09 0)
)
;
    }
    procBoundary6to7
    {
        type            processor;
        value           nonuniform List<vector> 
47
(
(0.538039 -0.0170573 0)
(1.1172 -0.0509284 0)
(1.73091 -0.0752129 0)
(2.23134 -0.112659 0)
(2.53187 -0.126207 0)
(2.66129 -0.155401 0)
(2.704 -0.155907 0)
(2.71929 -0.167919 0)
(2.72373 -0.201965 0)
(2.72063 -0.225174 0)
(2.7371 -0.238154 0)
(2.76192 -0.242006 0)
(2.76771 -0.233146 0)
(2.76919 -0.228003 0)
(2.76761 -0.217107 0)
(2.76816 -0.208854 0)
(2.77231 -0.196151 0)
(2.7605 -0.16108 0)
(2.75294 -0.16478 0)
(2.73298 -0.11114 0)
(2.71498 -0.0922896 0)
(2.69031 -0.045932 0)
(2.67188 -0.00966391 0)
(2.65259 0.0346914 0)
(2.63618 0.0725596 0)
(2.61371 0.116623 0)
(2.5866 0.15778 0)
(2.54562 0.217443 0)
(2.50313 0.299684 0)
(2.48706 0.369864 0)
(2.46201 0.452197 0)
(2.45855 0.508189 0)
(2.46918 0.56612 0)
(2.45546 0.626673 0)
(2.46153 0.654278 0)
(2.48622 0.654353 0)
(2.4959 0.681018 0)
(2.57154 0.725029 0)
(2.69617 0.763916 0)
(2.80284 0.725623 0)
(2.86271 0.558642 0)
(2.89115 0.360638 0)
(2.91604 0.212375 0)
(2.94565 0.117549 0)
(2.96806 0.0600519 0)
(2.98068 0.0265504 0)
(2.98408 0.00562915 0)
)
;
    }
}


// ************************************************************************* //
