/*--------------------------------*- C++ -*----------------------------------*\
  =========                 |
  \\      /  F ield         | OpenFOAM: The Open Source CFD Toolbox
   \\    /   O peration     | Website:  https://openfoam.org
    \\  /    A nd           | Version:  8
     \\/     M anipulation  |
\*---------------------------------------------------------------------------*/
FoamFile
{
    version     2.0;
    format      ascii;
    class       volVectorField;
    location    "1";
    object      U;
}
// * * * * * * * * * * * * * * * * * * * * * * * * * * * * * * * * * * * * * //

dimensions      [0 1 -1 0 0 0 0];

internalField   nonuniform List<vector> 
325
(
(3 -7.11824e-14 0)
(3 3.41832e-13 0)
(3 8.50573e-12 0)
(3 -5.40762e-15 0)
(3 -1.23973e-13 0)
(3 -1.22754e-13 0)
(3 -1.73017e-13 0)
(3 -1.7285e-13 0)
(3 -9.6588e-14 0)
(3 8.99642e-13 0)
(3 3.62769e-11 0)
(3 5.66365e-14 0)
(3 -1.98562e-13 0)
(3 -1.79449e-13 0)
(3 -3.18717e-14 0)
(3 -1.82089e-13 0)
(3 -1.18564e-13 0)
(3 1.55412e-12 0)
(3 6.76811e-11 0)
(3 2.53741e-15 0)
(3 -3.0101e-14 0)
(3 -1.23176e-13 0)
(3 -8.60391e-14 0)
(3 -1.41368e-13 0)
(3 -1.56017e-13 0)
(3 2.32559e-12 0)
(3 1.0212e-10 0)
(3 -2.9116e-14 0)
(3 1.60554e-14 0)
(3 8.91594e-14 0)
(3 -1.42707e-13 0)
(3 -1.78954e-13 0)
(3 -2.51143e-13 0)
(3 2.89325e-12 0)
(3 1.48462e-10 0)
(3 -4.87889e-14 0)
(3 4.47525e-14 0)
(3 2.15295e-13 0)
(3 -1.51659e-13 0)
(3 -3.09627e-13 0)
(3 -1.8548e-13 0)
(3 3.59778e-12 0)
(3 1.89278e-10 0)
(3 -7.59357e-14 0)
(3 8.10371e-14 0)
(3 1.12965e-13 0)
(3 -5.39943e-14 0)
(3 -4.04412e-13 0)
(3 -1.33115e-13 0)
(3 4.21273e-12 0)
(3 2.37508e-10 0)
(3 -2.7784e-14 0)
(3 9.2895e-14 0)
(3 -2.96544e-14 0)
(3 1.04414e-15 0)
(3 -1.156e-13 0)
(3 -9.31793e-14 0)
(3 4.61167e-12 0)
(3 2.83634e-10 0)
(3 -8.74327e-16 0)
(3 6.02054e-14 0)
(3 -9.30191e-15 0)
(3 9.71745e-14 0)
(3 1.8327e-13 0)
(3 -1.30618e-14 0)
(3 4.8518e-12 0)
(3 3.23491e-10 0)
(3 2.11928e-14 0)
(3 5.42984e-14 0)
(3 1.47459e-13 0)
(3 1.05507e-13 0)
(3 2.6852e-13 0)
(3 1.22622e-13 0)
(3 5.28682e-12 0)
(3 3.65006e-10 0)
(3 5.29644e-14 0)
(3 -1.55412e-14 0)
(3 6.60794e-14 0)
(3 7.45804e-14 0)
(3 1.31298e-13 0)
(3 5.89068e-14 0)
(3 5.80517e-12 0)
(3 4.02941e-10 0)
(3 6.72783e-15 0)
(3 -1.39463e-13 0)
(3 -1.14447e-13 0)
(3 3.08718e-14 0)
(3 -2e-14 0)
(3 -4.23167e-14 0)
(3 6.03766e-12 0)
(3 4.39508e-10 0)
(3 -7.25119e-15 0)
(3 -2.53934e-14 0)
(3 -1.28615e-13 0)
(3 -1.0979e-13 0)
(3 -1.63777e-13 0)
(3 1.64537e-14 0)
(3 6.21692e-12 0)
(3 4.74846e-10 0)
(3 1.71427e-14 0)
(3 -1.84971e-14 0)
(3 -1.83097e-13 0)
(3 -1.81514e-13 0)
(3 4.71049e-14 0)
(3 2.42659e-13 0)
(3 6.20142e-12 0)
(3 5.06474e-10 0)
(3 4.91137e-14 0)
(3 -6.05605e-14 0)
(3 -1.91251e-13 0)
(3 -1.01795e-13 0)
(3 1.6904e-13 0)
(3 2.49831e-13 0)
(3 5.90394e-12 0)
(3 5.33165e-10 0)
(3 -2.7116e-14 0)
(3 -8.05545e-14 0)
(3 -1.26662e-13 0)
(3 -5.59922e-15 0)
(3 -1.19152e-14 0)
(3 2.0089e-13 0)
(3 5.69143e-12 0)
(3 5.56721e-10 0)
(3 -1.10473e-13 0)
(3 -6.54012e-14 0)
(3 8.45793e-16 0)
(3 -1.64057e-14 0)
(3 1.60053e-13 0)
(3 1.97722e-13 0)
(3 5.11104e-12 0)
(3 5.75399e-10 0)
(3 4.82015e-14 0)
(3 -7.70858e-15 0)
(3 1.35937e-13 0)
(3 1.24205e-13 0)
(3 3.51857e-13 0)
(3 1.10245e-13 0)
(3 4.25452e-12 0)
(3 5.91474e-10 0)
(3 1.05468e-13 0)
(3 7.43748e-14 0)
(3 4.28001e-14 0)
(3 1.71266e-13 0)
(3 3.07124e-13 0)
(3 1.61493e-13 0)
(3 3.27207e-12 0)
(3 6.03687e-10 0)
(3 -8.89267e-15 0)
(3 1.71514e-13 0)
(3 5.40351e-14 0)
(3 1.25668e-13 0)
(3 1.03873e-13 0)
(3 9.22264e-14 0)
(3 1.96823e-12 0)
(3 6.11592e-10 0)
(3 -2.92927e-14 0)
(3 4.50153e-14 0)
(3 1.91263e-13 0)
(3 1.51306e-13 0)
(3 2.69074e-14 0)
(3 -1.33843e-13 0)
(3 5.9455e-13 0)
(3 6.18406e-10 0)
(3 -4.32548e-14 0)
(3 -3.81659e-14 0)
(3 5.49571e-14 0)
(3 1.53619e-13 0)
(3 5.1087e-14 0)
(3 -1.12486e-13 0)
(3 -5.88856e-13 0)
(3 6.21931e-10 0)
(3 -7.91472e-14 0)
(3 -5.14768e-14 0)
(3 5.01157e-15 0)
(3 9.57211e-14 0)
(3 9.37819e-14 0)
(3 -5.74113e-14 0)
(3 -2.05864e-12 0)
(3 6.13889e-10 0)
(3 7.37183e-14 0)
(3 5.67895e-16 0)
(3 -4.15084e-14 0)
(3 2.39035e-14 0)
(3 1.39805e-13 0)
(3 7.59524e-14 0)
(3 -3.53036e-12 0)
(3 6.05332e-10 0)
(3 5.58686e-15 0)
(3 -1.26609e-14 0)
(3 -7.45359e-14 0)
(3 1.92585e-14 0)
(3 3.28393e-14 0)
(3 1.8667e-13 0)
(3 -4.65795e-12 0)
(3 5.89841e-10 0)
(3 -1.67778e-14 0)
(3 -5.02937e-16 0)
(3 8.21404e-14 0)
(3 9.57025e-14 0)
(3 8.33264e-14 0)
(3 1.08916e-13 0)
(3 -6.01385e-12 0)
(3 5.77061e-10 0)
(3 4.06717e-14 0)
(3 3.37471e-15 0)
(3 1.36917e-13 0)
(3 1.57635e-13 0)
(3 9.36384e-14 0)
(3 1.92776e-17 0)
(3 -7.32435e-12 0)
(3 5.52872e-10 0)
(3 -1.25717e-15 0)
(3 1.52225e-14 0)
(3 1.34978e-13 0)
(3 1.73316e-13 0)
(3 1.05338e-13 0)
(3 1.16338e-13 0)
(3 -7.96817e-12 0)
(3 5.35502e-10 0)
(3 1.8488e-14 0)
(3 1.28737e-13 0)
(3 1.35454e-13 0)
(3 9.78093e-14 0)
(3 2.0847e-13 0)
(3 2.53535e-13 0)
(3 -8.4067e-12 0)
(3 5.03446e-10 0)
(3 3.63096e-14 0)
(3 1.6391e-13 0)
(3 1.87983e-14 0)
(3 -5.74485e-14 0)
(3 1.33105e-15 0)
(3 1.94282e-13 0)
(3 -7.95266e-12 0)
(3 4.74256e-10 0)
(3 3.21576e-14 0)
(3 6.84798e-14 0)
(3 -1.12981e-13 0)
(3 -2.67954e-13 0)
(3 -3.72703e-13 0)
(3 -1.99359e-16 0)
(3 -7.47862e-12 0)
(3 4.316e-10 0)
(3 -4.91044e-08 0)
(3 -6.2251e-14 0)
(3 -1.78914e-13 0)
(3 -1.37446e-13 0)
(3 -4.0949e-13 0)
(3 -3.58977e-13 0)
(3 1.612e-14 0)
(3 -6.52446e-12 0)
(3 3.83329e-10 0)
(3 -4.26146e-08 0)
(3 -8.44279e-14 0)
(3 -2.16001e-13 0)
(3 -1.17809e-13 0)
(3 -7.46741e-14 0)
(3 -2.41005e-14 0)
(3 1.4724e-13 0)
(3 -5.71235e-12 0)
(3 3.28187e-10 0)
(3 -3.63272e-08 0)
(3 -1.39914e-15 0)
(3 7.64862e-14 0)
(3 3.55741e-14 0)
(3 4.68554e-14 0)
(3 4.8103e-14 0)
(3 1.0681e-13 0)
(3 -5.56776e-12 0)
(3 2.6981e-10 0)
(3 -3.03778e-08 0)
(3 1.54977e-14 0)
(3 5.50323e-14 0)
(3 2.1443e-13 0)
(3 1.36133e-13 0)
(3 4.20355e-14 0)
(3 1.1686e-14 0)
(3 -4.44895e-12 0)
(3 2.1632e-10 0)
(3 -2.47298e-08 0)
(3 -5.77365e-14 0)
(3 -6.41194e-14 0)
(3 5.74157e-14 0)
(3 3.52586e-14 0)
(3 3.29115e-14 0)
(3 -4.50572e-14 0)
(3 -3.41408e-12 0)
(3 1.57854e-10 0)
(3 -1.95188e-08 0)
(3 -8.29168e-15 0)
(3 -4.18971e-15 0)
(3 -9.35045e-14 0)
(3 3.683e-14 0)
(3 -7.35939e-14 0)
(3 -7.72973e-14 0)
(3 -2.76817e-12 0)
(3 1.02136e-10 0)
(3 -1.46931e-08 0)
(3 6.98669e-14 0)
(3 1.00711e-14 0)
(3 6.36557e-15 0)
(3 1.61485e-13 0)
(3 1.64517e-14 0)
(3 -8.83731e-14 0)
(3 -1.87648e-12 0)
(3 5.28631e-11 0)
(3 -1.02768e-08 0)
(3 6.77435e-14 0)
(3 -1.40187e-14 0)
(3 4.93371e-14 0)
(3 7.73316e-14 0)
(3 9.69307e-14 0)
(3 -1.14485e-13 0)
(3 -1.07977e-12 0)
(3 2.77478e-11 0)
(3 -5.69889e-09 0)
(3 2.86341e-14 0)
(3 -2.67905e-14 0)
(3 -8.73427e-16 0)
(3 1.67117e-14 0)
(3 1.37882e-14 0)
(3 -2.40447e-14 0)
(3 -6.69985e-13 0)
(3 1.82108e-11 0)
(3 -1.92413e-09 0)
)
;

boundaryField
{
    inlet
    {
        type            fixedValue;
        value           uniform (3 0 0);
    }
    outlet
    {
        type            inletOutlet;
        inletValue      nonuniform List<vector> 0();
        value           nonuniform List<vector> 0();
    }
    triangle
    {
        type            slip;
    }
    top
    {
        type            symmetryPlane;
    }
    bottom
    {
        type            symmetryPlane;
    }
    defaultFaces
    {
        type            empty;
    }
    procBoundary4to0
    {
        type            processor;
        value           nonuniform List<vector> 9((3 -4.66826e-14 0) (3 -3.90881e-14 0) (3 -2.05959e-14 0) (3 -1.72661e-13 0) (3 -2.38004e-13 0) (3 -2.38004e-13 0) (3 -7.496e-14 0) (3 -2.15461e-13 0) (3 -1.30946e-11 0));
    }
    procBoundary4to1
    {
        type            processor;
        value           nonuniform List<vector> 2((3 -2.31402e-08 0) (3 -5.63124e-08 0));
    }
    procBoundary4to5
    {
        type            processor;
        value           nonuniform List<vector> 
39
(
(3 -3.92432e-08 0)
(3 -6.88436e-08 0)
(3 -7.91044e-08 0)
(3 -9.09604e-08 0)
(3 -9.74746e-08 0)
(3 -1.02034e-07 0)
(3 -1.05053e-07 0)
(3 -1.07052e-07 0)
(3 -1.09277e-07 0)
(3 -1.10284e-07 0)
(3 -1.1177e-07 0)
(3 -1.12312e-07 0)
(3 -1.12967e-07 0)
(3 -1.12836e-07 0)
(3 -1.12514e-07 0)
(3 -1.11562e-07 0)
(3 -1.1038e-07 0)
(3 -1.08773e-07 0)
(3 -1.06516e-07 0)
(3 -1.03034e-07 0)
(3 -9.88282e-08 0)
(3 -9.3903e-08 0)
(3 -8.84263e-08 0)
(3 -8.24541e-08 0)
(3 -7.6111e-08 0)
(3 -6.94581e-08 0)
(3 -6.26576e-08 0)
(3 -5.58439e-08 0)
(3 -5.58439e-08 0)
(3 2.02369e-06 0)
(3 1.23054e-06 0)
(3 7.0438e-07 0)
(3 3.97566e-07 0)
(3 2.21249e-07 0)
(3 1.16718e-07 0)
(3 4.72916e-08 0)
(3 2.38078e-08 0)
(3 7.97384e-09 0)
(3 3.22803e-08 0)
)
;
    }
}


// ************************************************************************* //
