/*--------------------------------*- C++ -*----------------------------------*\
  =========                 |
  \\      /  F ield         | OpenFOAM: The Open Source CFD Toolbox
   \\    /   O peration     | Website:  https://openfoam.org
    \\  /    A nd           | Version:  7
     \\/     M anipulation  |
\*---------------------------------------------------------------------------*/
FoamFile
{
    version     2.0;
    format      ascii;
    class       volVectorField;
    location    "1";
    object      U;
}
// * * * * * * * * * * * * * * * * * * * * * * * * * * * * * * * * * * * * * //

dimensions      [0 1 -1 0 0 0 0];

internalField   nonuniform List<vector> 
325
(
(3 -4.25193e-15 0)
(3 3.62005e-13 0)
(3 8.70761e-12 0)
(3 -1.05625e-15 0)
(3 -3.73474e-15 0)
(3 -1.86156e-15 0)
(3 4.08602e-15 0)
(3 4.49946e-16 0)
(3 -5.88926e-15 0)
(3 1.02631e-12 0)
(3 3.67165e-11 0)
(3 -1.21481e-15 0)
(3 -3.75924e-15 0)
(3 -6.1054e-16 0)
(3 4.16181e-16 0)
(3 1.04265e-15 0)
(3 -1.09733e-14 0)
(3 1.59425e-12 0)
(3 6.78258e-11 0)
(3 -2.7499e-16 0)
(3 -6.7555e-16 0)
(3 2.081e-15 0)
(3 1.51556e-15 0)
(3 -6.84038e-16 0)
(3 -1.89577e-14 0)
(3 2.26951e-12 0)
(3 1.02156e-10 0)
(3 8.5251e-17 0)
(3 1.4406e-15 0)
(3 4.55712e-15 0)
(3 1.44472e-15 0)
(3 3.16271e-15 0)
(3 -2.03235e-14 0)
(3 2.9688e-12 0)
(3 1.48855e-10 0)
(3 1.06265e-15 0)
(3 1.36783e-15 0)
(3 9.30306e-16 0)
(3 -1.41439e-15 0)
(3 3.6351e-15 0)
(3 -2.26103e-14 0)
(3 3.4242e-12 0)
(3 1.89669e-10 0)
(3 1.28519e-17 0)
(3 3.22514e-16 0)
(3 -4.22173e-15 0)
(3 -8.8586e-16 0)
(3 1.06397e-15 0)
(3 -2.86126e-14 0)
(3 4.07529e-12 0)
(3 2.37643e-10 0)
(3 -2.42027e-15 0)
(3 3.61825e-16 0)
(3 -1.31902e-15 0)
(3 1.54319e-15 0)
(3 -1.44584e-15 0)
(3 -3.2707e-14 0)
(3 4.56123e-12 0)
(3 2.84001e-10 0)
(3 -3.42657e-17 0)
(3 2.36637e-15 0)
(3 2.20531e-15 0)
(3 1.00751e-15 0)
(3 -9.63086e-16 0)
(3 -3.92678e-14 0)
(3 5.01316e-12 0)
(3 3.24025e-10 0)
(3 -3.803e-17 0)
(3 2.26921e-15 0)
(3 4.11732e-15 0)
(3 -1.74667e-15 0)
(3 -1.59181e-15 0)
(3 -4.32892e-14 0)
(3 5.36608e-12 0)
(3 3.65157e-10 0)
(3 7.9357e-17 0)
(3 -1.15418e-16 0)
(3 1.72439e-15 0)
(3 -6.24605e-16 0)
(3 -3.78927e-15 0)
(3 -4.90117e-14 0)
(3 5.66551e-12 0)
(3 4.03411e-10 0)
(3 2.28801e-15 0)
(3 8.82353e-16 0)
(3 -2.31329e-15 0)
(3 -2.54715e-15 0)
(3 -2.57236e-15 0)
(3 -5.03251e-14 0)
(3 5.85936e-12 0)
(3 4.40254e-10 0)
(3 1.36345e-15 0)
(3 -2.26673e-16 0)
(3 -2.61901e-15 0)
(3 -2.9764e-15 0)
(3 -2.17219e-15 0)
(3 -5.25633e-14 0)
(3 5.97969e-12 0)
(3 4.75474e-10 0)
(3 6.11101e-18 0)
(3 -2.93902e-15 0)
(3 -4.06361e-15 0)
(3 -5.36677e-16 0)
(3 -2.24536e-16 0)
(3 -5.55164e-14 0)
(3 5.94154e-12 0)
(3 5.06861e-10 0)
(3 -4.18056e-18 0)
(3 1.36661e-15 0)
(3 -3.17329e-15 0)
(3 -3.00638e-15 0)
(3 -1.9882e-15 0)
(3 -5.6121e-14 0)
(3 5.77728e-12 0)
(3 5.33921e-10 0)
(3 -1.67181e-15 0)
(3 3.29238e-15 0)
(3 1.18921e-15 0)
(3 -3.13317e-15 0)
(3 -1.21826e-15 0)
(3 -5.59412e-14 0)
(3 5.45012e-12 0)
(3 5.57482e-10 0)
(3 -1.35577e-15 0)
(3 -7.13078e-16 0)
(3 3.10677e-16 0)
(3 -3.80829e-15 0)
(3 -1.16571e-18 0)
(3 -5.33902e-14 0)
(3 4.88042e-12 0)
(3 5.75697e-10 0)
(3 6.08528e-16 0)
(3 -1.86005e-15 0)
(3 -1.30822e-15 0)
(3 -2.94781e-15 0)
(3 8.00516e-16 0)
(3 -5.20834e-14 0)
(3 4.14386e-12 0)
(3 5.92196e-10 0)
(3 -3.93744e-16 0)
(3 -2.67517e-15 0)
(3 -8.75622e-16 0)
(3 -1.9071e-15 0)
(3 -4.04455e-17 0)
(3 -5.59563e-14 0)
(3 3.30518e-12 0)
(3 6.04683e-10 0)
(3 -9.07983e-16 0)
(3 -2.6046e-15 0)
(3 -3.88568e-15 0)
(3 -4.09437e-15 0)
(3 1.38461e-16 0)
(3 -5.78861e-14 0)
(3 2.04635e-12 0)
(3 6.12756e-10 0)
(3 4.78614e-16 0)
(3 -3.22732e-15 0)
(3 -6.1989e-16 0)
(3 -1.73526e-15 0)
(3 -1.38884e-15 0)
(3 -5.64251e-14 0)
(3 8.51337e-13 0)
(3 6.19151e-10 0)
(3 1.97698e-15 0)
(3 -1.63193e-15 0)
(3 -3.82301e-16 0)
(3 -1.61047e-15 0)
(3 -5.22655e-15 0)
(3 -5.44012e-14 0)
(3 -5.46202e-13 0)
(3 6.22337e-10 0)
(3 6.67779e-16 0)
(3 9.59612e-16 0)
(3 -5.36482e-15 0)
(3 -4.74553e-15 0)
(3 -7.09889e-15 0)
(3 -4.15368e-14 0)
(3 -2.00135e-12 0)
(3 6.14675e-10 0)
(3 -3.26162e-15 0)
(3 -2.73269e-16 0)
(3 -2.64447e-15 0)
(3 -3.10136e-15 0)
(3 -4.30349e-15 0)
(3 -2.8105e-14 0)
(3 -3.3731e-12 0)
(3 6.05743e-10 0)
(3 -6.9477e-16 0)
(3 3.037e-16 0)
(3 1.07264e-15 0)
(3 -1.46266e-15 0)
(3 6.97028e-16 0)
(3 -1.31295e-14 0)
(3 -4.83393e-12 0)
(3 5.90049e-10 0)
(3 -1.52186e-16 0)
(3 5.44752e-16 0)
(3 -5.9627e-16 0)
(3 -1.4593e-16 0)
(3 1.9199e-15 0)
(3 5.15697e-15 0)
(3 -6.14689e-12 0)
(3 5.77223e-10 0)
(3 2.31398e-15 0)
(3 3.13414e-15 0)
(3 2.41628e-15 0)
(3 1.83763e-15 0)
(3 4.98001e-17 0)
(3 3.01621e-14 0)
(3 -7.35948e-12 0)
(3 5.53043e-10 0)
(3 1.22761e-15 0)
(3 2.40096e-15 0)
(3 2.62866e-15 0)
(3 -2.74796e-15 0)
(3 -1.84444e-15 0)
(3 5.48364e-14 0)
(3 -8.10424e-12 0)
(3 5.35613e-10 0)
(3 -4.23196e-15 0)
(3 -3.4692e-15 0)
(3 -1.22484e-15 0)
(3 -6.4949e-15 0)
(3 -1.35525e-15 0)
(3 7.06967e-14 0)
(3 -8.47792e-12 0)
(3 5.03447e-10 0)
(3 -1.49927e-15 0)
(3 -3.23068e-15 0)
(3 -3.38569e-15 0)
(3 -1.20479e-15 0)
(3 2.40472e-15 0)
(3 8.69254e-14 0)
(3 -8.11293e-12 0)
(3 4.74131e-10 0)
(3 3.38767e-15 0)
(3 1.77019e-15 0)
(3 -1.79286e-15 0)
(3 3.92934e-15 0)
(3 2.35809e-15 0)
(3 9.50659e-14 0)
(3 -7.47454e-12 0)
(3 4.31752e-10 0)
(3 -4.90979e-08 0)
(3 1.61948e-15 0)
(3 2.72253e-15 0)
(3 -5.44949e-16 0)
(3 2.34887e-15 0)
(3 -5.70808e-16 0)
(3 8.83589e-14 0)
(3 -6.74062e-12 0)
(3 3.83272e-10 0)
(3 -4.26079e-08 0)
(3 -1.48351e-15 0)
(3 -2.69401e-15 0)
(3 1.03141e-15 0)
(3 5.23598e-16 0)
(3 -1.1046e-15 0)
(3 7.64713e-14 0)
(3 -5.8447e-12 0)
(3 3.27923e-10 0)
(3 -3.63183e-08 0)
(3 -1.47965e-15 0)
(3 -2.55964e-15 0)
(3 4.4902e-15 0)
(3 1.77293e-15 0)
(3 -1.56609e-15 0)
(3 6.16903e-14 0)
(3 -5.08304e-12 0)
(3 2.70219e-10 0)
(3 -3.03668e-08 0)
(3 8.08305e-18 0)
(3 1.6623e-15 0)
(3 2.09657e-15 0)
(3 -3.28512e-15 0)
(3 -5.06838e-15 0)
(3 5.29978e-14 0)
(3 -4.27072e-12 0)
(3 2.16756e-10 0)
(3 -2.47164e-08 0)
(3 3.10055e-15 0)
(3 2.1703e-15 0)
(3 -2.43448e-15 0)
(3 -2.12591e-15 0)
(3 -4.31049e-15 0)
(3 4.40562e-14 0)
(3 -3.47966e-12 0)
(3 1.57677e-10 0)
(3 -1.95033e-08 0)
(3 7.08975e-16 0)
(3 2.27618e-15 0)
(3 -1.96141e-15 0)
(3 1.02569e-15 0)
(3 -5.96301e-16 0)
(3 2.82544e-14 0)
(3 -2.75329e-12 0)
(3 1.02254e-10 0)
(3 -1.46751e-08 0)
(3 6.52917e-16 0)
(3 6.10469e-15 0)
(3 4.01167e-15 0)
(3 -1.576e-16 0)
(3 -1.56845e-16 0)
(3 2.90228e-14 0)
(3 -1.62421e-12 0)
(3 5.30256e-11 0)
(3 -1.02583e-08 0)
(3 8.35996e-16 0)
(3 5.42409e-15 0)
(3 7.10855e-15 0)
(3 3.14435e-15 0)
(3 -4.04956e-15 0)
(3 7.00224e-15 0)
(3 -8.02936e-13 0)
(3 2.77386e-11 0)
(3 -5.68459e-09 0)
(3 1.04026e-16 0)
(3 1.15104e-15 0)
(3 2.01182e-15 0)
(3 3.20966e-15 0)
(3 -3.03736e-15 0)
(3 7.21053e-16 0)
(3 -5.37471e-13 0)
(3 1.80592e-11 0)
(3 -1.91726e-09 0)
)
;

boundaryField
{
    inlet
    {
        type            fixedValue;
        value           uniform (3 0 0);
    }
    outlet
    {
        type            inletOutlet;
        inletValue      nonuniform 0();
        value           nonuniform 0();
    }
    triangle
    {
        type            slip;
    }
    top
    {
        type            symmetryPlane;
    }
    bottom
    {
        type            symmetryPlane;
    }
    defaultFaces
    {
        type            empty;
    }
    procBoundary4to0
    {
        type            processor;
        value           nonuniform List<vector> 9((3 5.81687e-16 0) (3 -2.25312e-15 0) (3 -2.80181e-15 0) (3 -1.28431e-15 0) (3 -1.97764e-15 0) (3 -1.97764e-15 0) (3 -3.8984e-15 0) (3 -2.64966e-13 0) (3 -1.30919e-11 0));
    }
    procBoundary4to1
    {
        type            processor;
        value           nonuniform List<vector> 2((3 -2.31777e-08 0) (3 -5.63361e-08 0));
    }
    procBoundary4to5
    {
        type            processor;
        value           nonuniform List<vector> 
39
(
(3 -3.92688e-08 0)
(3 -6.88715e-08 0)
(3 -7.91309e-08 0)
(3 -9.09809e-08 0)
(3 -9.74866e-08 0)
(3 -1.02044e-07 0)
(3 -1.05055e-07 0)
(3 -1.07055e-07 0)
(3 -1.09277e-07 0)
(3 -1.10284e-07 0)
(3 -1.11767e-07 0)
(3 -1.12307e-07 0)
(3 -1.1296e-07 0)
(3 -1.12829e-07 0)
(3 -1.12507e-07 0)
(3 -1.11555e-07 0)
(3 -1.10372e-07 0)
(3 -1.08764e-07 0)
(3 -1.06507e-07 0)
(3 -1.03026e-07 0)
(3 -9.88188e-08 0)
(3 -9.38946e-08 0)
(3 -8.84172e-08 0)
(3 -8.24463e-08 0)
(3 -7.61029e-08 0)
(3 -6.9452e-08 0)
(3 -6.26513e-08 0)
(3 -5.58394e-08 0)
(3 -5.58394e-08 0)
(3 2.02395e-06 0)
(3 1.23076e-06 0)
(3 7.04542e-07 0)
(3 3.97685e-07 0)
(3 2.21342e-07 0)
(3 1.16808e-07 0)
(3 4.73613e-08 0)
(3 2.38673e-08 0)
(3 8.04623e-09 0)
(3 3.22983e-08 0)
)
;
    }
}


// ************************************************************************* //
