/*--------------------------------*- C++ -*----------------------------------*\
  =========                 |
  \\      /  F ield         | OpenFOAM: The Open Source CFD Toolbox
   \\    /   O peration     | Website:  https://openfoam.org
    \\  /    A nd           | Version:  7
     \\/     M anipulation  |
\*---------------------------------------------------------------------------*/
FoamFile
{
    version     2.0;
    format      ascii;
    class       volScalarField;
    location    "0.6";
    object      p;
}
// * * * * * * * * * * * * * * * * * * * * * * * * * * * * * * * * * * * * * //

dimensions      [1 -1 -2 0 0 0 0];

internalField   nonuniform List<scalar> 
325
(
8.85302
8.56052
8.2986
8.06008
8.90002
8.65761
8.43776
8.25338
8.09362
7.92337
8.65373
8.52953
8.343
8.19096
8.03085
7.86527
8.35556
8.3238
8.1677
8.06567
7.93845
7.8027
8.06771
8.14036
8.02808
7.98372
7.88132
7.75762
7.77036
7.95667
7.8872
7.89639
7.80996
7.71221
7.36569
7.79668
7.80281
7.87389
7.82499
7.75541
6.81605
7.63703
7.78714
7.87845
7.88049
7.80895
6.06403
7.64279
7.95745
7.96907
8.01317
7.94697
4.31664
6.80491
8.1765
8.36266
8.33108
8.24635
2.88673
4.63669
7.57081
9.04476
8.69251
8.43968
2.10933
2.57012
5.79802
9.52562
9.33208
8.91028
1.75181
1.837
2.96231
8.97379
9.7252
9.08823
1.5429
1.58889
1.72547
7.19207
9.6663
9.01573
1.40907
1.4486
1.48691
4.71544
9.16539
8.851
1.3232
1.35384
1.3807
2.16069
8.28289
8.99795
1.26967
1.29518
1.31996
1.39742
6.17515
8.8182
1.23318
1.2577
1.29
1.3232
3.30214
8.26269
1.20889
1.23192
1.27055
1.30046
1.63553
6.96383
1.19014
1.2118
1.24703
1.28387
1.33557
4.53397
8.15582
3.76702
0.994693
3.65545
0.995423
3.51107
0.996117
3.33942
0.996708
3.15987
0.997291
2.94557
0.997879
2.69545
0.998381
2.39082
0.998844
2.06354
0.999228
1.79889
0.999548
1.58555
0.999825
1.42578
1.00007
1.31985
1.00031
1.24858
1.00055
1.20095
1.0008
1.16556
1.00111
1.13614
1.00146
1.11782
1.00184
1.10741
1.17517
1.19554
1.22064
1.26321
1.29552
1.90382
1.17215
1.1907
1.21582
1.24948
1.29246
1.3468
2.91857
1.17307
1.19116
1.21759
1.24926
1.29448
1.34112
1.51734
1.17508
1.19326
1.21881
1.25067
1.29183
1.34936
1.40606
1.17818
1.19628
1.2211
1.25251
1.29242
1.34853
1.42092
1.18141
1.20007
1.22592
1.25615
1.29715
1.34876
1.42802
1.18309
1.20275
1.22914
1.26155
1.30243
1.35654
1.4285
1.18354
1.20376
1.23009
1.26422
1.30559
1.36311
1.43199
1.18348
1.20399
1.2302
1.26524
1.3082
1.36553
1.43904
1.18364
1.20407
1.23024
1.26507
1.30936
1.3656
1.44362
1.18414
1.20428
1.23061
1.26503
1.30961
1.36563
1.44609
1.18486
1.20471
1.23128
1.26544
1.30941
1.36586
1.44798
1.1857
1.20555
1.23227
1.26637
1.30987
1.36714
1.44908
1.1863
1.20618
1.23315
1.26733
1.31055
1.36873
1.45061
1.18656
1.20651
1.23373
1.26812
1.31173
1.37062
1.45227
1.18675
1.20673
1.23412
1.26881
1.31319
1.37273
1.45406
1.18699
1.20706
1.23455
1.26951
1.31476
1.37462
1.45599
1.18731
1.20748
1.23497
1.27009
1.31584
1.37557
1.4574
1.18755
1.20776
1.2352
1.27038
1.3162
1.37587
1.45798
1.18772
1.20793
1.23534
1.27054
1.31627
1.37586
1.45809
1.00232
1.10313
1.00289
1.10101
1.00339
1.10114
1.00375
1.10288
1.00404
1.10549
1.00424
1.10673
1.00434
1.10734
1.00437
1.10751
1.00437
1.10758
1.00434
1.10783
1.10819
1.10859
1.10901
1.10926
1.10936
1.10944
1.10963
1.10987
1.10999
1.1101
)
;

boundaryField
{
    inlet
    {
        type            fixedValue;
        value           nonuniform 0();
    }
    outlet
    {
        type            zeroGradient;
    }
    triangle
    {
        type            zeroGradient;
    }
    top
    {
        type            symmetryPlane;
    }
    bottom
    {
        type            symmetryPlane;
    }
    defaultFaces
    {
        type            empty;
    }
    procBoundary5to1
    {
        type            processor;
        value           nonuniform List<scalar> 6(9.49744 9.15843 9.15843 3.83024 0.994324 0.994324);
    }
    procBoundary5to4
    {
        type            processor;
        value           nonuniform List<scalar> 
39
(
0.999841
0.999843
0.999846
0.999852
0.999857
0.999857
0.999853
0.999847
0.999844
0.999849
0.999863
0.999884
0.99991
0.999939
0.999973
1.00002
1.00013
1.00027
1.00031
1.00029
1.00022
1.00016
1.00012
1.0001
1.00009
1.00009
1.00008
1.00009
1.00429
1.00429
1.00422
1.00412
1.004
1.0039
1.00382
1.00379
1.00378
1.00377
1.00377
)
;
    }
    procBoundary5to6
    {
        type            processor;
        value           nonuniform List<scalar> 
43
(
7.84263
7.72323
7.68305
7.62152
7.58796
7.5761
7.62308
7.67564
7.7877
7.97939
8.12485
8.41275
8.64156
8.61897
8.58801
8.62324
8.50745
8.46761
8.5261
8.5261
8.20287
6.4914
6.4914
6.4914
7.46771
4.68019
2.05509
1.51283
1.51941
1.53442
1.54176
1.54267
1.54641
1.54857
1.55092
1.554
1.55723
1.5597
1.56201
1.56439
1.56634
1.56733
1.56778
)
;
    }
}


// ************************************************************************* //
