/*--------------------------------*- C++ -*----------------------------------*\
  =========                 |
  \\      /  F ield         | OpenFOAM: The Open Source CFD Toolbox
   \\    /   O peration     | Website:  https://openfoam.org
    \\  /    A nd           | Version:  7
     \\/     M anipulation  |
\*---------------------------------------------------------------------------*/
FoamFile
{
    version     2.0;
    format      ascii;
    class       volVectorField;
    location    "0.9";
    object      U;
}
// * * * * * * * * * * * * * * * * * * * * * * * * * * * * * * * * * * * * * //

dimensions      [0 1 -1 0 0 0 0];

internalField   nonuniform List<vector> 
325
(
(1.76513 0.54498 0)
(2.26732 0.242745 0)
(2.43371 0.334901 0)
(1.14 0.0677473 0)
(1.82076 0.199103 0)
(2.22259 0.295048 0)
(0.485942 0.0927199 0)
(1.23603 0.166022 0)
(1.85764 0.26543 0)
(0.132075 -0.0443331 0)
(0.686404 0.0937851 0)
(1.39964 0.165348 0)
(-0.0422735 -0.0369933 0)
(0.290381 0.023412 0)
(0.905704 0.0982103 0)
(-0.145787 -0.0371746 0)
(0.0237644 -0.00957614 0)
(0.446105 0.0174608 0)
(-0.219787 -0.0196743 0)
(-0.163705 -0.0333283 0)
(0.0492187 -0.0240397 0)
(-0.273952 -0.00643122 0)
(-0.294483 -0.0245086 0)
(-0.2401 -0.044385 0)
(-0.306496 0.00240674 0)
(-0.374035 -0.0253588 0)
(-0.39833 -0.0451383 0)
(-0.319123 -0.00187366 0)
(-0.410892 -0.0129601 0)
(-0.454862 -0.0186623 0)
(-0.319116 0.00179455 0)
(-0.410873 0.0118007 0)
(-0.454886 0.0188121 0)
(-0.189524 -0.000628137 0)
(-0.306478 -0.00248451 0)
(-0.373983 0.0240693 0)
(-0.3984 0.0430565 0)
(-0.106487 -0.000683546 0)
(-0.273932 0.00637164 0)
(-0.294419 0.0233231 0)
(-0.240229 0.04154 0)
(0.168361 -0.0270456 0)
(-0.219741 0.0195417 0)
(-0.163598 0.0326864 0)
(0.0490147 0.0238457 0)
(2.9966 -0.00680206 0)
(2.99619 -0.00739669 0)
(2.99577 -0.00995589 0)
(3.03661 -0.0294278 0)
(2.99569 -0.00859754 0)
(2.99516 -0.00959175 0)
(2.99396 -0.0125349 0)
(2.88473 -0.2588 0)
(2.99466 -0.0105112 0)
(2.99412 -0.0115022 0)
(2.99209 -0.0202596 0)
(2.3566 -0.599729 0)
(2.99301 -0.0137796 0)
(2.99202 -0.0165249 0)
(3.01205 -0.0351211 0)
(2.05392 -0.747792 0)
(2.99152 -0.0164859 0)
(2.9886 -0.0231916 0)
(2.87903 -0.259843 0)
(1.87025 -0.839844 0)
(2.98809 -0.0235591 0)
(2.98888 -0.0336013 0)
(2.19659 -0.688314 0)
(1.72383 -0.89356 0)
(2.98473 -0.0311767 0)
(2.93617 -0.157085 0)
(1.90316 -0.801143 0)
(1.71788 -0.881868 0)
(2.98091 -0.0417009 0)
(2.28027 -0.646212 0)
(1.68369 -0.899717 0)
(1.71049 -0.892487 0)
(2.91309 -0.170315 0)
(1.84834 -0.820753 0)
(1.67362 -0.896677 0)
(1.72107 -0.892236 0)
(2.1891 -0.690214 0)
(1.64612 -0.907488 0)
(1.66486 -0.905488 0)
(1.73021 -0.890918 0)
(1.79183 -0.853029 0)
(1.63721 -0.908394 0)
(1.67039 -0.902999 0)
(1.74179 -0.889686 0)
(1.61849 -0.91267 0)
(1.63662 -0.907661 0)
(1.68179 -0.893773 0)
(1.75196 -0.880065 0)
(1.573 -0.90966 0)
(1.62377 -0.899332 0)
(1.67785 -0.879675 0)
(1.7576 -0.862456 0)
(1.5573 -0.904473 0)
(1.60162 -0.893206 0)
(1.64352 -0.860057 0)
(1.73743 -0.843937 0)
(1.53315 -0.880862 0)
(1.54619 -0.871746 0)
(1.56982 -0.825066 0)
(1.68031 -0.823342 0)
(1.44952 -0.829222 0)
(1.45899 -0.798303 0)
(1.47154 -0.7368 0)
(1.60579 -0.753606 0)
(1.30082 -0.753682 0)
(1.29728 -0.735023 0)
(1.32127 -0.69633 0)
(1.47899 -0.731583 0)
(1.1719 -0.6077 0)
(1.17902 -0.606043 0)
(1.22716 -0.59519 0)
(1.39178 -0.645868 0)
(1.01938 -0.591152 0)
(1.05934 -0.60462 0)
(1.13547 -0.615095 0)
(1.30797 -0.6632 0)
(0.978177 -0.537675 0)
(1.03321 -0.558179 0)
(1.11884 -0.590634 0)
(1.2986 -0.636672 0)
(1.99686 -0.797073 0)
(2.05062 -0.691935 0)
(2.24459 -0.448306 0)
(1.94298 -0.804714 0)
(2.06367 -0.685549 0)
(2.28671 -0.414515 0)
(1.89108 -0.824533 0)
(2.08154 -0.688582 0)
(2.3154 -0.397763 0)
(1.89638 -0.814595 0)
(2.12218 -0.662134 0)
(2.34863 -0.368615 0)
(1.89972 -0.815037 0)
(2.15155 -0.634891 0)
(2.37285 -0.347325 0)
(1.90625 -0.810807 0)
(2.19352 -0.599013 0)
(2.40291 -0.312883 0)
(1.93636 -0.797625 0)
(2.21702 -0.570618 0)
(2.42475 -0.285234 0)
(1.95004 -0.79 0)
(2.25131 -0.525801 0)
(2.45441 -0.233668 0)
(1.98436 -0.769302 0)
(2.27309 -0.483401 0)
(2.47011 -0.199601 0)
(1.9953 -0.754057 0)
(2.29667 -0.425634 0)
(2.49369 -0.129005 0)
(2.02582 -0.719124 0)
(2.31074 -0.369894 0)
(2.49899 -0.0769841 0)
(2.03329 -0.685674 0)
(2.32554 -0.28835 0)
(2.51399 0.0203158 0)
(2.04788 -0.624383 0)
(2.32256 -0.215099 0)
(2.51591 0.0608627 0)
(2.04201 -0.560038 0)
(2.32992 -0.104204 0)
(2.5373 0.160304 0)
(2.01957 -0.489343 0)
(2.32168 -0.0483408 0)
(2.53666 0.213825 0)
(2.00894 -0.381859 0)
(2.35232 0.0674797 0)
(2.51946 0.284795 0)
(1.98315 -0.313158 0)
(2.3969 0.148243 0)
(2.50786 0.313025 0)
(2.0114 -0.179156 0)
(2.48941 0.19045 0)
(2.50853 0.352322 0)
(2.04837 -0.0510155 0)
(2.57388 0.244481 0)
(2.52944 0.350105 0)
(2.07694 0.16369 0)
(2.52937 0.256322 0)
(2.52217 0.344529 0)
(2.99987 8.14388e-06 0)
(3.00001 0.000245587 0)
(2.97318 -0.0433598 0)
(2.99987 2.24035e-05 0)
(3.00006 0.000813925 0)
(2.94747 -0.104967 0)
(2.99988 3.72848e-05 0)
(3.00058 0.00141411 0)
(2.93861 -0.191647 0)
(2.99989 5.05933e-05 0)
(3.00182 0.00210159 0)
(2.87662 -0.292004 0)
(2.99989 6.42099e-05 0)
(3.00407 0.00271692 0)
(2.79129 -0.393049 0)
(2.99976 0.000151828 0)
(3.0069 0.00245838 0)
(2.67742 -0.486881 0)
(2.99924 0.000343793 0)
(3.01331 0.00221358 0)
(2.55476 -0.565133 0)
(3.00034 0.000930933 0)
(3.0271 0.00409841 0)
(2.44082 -0.603969 0)
(3.00092 0.00118018 0)
(3.05832 0.00317029 0)
(2.31468 -0.58034 0)
(3.00153 0.00154785 0)
(3.06606 -0.0341486 0)
(2.17618 -0.584511 0)
(3.00284 0.0021539 0)
(2.97043 -0.153219 0)
(2.06242 -0.597953 0)
(3.00555 0.00244368 0)
(2.77607 -0.311356 0)
(1.99756 -0.607874 0)
(3.00915 0.00113738 0)
(2.56769 -0.450686 0)
(1.96492 -0.605791 0)
(3.02534 0.0032931 0)
(2.39746 -0.550576 0)
(1.96468 -0.58171 0)
(3.09589 0.0116544 0)
(2.24675 -0.621635 0)
(1.97436 -0.571907 0)
(3.02998 -0.113517 0)
(2.07758 -0.66851 0)
(2.00612 -0.592071 0)
(2.67923 -0.350272 0)
(2.00813 -0.673662 0)
(2.04137 -0.60388 0)
(2.42123 -0.524625 0)
(2.00201 -0.663287 0)
(2.08019 -0.588072 0)
(2.17001 -0.706053 0)
(2.00085 -0.665955 0)
(2.1365 -0.549857 0)
(2.06636 -0.816743 0)
(2.01946 -0.670871 0)
(2.19232 -0.499033 0)
(2.99998 1.32209e-06 0)
(2.99997 2.26825e-07 0)
(2.99997 1.7079e-06 0)
(2.99996 7.34694e-07 0)
(2.99998 2.94219e-06 0)
(2.99997 1.20474e-06 0)
(2.99997 4.34412e-06 0)
(2.99996 1.78435e-06 0)
(2.99998 4.26786e-06 0)
(2.99998 2.04124e-06 0)
(2.99997 6.31295e-06 0)
(2.99996 1.6386e-06 0)
(2.99998 4.36916e-06 0)
(2.99998 2.28971e-06 0)
(2.99997 7.09988e-06 0)
(2.99997 1.11978e-06 0)
(2.99998 3.25144e-06 0)
(2.99998 2.20561e-06 0)
(2.99997 5.38934e-06 0)
(2.99997 2.42802e-06 0)
(2.99998 1.79779e-06 0)
(2.99998 1.89842e-06 0)
(2.99997 3.07837e-06 0)
(2.99996 3.73949e-06 0)
(2.99998 1.88236e-07 0)
(2.99998 2.5102e-07 0)
(2.99998 4.01604e-07 0)
(2.99996 1.23987e-06 0)
(2.99998 -3.47589e-06 0)
(2.99998 -4.38869e-06 0)
(2.99998 -5.24495e-06 0)
(2.99996 -6.64203e-06 0)
(2.99998 -9.98483e-06 0)
(2.99998 -1.23179e-05 0)
(2.99997 -1.44139e-05 0)
(2.99996 -1.9993e-05 0)
(2.99998 -2.09134e-05 0)
(2.99997 -2.52543e-05 0)
(2.99997 -2.95811e-05 0)
(2.99995 -4.29178e-05 0)
(2.99997 -4.03346e-05 0)
(2.99996 -4.82078e-05 0)
(2.99996 -5.68326e-05 0)
(2.99994 -8.38908e-05 0)
(2.99996 -7.03238e-05 0)
(2.99995 -8.75324e-05 0)
(2.99994 -0.000102914 0)
(2.99991 -0.00015392 0)
(2.99993 -0.000129945 0)
(2.99992 -0.000145936 0)
(2.9999 -0.000188582 0)
(2.99985 -0.000265569 0)
(2.9999 -0.000204884 0)
(2.99986 -0.000290998 0)
(2.99987 -0.000289387 0)
(2.99966 -0.000499322 0)
(2.99983 -0.000346219 0)
(2.99977 -0.000492362 0)
(2.99975 -0.000509705 0)
(2.99966 -0.000800095 0)
(2.9997 -0.000593418 0)
(2.9996 -0.000833938 0)
(2.99955 -0.000895845 0)
(2.9994 -0.00128625 0)
(2.99944 -0.00111844 0)
(2.99938 -0.00125664 0)
(2.99911 -0.00182605 0)
(2.9991 -0.00186315 0)
(2.99906 -0.00191025 0)
(2.99901 -0.00200746 0)
(2.99849 -0.00308709 0)
(2.99871 -0.00289141 0)
(2.99844 -0.00315937 0)
(2.99833 -0.00342 0)
(2.99755 -0.00478353 0)
(2.99831 -0.00467791 0)
(2.99756 -0.00499167 0)
(2.99747 -0.00504932 0)
(2.99675 -0.00737379 0)
(3.00435 -0.00602623 0)
)
;

boundaryField
{
    inlet
    {
        type            fixedValue;
        value           nonuniform 0();
    }
    outlet
    {
        type            inletOutlet;
        inletValue      nonuniform 0();
        value           nonuniform 0();
    }
    triangle
    {
        type            slip;
    }
    top
    {
        type            symmetryPlane;
    }
    bottom
    {
        type            symmetryPlane;
    }
    defaultFaces
    {
        type            empty;
    }
    procBoundary2to1
    {
        type            processor;
        value           nonuniform List<vector> 
40
(
(2.99715 -0.00554417 0)
(2.99632 -0.00723713 0)
(2.99536 -0.00898979 0)
(2.99383 -0.0121624 0)
(2.99208 -0.0158366 0)
(2.98967 -0.0201988 0)
(2.98704 -0.0257809 0)
(2.98348 -0.0327816 0)
(2.97784 -0.0457281 0)
(2.97428 -0.0586621 0)
(2.78577 -0.310961 0)
(1.94735 -0.796908 0)
(1.56464 -0.91825 0)
(1.54239 -0.901672 0)
(1.5218 -0.890459 0)
(1.4549 -0.84147 0)
(1.31124 -0.772385 0)
(1.16349 -0.610183 0)
(0.986386 -0.585528 0)
(0.947162 -0.532733 0)
(2.99998 2.39033e-07 0)
(2.99998 1.03505e-06 0)
(2.99998 1.90083e-06 0)
(2.99998 1.7884e-06 0)
(2.99998 1.49287e-06 0)
(2.99999 1.14268e-06 0)
(2.99999 1.60015e-07 0)
(2.99999 -2.91518e-06 0)
(2.99998 -8.44774e-06 0)
(2.99998 -1.79908e-05 0)
(2.99998 -3.37445e-05 0)
(2.99996 -6.26963e-05 0)
(2.99995 -0.000100601 0)
(2.99991 -0.000187433 0)
(2.99984 -0.000321884 0)
(2.99973 -0.000559753 0)
(2.99956 -0.000874048 0)
(2.99928 -0.00142083 0)
(2.9988 -0.00239307 0)
(2.9981 -0.00369989 0)
)
;
    }
    procBoundary2to3
    {
        type            processor;
        value           nonuniform List<vector> 
47
(
(2.45306 0.371809 0)
(2.40595 0.345308 0)
(2.29022 0.313096 0)
(2.07475 0.251417 0)
(1.71659 0.185825 0)
(1.21266 0.117845 0)
(0.649704 0.0581371 0)
(2.39672 -0.262914 0)
(2.42549 -0.223528 0)
(2.45467 -0.181177 0)
(2.48424 -0.136819 0)
(2.51282 -0.0896522 0)
(2.53719 -0.038163 0)
(2.55804 0.0242744 0)
(2.5672 0.0719933 0)
(2.58167 0.1495 0)
(2.5842 0.198644 0)
(2.58911 0.268017 0)
(2.57729 0.319075 0)
(2.52303 0.355151 0)
(2.46848 0.373415 0)
(2.43667 0.392529 0)
(2.44374 0.389585 0)
(2.45573 0.403195 0)
(2.46574 0.408798 0)
(2.47402 0.400915 0)
(2.46754 0.393687 0)
(1.65908 -0.070782 0)
(1.67675 -0.0726279 0)
(1.7675 -0.148915 0)
(1.82628 -0.235727 0)
(1.92843 -0.310653 0)
(1.99595 -0.411841 0)
(2.00506 -0.504707 0)
(1.97437 -0.529468 0)
(1.95083 -0.541048 0)
(1.95345 -0.546597 0)
(1.96752 -0.566669 0)
(1.97807 -0.561045 0)
(1.99587 -0.53947 0)
(2.02975 -0.507297 0)
(2.07088 -0.471759 0)
(2.12159 -0.440122 0)
(2.18094 -0.435967 0)
(2.24584 -0.412672 0)
(2.2975 -0.378198 0)
(2.35109 -0.319768 0)
)
;
    }
    procBoundary2to6
    {
        type            processor;
        value           nonuniform List<vector> 5((0.647843 -0.0594902 0) (-0.145642 0.0368685 0) (0.0240749 0.00834749 0) (0.647843 -0.0594902 0) (0.445703 -0.0182661 0));
    }
    procBoundary2to7
    {
        type            processor;
        value           nonuniform List<vector> 7((0.170084 0.0245431 0) (-0.105458 -0.000871783 0) (-0.189273 0.000157928 0) (-0.189273 0.000157928 0) (0.175109 -0.014378 0) (0.281129 -0.0315715 0) (0.590451 -0.0546689 0));
    }
}


// ************************************************************************* //
