/*--------------------------------*- C++ -*----------------------------------*\
  =========                 |
  \\      /  F ield         | OpenFOAM: The Open Source CFD Toolbox
   \\    /   O peration     | Website:  https://openfoam.org
    \\  /    A nd           | Version:  7
     \\/     M anipulation  |
\*---------------------------------------------------------------------------*/
FoamFile
{
    version     2.0;
    format      ascii;
    class       volScalarField;
    location    "0.1";
    object      p;
}
// * * * * * * * * * * * * * * * * * * * * * * * * * * * * * * * * * * * * * //

dimensions      [1 -1 -2 0 0 0 0];

internalField   nonuniform List<scalar> 
103200
(
0.15582
0.166873
0.17073
0.166632
0.162636
0.169963
0.180317
0.181388
0.185371
0.19172
0.196254
0.196879
0.195828
0.194737
0.194215
0.196103
0.19593
0.19533
0.200168
0.202541
0.20521
0.212313
0.220503
0.232295
0.254965
0.322138
0.424447
0.495911
0.536317
0.566708
0.596005
0.624262
0.650761
0.673364
0.691482
0.707363
0.722732
0.735807
0.744328
0.749717
0.756375
0.765235
0.772669
0.776423
0.777866
0.780498
0.785418
0.791035
0.795386
0.797868
0.799351
0.801166
0.804305
0.809345
0.816728
0.82702
0.840745
0.85915
0.879843
0.934295
0.134131
0.178297
0.184758
0.176828
0.173451
0.182658
0.185696
0.180446
0.179441
0.185888
0.190413
0.188649
0.18771
0.188078
0.187712
0.188983
0.188957
0.188135
0.19252
0.19441
0.196323
0.203128
0.211336
0.222668
0.244977
0.313985
0.415016
0.491415
0.533428
0.564035
0.593026
0.621076
0.648165
0.67127
0.689311
0.704951
0.720232
0.733364
0.741874
0.747208
0.753891
0.76273
0.770028
0.773627
0.775008
0.777665
0.782593
0.788166
0.792422
0.794788
0.796161
0.797894
0.800994
0.806041
0.813481
0.82389
0.837805
0.856497
0.87753
0.93276
0.151104
0.183811
0.186352
0.17887
0.176186
0.179798
0.177936
0.17554
0.174665
0.180041
0.186229
0.182796
0.181121
0.181897
0.180873
0.181009
0.180463
0.178967
0.182739
0.184272
0.185738
0.192351
0.200994
0.212015
0.234005
0.30355
0.408562
0.4886
0.529553
0.560586
0.589848
0.618612
0.646334
0.669432
0.687177
0.702586
0.717778
0.730911
0.739367
0.744662
0.751409
0.760232
0.767383
0.770815
0.772131
0.774818
0.779755
0.78528
0.789434
0.791676
0.792934
0.794584
0.797646
0.802702
0.810204
0.820736
0.834851
0.853838
0.875223
0.931246
0.174954
0.190534
0.18706
0.178385
0.175041
0.177076
0.172972
0.170319
0.174555
0.178587
0.184179
0.180751
0.173375
0.171086
0.170033
0.170401
0.169636
0.167854
0.171168
0.172806
0.174256
0.180643
0.189896
0.200988
0.222656
0.292679
0.401721
0.48233
0.524971
0.55781
0.588295
0.617516
0.644464
0.667195
0.684894
0.700235
0.715335
0.728416
0.73681
0.742105
0.748941
0.757742
0.764727
0.76798
0.769234
0.771955
0.776903
0.782374
0.786419
0.788531
0.789669
0.791235
0.794259
0.799327
0.806896
0.817559
0.831882
0.851176
0.872924
0.929756
0.176918
0.176698
0.168864
0.16631
0.169187
0.172022
0.171077
0.170896
0.174697
0.17661
0.17512
0.173873
0.164661
0.159153
0.158247
0.159309
0.157679
0.156249
0.159228
0.160815
0.16256
0.168867
0.178719
0.18977
0.210786
0.282424
0.397388
0.478103
0.522357
0.557509
0.588424
0.61565
0.641496
0.664714
0.682723
0.697953
0.712896
0.725906
0.734253
0.739571
0.746487
0.755248
0.762053
0.765122
0.766316
0.769078
0.774036
0.779448
0.783375
0.785352
0.786364
0.787844
0.790833
0.795917
0.803559
0.81436
0.8289
0.848511
0.870635
0.92829
0.167357
0.164701
0.159927
0.162369
0.167156
0.171154
0.172291
0.173606
0.176373
0.175166
0.170925
0.165274
0.156168
0.148478
0.148292
0.149501
0.146055
0.145031
0.147737
0.149653
0.152043
0.158401
0.168667
0.179865
0.200751
0.276801
0.391687
0.474535
0.522464
0.557722
0.586193
0.611522
0.638387
0.662774
0.680794
0.69569
0.710481
0.723446
0.731736
0.737049
0.744028
0.752741
0.759358
0.762239
0.763378
0.766183
0.771154
0.776501
0.780302
0.782135
0.783017
0.78441
0.787365
0.79247
0.800191
0.811139
0.825906
0.845845
0.868357
0.92685
0.165438
0.166546
0.167301
0.172682
0.175935
0.175698
0.175439
0.176313
0.176598
0.172673
0.165411
0.157643
0.147564
0.137
0.135785
0.137406
0.133807
0.133509
0.135716
0.138527
0.141765
0.148103
0.158047
0.169115
0.189886
0.266944
0.382498
0.474842
0.522446
0.554302
0.580896
0.6077
0.636655
0.661288
0.678723
0.693367
0.708144
0.72106
0.729233
0.734503
0.74155
0.750219
0.756643
0.759332
0.760417
0.763271
0.768258
0.773532
0.777197
0.778879
0.779626
0.780931
0.783856
0.788985
0.796793
0.807896
0.822902
0.843181
0.866093
0.925438
0.169787
0.172839
0.1764
0.180301
0.180178
0.1779
0.176764
0.177865
0.177341
0.173639
0.164153
0.15087
0.139656
0.127376
0.12343
0.124743
0.123385
0.122793
0.124579
0.12846
0.132629
0.13895
0.148615
0.159384
0.179887
0.256777
0.378312
0.47592
0.517326
0.548472
0.577312
0.60693
0.635892
0.659204
0.676287
0.691063
0.705894
0.718688
0.726681
0.731914
0.739056
0.747686
0.75391
0.7564
0.757434
0.760341
0.765344
0.77054
0.774057
0.775581
0.77619
0.777406
0.780302
0.785463
0.793364
0.804633
0.819888
0.840519
0.863845
0.924056
0.172686
0.174079
0.176959
0.179261
0.176798
0.175341
0.176409
0.1783
0.17701
0.170124
0.160471
0.146862
0.131764
0.118111
0.111741
0.111109
0.11225
0.112553
0.113776
0.118345
0.123554
0.130155
0.13944
0.149658
0.169731
0.247404
0.380187
0.470806
0.510922
0.54589
0.578164
0.60767
0.633634
0.656276
0.673853
0.688865
0.703658
0.716266
0.724075
0.729303
0.736561
0.745149
0.751157
0.753438
0.754426
0.757393
0.762414
0.767524
0.77088
0.772239
0.772706
0.773833
0.776705
0.781901
0.789904
0.801349
0.816866
0.837863
0.861614
0.922705
0.172377
0.171561
0.170662
0.169973
0.1687
0.170818
0.173933
0.175066
0.171839
0.16524
0.155037
0.143093
0.126591
0.110899
0.100575
0.0989914
0.101414
0.102137
0.102753
0.108053
0.11435
0.120959
0.129703
0.139468
0.159241
0.242407
0.383108
0.46312
0.508252
0.548196
0.579946
0.605124
0.629728
0.653555
0.671735
0.686703
0.701387
0.71382
0.721455
0.72669
0.734074
0.742607
0.748378
0.750443
0.751394
0.754427
0.759466
0.764482
0.767665
0.768849
0.769171
0.770211
0.773061
0.778301
0.786415
0.798046
0.813838
0.835214
0.859404
0.921386
0.170635
0.168971
0.165768
0.164823
0.16625
0.170143
0.172833
0.17198
0.167206
0.15986
0.149215
0.13666
0.122407
0.106166
0.0939554
0.0906062
0.0913914
0.0916839
0.0923183
0.0975269
0.104612
0.111363
0.119871
0.129357
0.149101
0.237087
0.380005
0.460635
0.511545
0.550179
0.576818
0.59984
0.626635
0.651703
0.669703
0.684482
0.699128
0.711397
0.718825
0.724076
0.731594
0.740052
0.745565
0.74741
0.748338
0.751443
0.756498
0.761412
0.764409
0.765409
0.765584
0.766537
0.76937
0.77466
0.782895
0.794726
0.810805
0.832575
0.857217
0.920103
0.169957
0.169139
0.166621
0.16664
0.168802
0.171806
0.172545
0.169986
0.164614
0.157439
0.147183
0.133312
0.117707
0.101572
0.0894477
0.0833654
0.082605
0.0821024
0.0821813
0.0878259
0.0952236
0.10225
0.110195
0.119155
0.138956
0.230278
0.377275
0.464884
0.514086
0.546113
0.570795
0.596865
0.625541
0.649969
0.667431
0.682247
0.696907
0.708949
0.71615
0.721463
0.729118
0.737473
0.74271
0.744342
0.74526
0.748441
0.75351
0.758311
0.761109
0.761914
0.761943
0.762811
0.765632
0.77098
0.779346
0.791389
0.807771
0.829948
0.855055
0.918857
0.170111
0.170167
0.169138
0.169775
0.171605
0.172497
0.17106
0.167651
0.162554
0.156018
0.145974
0.13102
0.11301
0.0965354
0.0833355
0.0765312
0.0740915
0.0724606
0.0725782
0.0787057
0.0861358
0.0931789
0.100924
0.10966
0.129955
0.224738
0.379493
0.470879
0.509058
0.53991
0.568659
0.597436
0.624383
0.647544
0.665036
0.680023
0.694612
0.706401
0.713445
0.718871
0.726635
0.734859
0.739813
0.741241
0.742159
0.745419
0.750499
0.755177
0.757763
0.758366
0.758244
0.759029
0.761844
0.767259
0.775768
0.788036
0.804736
0.827336
0.852922
0.917649
0.169474
0.170073
0.170493
0.170968
0.170861
0.169312
0.16645
0.163109
0.158851
0.152894
0.143006
0.126621
0.107348
0.0921568
0.0771509
0.0684922
0.0641476
0.0632721
0.0643419
0.0698891
0.0771392
0.0845718
0.0928689
0.101706
0.122251
0.224833
0.391439
0.467328
0.502411
0.538925
0.570482
0.596763
0.621479
0.64488
0.662715
0.677668
0.692158
0.70381
0.710791
0.716298
0.724127
0.732208
0.73688
0.738111
0.739036
0.742377
0.747465
0.752007
0.754371
0.754759
0.754482
0.75519
0.758005
0.763497
0.772161
0.78467
0.801704
0.824743
0.850821
0.916481
0.166987
0.167446
0.167817
0.167619
0.165956
0.16329
0.160828
0.158228
0.153994
0.147285
0.136827
0.119859
0.100192
0.0855638
0.072006
0.0625487
0.0567587
0.0557193
0.0567787
0.0622174
0.0686071
0.076834
0.0847644
0.0934234
0.114621
0.229024
0.402821
0.458959
0.501776
0.542452
0.569952
0.592683
0.618349
0.642724
0.660328
0.675109
0.689692
0.701339
0.708206
0.713689
0.721581
0.72953
0.73392
0.734953
0.735888
0.739314
0.744407
0.748797
0.75093
0.751093
0.750655
0.751292
0.754116
0.759694
0.768527
0.781292
0.798678
0.822171
0.848754
0.915355
0.164347
0.164405
0.1642
0.163468
0.161947
0.160658
0.159071
0.156509
0.151709
0.143279
0.129899
0.111012
0.0912873
0.0761309
0.0658319
0.0578607
0.0526446
0.0499799
0.0511305
0.0555731
0.0616852
0.0694233
0.0769594
0.0851553
0.107925
0.236647
0.403836
0.459083
0.507578
0.54262
0.56536
0.589272
0.617123
0.640893
0.657685
0.672582
0.687458
0.699012
0.705573
0.710997
0.719012
0.726839
0.730935
0.731763
0.732712
0.736231
0.741323
0.745544
0.747438
0.747362
0.746761
0.747334
0.750175
0.755851
0.764866
0.777905
0.795659
0.819624
0.846725
0.914274
0.166314
0.166244
0.166051
0.165872
0.165758
0.166181
0.166049
0.164712
0.160701
0.149072
0.128407
0.103546
0.0815178
0.0652329
0.0575712
0.0525044
0.0491015
0.046642
0.0469672
0.0494285
0.0547163
0.061525
0.0701521
0.0791149
0.102185
0.24448
0.405272
0.464424
0.511309
0.537695
0.561807
0.589591
0.616886
0.638542
0.655026
0.670391
0.685444
0.696629
0.702757
0.708241
0.716449
0.724134
0.727913
0.728533
0.72951
0.733128
0.738209
0.742247
0.743889
0.743565
0.742797
0.743312
0.746181
0.751967
0.76118
0.77451
0.792653
0.817106
0.844738
0.913238
0.193639
0.193449
0.193932
0.195297
0.197804
0.20075
0.202916
0.201565
0.195328
0.177723
0.146758
0.103013
0.0726461
0.056074
0.0493575
0.0460542
0.044538
0.043808
0.0434094
0.0443074
0.0478936
0.055752
0.0643188
0.0728013
0.0974422
0.263868
0.420243
0.475641
0.507038
0.532457
0.562273
0.590983
0.615099
0.635758
0.652758
0.668465
0.683336
0.693972
0.699779
0.705506
0.713906
0.721398
0.72484
0.725261
0.726283
0.730005
0.735065
0.738904
0.740278
0.739696
0.738762
0.739225
0.742132
0.748043
0.75747
0.77111
0.789661
0.81462
0.842795
0.91225
0.23637
0.235812
0.235812
0.236729
0.238587
0.239791
0.237577
0.230127
0.219506
0.201535
0.173837
0.123362
0.0689655
0.0499852
0.0434868
0.0404371
0.0396974
0.0402147
0.0397291
0.0404723
0.0434922
0.0506984
0.0578877
0.0635541
0.0959852
0.304028
0.437347
0.476515
0.499202
0.530996
0.5645
0.589285
0.611746
0.633418
0.650842
0.666393
0.680872
0.691082
0.696818
0.702845
0.711359
0.718605
0.721706
0.721949
0.723034
0.726862
0.731887
0.735512
0.736602
0.735752
0.734652
0.735073
0.73803
0.744079
0.753739
0.767709
0.786688
0.81217
0.840902
0.91131
0.253474
0.252871
0.252828
0.253194
0.252867
0.249874
0.24306
0.233747
0.224344
0.209951
0.187898
0.148068
0.0806718
0.0463475
0.0391493
0.0378322
0.0348508
0.0351472
0.0357817
0.0367911
0.0400214
0.0449796
0.050924
0.0571938
0.113902
0.357976
0.446468
0.467821
0.493511
0.533306
0.563548
0.584859
0.609271
0.631858
0.648786
0.663894
0.678172
0.688237
0.694
0.700221
0.708769
0.715743
0.718511
0.7186
0.719768
0.7237
0.728674
0.732067
0.732856
0.731727
0.730465
0.730853
0.733873
0.740077
0.749988
0.76431
0.783737
0.809761
0.83906
0.910421
0.254225
0.253129
0.252318
0.251108
0.248649
0.2447
0.239383
0.23301
0.225362
0.211481
0.191241
0.159428
0.105213
0.0468646
0.03646
0.0357133
0.0327684
0.0305352
0.0308599
0.0330772
0.0366061
0.04091
0.0460476
0.0523043
0.16366
0.385619
0.439585
0.455506
0.491802
0.534913
0.558873
0.582005
0.608711
0.630336
0.64621
0.661179
0.675623
0.685618
0.691258
0.697555
0.706118
0.712818
0.715264
0.715216
0.716481
0.720518
0.725422
0.728566
0.729034
0.727619
0.726199
0.726563
0.729661
0.736037
0.74622
0.760916
0.780814
0.807397
0.837274
0.909584
0.2511
0.249513
0.248069
0.246373
0.244441
0.242037
0.238176
0.231299
0.220898
0.204386
0.182103
0.154882
0.118994
0.0588769
0.0349785
0.0339758
0.0321165
0.0293002
0.0284227
0.0288931
0.0314705
0.0368487
0.0416429
0.0496204
0.221785
0.397079
0.420976
0.445767
0.49514
0.531218
0.554597
0.582118
0.608463
0.627979
0.643349
0.658724
0.67341
0.683103
0.688421
0.694807
0.70342
0.709845
0.71197
0.711797
0.713173
0.717312
0.722127
0.725005
0.725133
0.723422
0.72185
0.722204
0.725395
0.731961
0.742437
0.757532
0.777923
0.805083
0.835548
0.908799
0.247846
0.246729
0.2454
0.244226
0.243241
0.240617
0.234919
0.226112
0.213333
0.192831
0.156269
0.124016
0.111261
0.0817147
0.0354401
0.0323969
0.0309073
0.029498
0.0286192
0.0279012
0.0283228
0.0322927
0.0361286
0.0648049
0.283906
0.390137
0.396197
0.442364
0.495286
0.524343
0.553859
0.582959
0.606593
0.624968
0.640769
0.656701
0.671326
0.680434
0.685404
0.69201
0.700702
0.706828
0.708624
0.70834
0.709842
0.714083
0.718785
0.721378
0.721148
0.719132
0.717416
0.717773
0.721074
0.727851
0.738644
0.754161
0.775068
0.802823
0.833885
0.908068
0.24652
0.2452
0.243725
0.242485
0.240836
0.236515
0.228959
0.218749
0.201819
0.17043
0.130856
0.107942
0.100562
0.0927878
0.0437868
0.0308897
0.0294081
0.0301757
0.0305698
0.0287616
0.0283551
0.0299441
0.0322261
0.104552
0.304038
0.366537
0.381981
0.4445
0.48744
0.520531
0.55509
0.581415
0.603214
0.622214
0.638685
0.654835
0.669043
0.677481
0.68228
0.689229
0.697976
0.703759
0.705216
0.704843
0.706489
0.710827
0.715393
0.717677
0.717073
0.714747
0.712895
0.71327
0.716699
0.723709
0.734843
0.750808
0.772256
0.800622
0.832288
0.907391
0.246866
0.245268
0.24307
0.240356
0.236739
0.230263
0.221403
0.207972
0.184135
0.150987
0.125992
0.111016
0.100531
0.096046
0.0665021
0.0309973
0.0295053
0.0327058
0.0337911
0.0316023
0.030941
0.0291559
0.0383648
0.164577
0.292357
0.334575
0.374763
0.438214
0.478849
0.521592
0.554101
0.577253
0.600208
0.62021
0.636788
0.652755
0.666447
0.674352
0.679187
0.686498
0.695228
0.700623
0.701741
0.701306
0.703114
0.707543
0.711948
0.713897
0.7129
0.71026
0.708284
0.708695
0.712272
0.719537
0.731039
0.747479
0.769491
0.798485
0.830762
0.90677
0.248421
0.24609
0.242285
0.237712
0.232114
0.223864
0.21357
0.195914
0.1706
0.145809
0.128759
0.115807
0.10328
0.0971994
0.0869154
0.0378664
0.0312141
0.0351442
0.0358492
0.033925
0.033262
0.0325606
0.091833
0.201558
0.266835
0.303488
0.365914
0.427212
0.477533
0.522501
0.54955
0.573744
0.598675
0.618557
0.634639
0.650372
0.663705
0.671245
0.676185
0.683794
0.692428
0.69741
0.698199
0.697731
0.699717
0.704227
0.708445
0.710033
0.708624
0.705667
0.703581
0.704046
0.707794
0.71534
0.727237
0.74418
0.766779
0.796416
0.829309
0.906204
0.250138
0.246697
0.241201
0.235106
0.228177
0.219214
0.208021
0.189427
0.16737
0.147184
0.132238
0.120428
0.107943
0.0991695
0.0962003
0.06118
0.0342856
0.03552
0.0368344
0.0366599
0.0443633
0.067467
0.1214
0.196537
0.242386
0.286687
0.355814
0.423103
0.479779
0.518665
0.545241
0.572913
0.597871
0.61652
0.632129
0.647915
0.661037
0.668229
0.673224
0.681074
0.689555
0.694118
0.694594
0.694121
0.696301
0.700878
0.70488
0.706078
0.704237
0.700964
0.698784
0.699324
0.703266
0.71112
0.723442
0.740917
0.764126
0.794421
0.827932
0.905694
0.250685
0.246643
0.240121
0.233156
0.225666
0.216546
0.205101
0.188103
0.168853
0.151312
0.1373
0.125228
0.11295
0.102212
0.101424
0.0909775
0.042026
0.0350539
0.0362166
0.0422854
0.0560451
0.0802214
0.123675
0.192183
0.233323
0.281561
0.351262
0.425059
0.478001
0.512804
0.544542
0.573301
0.596258
0.613855
0.629532
0.645622
0.65847
0.665213
0.670228
0.678309
0.686607
0.690753
0.690927
0.690477
0.692864
0.697489
0.701248
0.702025
0.699731
0.696146
0.693891
0.69453
0.698691
0.706881
0.71966
0.737696
0.761539
0.792503
0.826635
0.905238
0.249957
0.245882
0.23919
0.232179
0.22454
0.215486
0.204506
0.189141
0.172544
0.157509
0.14419
0.131481
0.1184
0.106607
0.103775
0.105396
0.0629546
0.0362922
0.0360523
0.0457292
0.0605623
0.0810938
0.121139
0.180552
0.227105
0.278413
0.353328
0.425388
0.471601
0.510876
0.54578
0.572064
0.593317
0.610971
0.627141
0.643482
0.655866
0.662081
0.667169
0.675504
0.683593
0.68732
0.687198
0.686803
0.689409
0.694057
0.697543
0.697866
0.695098
0.691208
0.688902
0.689664
0.694072
0.70263
0.715897
0.734524
0.759023
0.790668
0.825419
0.904837
0.248848
0.245021
0.239006
0.232708
0.225201
0.216237
0.205638
0.191988
0.177777
0.1646
0.152266
0.139616
0.125637
0.112212
0.103936
0.109606
0.0942114
0.0423164
0.037794
0.0491894
0.0619597
0.0815097
0.116262
0.164226
0.217168
0.27582
0.357691
0.421066
0.466379
0.512723
0.545169
0.568175
0.58995
0.608404
0.624966
0.641316
0.653105
0.658803
0.664077
0.67268
0.680522
0.683814
0.683405
0.6831
0.685934
0.690575
0.693757
0.693594
0.690329
0.686146
0.683815
0.684728
0.689412
0.698371
0.71216
0.73141
0.756585
0.78892
0.824288
0.90449
0.246975
0.244003
0.239701
0.233916
0.226671
0.217895
0.207846
0.195696
0.183171
0.171357
0.160135
0.148498
0.134751
0.120172
0.107909
0.108881
0.110232
0.0610002
0.0425812
0.0532603
0.0632018
0.0841371
0.115596
0.155913
0.212417
0.279417
0.358897
0.412469
0.46728
0.514359
0.540596
0.56363
0.587459
0.606238
0.622789
0.639012
0.650191
0.655428
0.661001
0.66985
0.677393
0.680228
0.679544
0.67937
0.682439
0.687039
0.689878
0.6892
0.685417
0.680956
0.678631
0.679724
0.684716
0.694111
0.708459
0.72836
0.754232
0.787264
0.823242
0.904195
0.245289
0.243585
0.240489
0.235242
0.22865
0.220177
0.21079
0.200264
0.189536
0.179051
0.168559
0.157426
0.144827
0.130635
0.117696
0.110699
0.116147
0.096193
0.0512073
0.0554293
0.0649654
0.0864911
0.119394
0.158371
0.214407
0.282376
0.352315
0.408273
0.472812
0.511837
0.534257
0.561237
0.586042
0.604039
0.62047
0.636628
0.647184
0.652007
0.657967
0.667012
0.674196
0.676551
0.675616
0.675616
0.678923
0.683445
0.685897
0.684671
0.680354
0.675636
0.67335
0.674653
0.679989
0.689857
0.7048
0.725383
0.751971
0.785703
0.822283
0.90395
0.244938
0.243798
0.241001
0.236445
0.230776
0.223
0.214547
0.205541
0.196273
0.186967
0.17723
0.166591
0.154926
0.14233
0.129908
0.118931
0.122757
0.122894
0.0724279
0.0563993
0.0655609
0.085549
0.118563
0.159036
0.211986
0.276844
0.342498
0.414032
0.476076
0.504748
0.531054
0.561315
0.584514
0.601428
0.618134
0.634258
0.644084
0.648561
0.654973
0.664143
0.670913
0.672774
0.671623
0.671843
0.675384
0.679787
0.681806
0.679996
0.675132
0.670182
0.667972
0.669521
0.675236
0.685619
0.701194
0.722487
0.749806
0.78424
0.821411
0.903753
0.245294
0.244159
0.241408
0.237596
0.232995
0.226325
0.218798
0.210999
0.202902
0.194647
0.185731
0.175823
0.165
0.154006
0.143354
0.134054
0.131593
0.139872
0.113976
0.0605994
0.0651655
0.0826339
0.113929
0.155951
0.207613
0.271696
0.346107
0.423238
0.472445
0.498671
0.532007
0.561345
0.581801
0.598594
0.615986
0.631864
0.640819
0.645101
0.651998
0.66122
0.667532
0.668893
0.667574
0.668057
0.671817
0.676057
0.677594
0.675162
0.669741
0.664592
0.6625
0.66433
0.670466
0.681404
0.69765
0.719683
0.747746
0.782878
0.820627
0.903603
0.246072
0.244784
0.242157
0.239092
0.23554
0.230203
0.223536
0.216602
0.209325
0.201825
0.193632
0.184612
0.17478
0.165332
0.157053
0.149667
0.143585
0.15401
0.14992
0.0819633
0.0678876
0.0833369
0.114586
0.159238
0.210843
0.276798
0.35635
0.427637
0.462974
0.498025
0.533904
0.558944
0.578153
0.596095
0.614018
0.629286
0.637341
0.64165
0.649022
0.658227
0.664049
0.664913
0.663478
0.664263
0.668221
0.67225
0.673252
0.670157
0.664173
0.658868
0.656938
0.659087
0.665686
0.677223
0.694179
0.716977
0.745794
0.78162
0.81993
0.903496
0.247276
0.245863
0.243445
0.241159
0.238589
0.234464
0.228539
0.222147
0.215428
0.208426
0.200926
0.192733
0.184318
0.176055
0.169832
0.164553
0.160332
0.164219
0.174743
0.138678
0.0796285
0.089923
0.119978
0.164877
0.21866
0.287524
0.366779
0.423634
0.457495
0.501553
0.533213
0.554103
0.575022
0.594203
0.611951
0.626403
0.633701
0.638236
0.646032
0.655158
0.660466
0.66084
0.659347
0.660466
0.664588
0.668358
0.668769
0.664965
0.658421
0.653009
0.651289
0.653799
0.660906
0.673089
0.690793
0.71438
0.743958
0.780468
0.819318
0.903431
0.248804
0.247495
0.245571
0.244001
0.242186
0.238898
0.233628
0.227568
0.221204
0.214575
0.207769
0.200491
0.193324
0.186689
0.182111
0.179325
0.176686
0.176239
0.193939
0.195675
0.118546
0.0994106
0.12783
0.176404
0.234106
0.302788
0.371744
0.413055
0.460423
0.504541
0.527757
0.54951
0.573435
0.592508
0.609495
0.623271
0.630015
0.634859
0.643021
0.652012
0.656783
0.656677
0.655184
0.656665
0.660909
0.66437
0.664135
0.659569
0.65248
0.647019
0.645558
0.648474
0.656139
0.669013
0.687503
0.7119
0.742241
0.779422
0.818791
0.903405
0.250635
0.249724
0.248639
0.247627
0.246193
0.243295
0.238575
0.232751
0.226636
0.220414
0.214412
0.208204
0.202238
0.197639
0.194457
0.193649
0.193243
0.194601
0.20786
0.231316
0.20949
0.120621
0.136836
0.188039
0.247899
0.311916
0.367452
0.410971
0.468019
0.502729
0.520893
0.548279
0.572907
0.590267
0.606687
0.620081
0.626355
0.631496
0.639985
0.648787
0.652976
0.652412
0.650987
0.652852
0.657175
0.66026
0.659329
0.653956
0.646343
0.6409
0.639752
0.643122
0.651395
0.66501
0.684322
0.709546
0.740648
0.778483
0.818344
0.90341
0.252675
0.252573
0.252555
0.251899
0.250411
0.247555
0.243207
0.237632
0.231812
0.226165
0.221099
0.216178
0.211614
0.208286
0.206949
0.208501
0.210784
0.21454
0.225635
0.253889
0.275253
0.211963
0.152454
0.19323
0.252925
0.315785
0.35903
0.417425
0.472796
0.494989
0.517752
0.549454
0.57156
0.587186
0.603923
0.616978
0.622719
0.628133
0.636928
0.645468
0.649018
0.648022
0.646745
0.649008
0.653362
0.656002
0.654322
0.648103
0.640005
0.634657
0.633877
0.637754
0.646691
0.661095
0.681262
0.707326
0.739182
0.777649
0.817976
0.903444
0.255019
0.256014
0.25706
0.256547
0.254641
0.251575
0.247458
0.242268
0.236844
0.232008
0.228093
0.22456
0.221224
0.219111
0.22001
0.223711
0.228707
0.235406
0.247439
0.273327
0.311466
0.331141
0.238869
0.202634
0.25127
0.311337
0.363373
0.427885
0.470038
0.487514
0.51932
0.550202
0.568367
0.583805
0.601544
0.613922
0.619089
0.624806
0.633876
0.64204
0.644886
0.64349
0.642444
0.64511
0.649439
0.651561
0.649077
0.641981
0.633461
0.628292
0.627939
0.632385
0.642041
0.657284
0.678337
0.705248
0.737846
0.77692
0.817682
0.903504
0.257778
0.259934
0.261812
0.261247
0.25875
0.255341
0.251361
0.24671
0.241946
0.238206
0.235548
0.233322
0.231286
0.230601
0.23299
0.23881
0.246919
0.25663
0.270363
0.296213
0.33642
0.387743
0.412769
0.324575
0.277461
0.314872
0.372915
0.435183
0.462251
0.487016
0.522116
0.547937
0.563901
0.580871
0.599293
0.6106
0.615415
0.621567
0.630878
0.638522
0.640593
0.638831
0.638087
0.641137
0.645371
0.646897
0.643549
0.635554
0.626702
0.621806
0.621947
0.627027
0.637462
0.653593
0.675558
0.703319
0.736641
0.776292
0.817458
0.903587
0.261127
0.264154
0.266447
0.265712
0.262646
0.258857
0.255014
0.25111
0.247359
0.244892
0.243504
0.242483
0.241651
0.242227
0.246034
0.253903
0.264798
0.277836
0.293818
0.321174
0.362424
0.421749
0.493578
0.534078
0.506025
0.464411
0.455115
0.46658
0.467913
0.493834
0.524178
0.544843
0.561368
0.579154
0.596686
0.606464
0.611386
0.618271
0.627901
0.634936
0.636191
0.634103
0.633712
0.637096
0.641145
0.641983
0.637695
0.628786
0.619717
0.615202
0.615906
0.621692
0.632973
0.65004
0.672939
0.701544
0.735567
0.775763
0.817299
0.903689
0.265095
0.268475
0.270752
0.269769
0.266306
0.262211
0.258593
0.255632
0.253307
0.252123
0.251772
0.251713
0.251985
0.253865
0.258958
0.26842
0.28199
0.298644
0.317845
0.347056
0.391724
0.447412
0.528776
0.612658
0.678935
0.715587
0.734949
0.706165
0.663018
0.624665
0.588339
0.563518
0.564152
0.578897
0.594527
0.601487
0.60643
0.614262
0.624567
0.631169
0.631694
0.629377
0.629383
0.633019
0.636776
0.636814
0.631483
0.621659
0.612504
0.608481
0.609822
0.616392
0.628591
0.64664
0.670489
0.699928
0.734624
0.775329
0.817199
0.903804
0.269598
0.272728
0.274603
0.273358
0.269713
0.265514
0.262333
0.260505
0.25978
0.259755
0.260103
0.260746
0.261946
0.264989
0.271388
0.282493
0.298276
0.318615
0.342228
0.372868
0.420724
0.477706
0.549309
0.63537
0.718878
0.7892
0.846857
0.866016
0.879559
0.868505
0.822957
0.752903
0.672746
0.614847
0.595019
0.597928
0.601054
0.608653
0.619878
0.626684
0.626893
0.624633
0.625143
0.62895
0.632283
0.63141
0.624909
0.614174
0.60508
0.601651
0.603702
0.611143
0.624333
0.643409
0.668219
0.698472
0.733809
0.774985
0.817155
0.90393
0.274445
0.276806
0.277982
0.276494
0.272911
0.268946
0.266473
0.265882
0.266585
0.267481
0.268093
0.269158
0.271196
0.275342
0.282956
0.295528
0.313594
0.337355
0.364511
0.397611
0.445114
0.50486
0.570871
0.649417
0.730438
0.793899
0.841409
0.880698
0.916482
0.937457
0.947447
0.937687
0.885478
0.79849
0.695253
0.61877
0.598055
0.603635
0.613119
0.620406
0.621164
0.619599
0.620907
0.624888
0.627674
0.625771
0.61798
0.606357
0.597477
0.594731
0.597564
0.605962
0.620217
0.64036
0.666133
0.697179
0.733118
0.774724
0.817153
0.904063
0.279389
0.280648
0.280938
0.279245
0.276014
0.272748
0.271215
0.271719
0.273393
0.274736
0.275361
0.276726
0.279667
0.284968
0.293857
0.307832
0.327345
0.353224
0.384954
0.420905
0.466363
0.526421
0.592808
0.663279
0.740638
0.797752
0.84526
0.890801
0.923567
0.949202
0.974617
0.983488
0.971175
0.938568
0.873111
0.761218
0.645927
0.60429
0.607836
0.612298
0.613674
0.613632
0.616371
0.620708
0.622891
0.619867
0.610681
0.59824
0.589739
0.58775
0.591434
0.600873
0.616261
0.637505
0.664236
0.696044
0.732547
0.774541
0.817191
0.9042
0.284202
0.284191
0.283528
0.281726
0.279212
0.277128
0.276601
0.277763
0.279682
0.280949
0.281614
0.283356
0.287253
0.293827
0.303977
0.319207
0.339887
0.367062
0.401653
0.442065
0.486866
0.544376
0.61142
0.676902
0.744409
0.806599
0.860898
0.903165
0.930104
0.958142
0.984221
0.98936
0.98376
0.975318
0.949892
0.896159
0.794093
0.667861
0.61089
0.607041
0.605001
0.606203
0.610981
0.616119
0.61779
0.613609
0.60296
0.589853
0.581908
0.580742
0.585351
0.595907
0.612486
0.634852
0.662529
0.695064
0.732087
0.77443
0.817268
0.904337
0.288626
0.287382
0.285874
0.284147
0.282696
0.282141
0.282506
0.283583
0.284922
0.285964
0.286996
0.289348
0.294262
0.302257
0.313838
0.330277
0.351739
0.379266
0.414983
0.459517
0.507384
0.562312
0.627122
0.690866
0.752691
0.818608
0.872967
0.910404
0.9364
0.964281
0.984517
0.989143
0.989497
0.985176
0.969455
0.939903
0.894686
0.805477
0.675194
0.608687
0.599698
0.598306
0.604297
0.610714
0.612157
0.606847
0.594736
0.581218
0.574017
0.57374
0.579361
0.591102
0.608914
0.63241
0.661008
0.694232
0.731731
0.774384
0.817373
0.904473
0.292507
0.290186
0.288071
0.286715
0.286648
0.287641
0.288476
0.288661
0.288835
0.289694
0.291483
0.294823
0.300822
0.310231
0.323452
0.341416
0.364003
0.391656
0.42662
0.472399
0.524433
0.578103
0.639346
0.703056
0.76269
0.825483
0.875216
0.912587
0.943013
0.968778
0.984126
0.991332
0.996391
0.993985
0.977071
0.952775
0.926242
0.886782
0.797741
0.661896
0.600058
0.593576
0.597391
0.604362
0.605801
0.599412
0.58592
0.572351
0.566088
0.566782
0.573509
0.586496
0.60557
0.630186
0.659671
0.693536
0.731469
0.774389
0.817498
0.904604
0.295747
0.292621
0.290297
0.289633
0.291031
0.293183
0.293881
0.292728
0.291776
0.292655
0.295515
0.30012
0.307221
0.3179
0.332786
0.352643
0.376869
0.405259
0.439007
0.482736
0.535559
0.589591
0.647727
0.710297
0.768479
0.822564
0.869054
0.911092
0.948836
0.975547
0.988773
0.996193
1.00182
1.00103
0.984206
0.959085
0.937777
0.913637
0.871599
0.767405
0.635496
0.594365
0.593322
0.597917
0.598802
0.591191
0.57645
0.56326
0.55815
0.559906
0.567835
0.582132
0.602479
0.628185
0.658508
0.692967
0.731291
0.77443
0.817639
0.90473
0.298343
0.294799
0.292745
0.29291
0.295567
0.298192
0.298182
0.295926
0.294115
0.295114
0.299149
0.305259
0.313609
0.325447
0.341767
0.363425
0.389612
0.419932
0.453467
0.493721
0.543705
0.597729
0.653065
0.711681
0.767773
0.81727
0.866129
0.913918
0.955552
0.98356
0.996785
1.00232
1.00588
1.00564
0.990511
0.965486
0.944312
0.925315
0.896294
0.838068
0.717145
0.615428
0.594881
0.59394
0.591873
0.582295
0.566357
0.553983
0.550211
0.553146
0.562388
0.57805
0.599662
0.626411
0.657513
0.692511
0.731185
0.774512
0.81779
0.904847
0.300398
0.296878
0.295507
0.296475
0.299762
0.302233
0.301497
0.298646
0.29644
0.297577
0.302527
0.310104
0.319873
0.332939
0.350466
0.373437
0.400985
0.433506
0.469243
0.507779
0.553977
0.606718
0.660579
0.714635
0.768961
0.819269
0.870454
0.919208
0.960646
0.990209
1.00406
1.00754
1.00858
1.00775
0.995236
0.972306
0.950662
0.931483
0.904977
0.867843
0.789326
0.67036
0.607615
0.594654
0.586458
0.573304
0.555877
0.544602
0.542285
0.546537
0.557219
0.574289
0.597137
0.624862
0.656674
0.692156
0.731142
0.774619
0.817944
0.904956
0.302076
0.299008
0.298543
0.300071
0.303204
0.305126
0.304017
0.301085
0.29904
0.300375
0.305731
0.314361
0.325671
0.340252
0.358967
0.382785
0.410713
0.444506
0.483144
0.524141
0.569466
0.620943
0.674937
0.726772
0.779155
0.829006
0.877686
0.921904
0.961941
0.993872
1.00843
1.01096
1.01058
1.00909
0.99879
0.978638
0.95708
0.936273
0.911319
0.879766
0.825689
0.731623
0.637656
0.601589
0.584503
0.56518
0.545535
0.535303
0.534409
0.540125
0.552372
0.57088
0.594915
0.623535
0.655976
0.691895
0.731126
0.774739
0.818096
0.905054
0.303486
0.301274
0.301712
0.303353
0.305673
0.306823
0.305756
0.303445
0.302204
0.303783
0.308917
0.317884
0.330511
0.346811
0.366977
0.391566
0.419359
0.453185
0.493376
0.538262
0.584844
0.636219
0.691423
0.744617
0.796083
0.842755
0.883662
0.921588
0.961196
0.994463
1.0097
1.01244
1.01188
1.0102
1.00199
0.984584
0.963064
0.940548
0.915051
0.883746
0.844081
0.77708
0.680557
0.61573
0.585667
0.558562
0.536031
0.52642
0.526702
0.533973
0.547883
0.567846
0.593003
0.62242
0.655414
0.691709
0.731144
0.774866
0.818242
0.905142
0.304756
0.303646
0.304677
0.306042
0.307255
0.307687
0.307022
0.305847
0.305865
0.307657
0.312166
0.320856
0.334183
0.351908
0.373665
0.399237
0.427486
0.460685
0.500106
0.546308
0.596069
0.646883
0.701669
0.75683
0.808714
0.853797
0.889591
0.923946
0.961985
0.992958
1.00895
1.01319
1.01296
1.01077
1.00396
0.989335
0.969293