/*--------------------------------*- C++ -*----------------------------------*\
  =========                 |
  \\      /  F ield         | OpenFOAM: The Open Source CFD Toolbox
   \\    /   O peration     | Website:  https://openfoam.org
    \\  /    A nd           | Version:  7
     \\/     M anipulation  |
\*---------------------------------------------------------------------------*/
FoamFile
{
    version     2.0;
    format      ascii;
    class       volScalarField;
    location    "0.1";
    object      rho;
}
// * * * * * * * * * * * * * * * * * * * * * * * * * * * * * * * * * * * * * //

dimensions      [1 -3 0 0 0 0 0];

internalField   nonuniform List<scalar> 
103200
(
0.295482
0.315947
0.32877
0.33044
0.3342
0.352777
0.37764
0.386559
0.396648
0.409826
0.420258
0.424514
0.426642
0.427136
0.427357
0.430962
0.430913
0.430133
0.437877
0.441581
0.445693
0.456518
0.46899
0.486674
0.520214
0.614802
0.747493
0.835349
0.884022
0.920105
0.954289
0.986632
1.01669
1.04304
1.06577
1.08694
1.1074
1.12418
1.13449
1.14047
1.14741
1.15667
1.16458
1.16863
1.17019
1.173
1.17826
1.18425
1.18889
1.19152
1.19309
1.19501
1.19835
1.2037
1.21152
1.22239
1.23684
1.2561
1.27765
1.33365
0.277697
0.318499
0.331614
0.32585
0.331546
0.354302
0.367439
0.36874
0.374632
0.39097
0.404408
0.407583
0.410844
0.414002
0.41502
0.418318
0.41919
0.418432
0.425722
0.428823
0.431837
0.442349
0.455001
0.472178
0.505593
0.603534
0.735371
0.829711
0.880442
0.916865
0.950779
0.982948
1.01368
1.0406
1.06329
1.08423
1.10466
1.12155
1.13186
1.13777
1.14474
1.15398
1.16175
1.16563
1.16711
1.16996
1.17523
1.18118
1.18572
1.18823
1.18969
1.19153
1.19482
1.20018
1.20808
1.21909
1.23375
1.25332
1.27525
1.33207
0.319954
0.343491
0.335479
0.321285
0.32139
0.332239
0.335453
0.340299
0.349206
0.36798
0.387783
0.391374
0.395198
0.399887
0.400737
0.40326
0.404438
0.403347
0.409844
0.412581
0.415025
0.425474
0.439027
0.455959
0.489359
0.589051
0.726902
0.826089
0.875703
0.912742
0.94706
0.980078
1.01153
1.03844
1.06085
1.0816
1.10199
1.11892
1.12917
1.13504
1.14207
1.15128
1.1589
1.1626
1.16402
1.1669
1.17218
1.17809
1.18252
1.18491
1.18624
1.18799
1.19125
1.19663
1.2046
1.21575
1.23064
1.25054
1.27286
1.33052
0.377562
0.385057
0.356921
0.329231
0.318714
0.318765
0.314846
0.315909
0.330333
0.348311
0.369657
0.376452
0.374404
0.376085
0.37858
0.382917
0.385155
0.384647
0.39057
0.393721
0.396352
0.406795
0.421618
0.438934
0.47235
0.573843
0.717925
0.818253
0.870042
0.909326
0.94517
0.978749
1.00933
1.03585
1.05826
1.079
1.09935
1.11625
1.12643
1.13228
1.1394
1.1486
1.15603
1.15954
1.16089
1.16382
1.16912
1.17497
1.17929
1.18154
1.18275
1.18441
1.18763
1.19303
1.20108
1.21239
1.22751
1.24775
1.27047
1.32899
0.397877
0.389491
0.357975
0.333321
0.321419
0.316648
0.312082
0.310916
0.319184
0.329028
0.33777
0.348729
0.34695
0.347336
0.352206
0.360322
0.36324
0.364357
0.370137
0.373453
0.376836
0.38757
0.403753
0.421331
0.454308
0.559326
0.712153
0.812799
0.866685
0.908856
0.945211
0.976535
1.00589
1.03299
1.05582
1.0765
1.09672
1.11357
1.12369
1.12955
1.13675
1.1459
1.15315
1.15646
1.15775
1.16071
1.16604
1.17183
1.17603
1.17813
1.17921
1.18078
1.18397
1.18939
1.19753
1.20899
1.22436
1.24496
1.26809
1.32748
0.390507
0.381681
0.362219
0.349766
0.339719
0.330982
0.321875
0.31779
0.319462
0.318559
0.316899
0.31775
0.316851
0.317588
0.327239
0.338158
0.340754
0.343617
0.349588
0.353882
0.358728
0.370005
0.387331
0.405516
0.438847
0.551263
0.704604
0.808081
0.866666
0.908987
0.942507
0.971727
1.00228
1.03074
1.05367
1.07403
1.09414
1.11095
1.12099
1.12683
1.13408
1.14318
1.15023
1.15334
1.15457
1.15759
1.16294
1.16867
1.17273
1.17468
1.17562
1.1771
1.18026
1.18571
1.19394
1.20558
1.2212
1.24216
1.26572
1.326
0.390212
0.389665
0.384267
0.382063
0.373736
0.358815
0.344327
0.334117
0.326308
0.317283
0.306249
0.297285
0.290158
0.287005
0.296833
0.310552
0.315341
0.320789
0.327301
0.333767
0.340545
0.352301
0.369628
0.388045
0.421841
0.537119
0.692416
0.808177
0.866482
0.904812
0.936268
0.96723
1.00019
1.02901
1.05138
1.07152
1.09167
1.10842
1.1183
1.12408
1.13139
1.14045
1.14729
1.1502
1.15137
1.15445
1.15982
1.16548
1.16939
1.17118
1.17197
1.17336
1.1765
1.18198
1.19032
1.20213
1.21803
1.23936
1.26336
1.32454
0.39916
0.402725
0.404163
0.403289
0.393855
0.379377
0.365821
0.355485
0.343468
0.328997
0.309995
0.287915
0.273593
0.262598
0.267107
0.281072
0.290374
0.297487
0.305425
0.314651
0.32379
0.336146
0.353568
0.371914
0.405917
0.52235
0.686615
0.809194
0.860103
0.897821
0.93204
0.966249
0.999211
1.02662
1.04868
1.06906
1.0893
1.10591
1.11556
1.12127
1.12867
1.13769
1.14433
1.14702
1.14814
1.15129
1.15668
1.16226
1.16602
1.16764
1.16828
1.16958
1.17268
1.17821
1.18665
1.19866
1.21484
1.23656
1.26101
1.32312
0.404867
0.406001
0.40752
0.406039
0.395158
0.384925
0.377948
0.371465
0.359764
0.340091
0.317458
0.290878
0.26362
0.243741
0.241203
0.250029
0.263278
0.273188
0.282753
0.294501
0.306539
0.320192
0.337592
0.355465
0.389445
0.508511
0.688708
0.802674
0.852226
0.894681
0.932945
0.966989
0.996554
1.02329
1.04602
1.06675
1.08698
1.10335
1.11276
1.11843
1.12595
1.13492
1.14134
1.14381
1.14488
1.1481
1.15351
1.15901
1.1626
1.16404
1.16453
1.16573
1.16881
1.17439
1.18295
1.19516
1.21163
1.23377
1.25868
1.32173
0.40486
0.402564
0.398438
0.39287
0.384973
0.381931
0.379876
0.374087
0.361398
0.344173
0.321816
0.296359
0.263734
0.233568
0.218287
0.222808
0.236468
0.247605
0.258195
0.273061
0.288287
0.302931
0.320184
0.337834
0.372091
0.500876
0.69207
0.792942
0.848851
0.897271
0.934861
0.963947
0.992043
1.0202
1.04375
1.0645
1.08463
1.10077
1.10993
1.11559
1.12322
1.13214
1.13831
1.14055
1.14159
1.14489
1.15033
1.15572
1.15913
1.16039
1.16072
1.16183
1.16489
1.17052
1.17922
1.19164
1.20842
1.23097
1.25638
1.32037
0.402227
0.398459
0.390662
0.385157
0.382303
0.382858
0.380774
0.372258
0.357357
0.339094
0.317412
0.292916
0.264832
0.231685
0.206691
0.204537
0.212702
0.222323
0.233319
0.250268
0.268161
0.284214
0.302031
0.31987
0.354958
0.492725
0.687573
0.789598
0.852614
0.899456
0.931116
0.957771
0.988437
1.01811
1.04159
1.06221
1.08231
1.09821
1.10709
1.11273
1.12048
1.12933
1.13524
1.13725
1.13827
1.14165
1.14711
1.1524
1.15562
1.15668
1.15686
1.15787
1.16092
1.16661
1.17544
1.18809
1.2052
1.22819
1.25409
1.31904
0.401142
0.39895
0.392517
0.388922
0.387704
0.386944
0.381854
0.370267
0.353496
0.33459
0.313613
0.288153
0.260688
0.230338
0.202129
0.190023
0.19286
0.199519
0.20896
0.22768
0.248055
0.265662
0.283435
0.301166
0.337424
0.482208
0.683431
0.794454
0.855475
0.894545
0.924016
0.954256
0.987088
1.01617
1.03918
1.05993
1.08005
1.09564
1.1042
1.10986
1.11775
1.1265
1.13212
1.13391
1.13492
1.13839
1.14387
1.14905
1.15205
1.15291
1.15293
1.15385
1.15688
1.16264
1.17163
1.18452
1.20198
1.22542
1.25183
1.31775
0.401398
0.40079
0.397016
0.394657
0.393077
0.389192
0.380528
0.367106
0.349689
0.330562
0.308913
0.28124
0.251289
0.224762
0.196355
0.178813
0.175318
0.177789
0.18598
0.205788
0.227973
0.246454
0.264859
0.283078
0.321407
0.473115
0.685735
0.80145
0.849272
0.88709
0.921464
0.954821
0.985669
1.01345
1.03667
1.0577
1.07773
1.09295
1.10126
1.107
1.11499
1.12362
1.12896
1.13053
1.13155
1.1351
1.1406
1.14565
1.14843
1.14907
1.14893
1.14976
1.15279
1.15863
1.16779
1.18094
1.19875
1.22266
1.2496
1.3165
0.400199
0.40056
0.399343
0.396901
0.392408
0.384811
0.373808
0.360262
0.343288
0.32343
0.300294
0.269341
0.237219
0.21515
0.189214
0.167326
0.157036
0.158448
0.166421
0.184687
0.207395
0.227431
0.247859
0.267152
0.307186
0.472788
0.700061
0.796826
0.841016
0.885849
0.923472
0.953895
0.98225
1.01049
1.03428
1.05535
1.07524
1.09021
1.09836
1.10414
1.11219
1.12069
1.12575
1.12712
1.12814
1.13179
1.1373
1.14221
1.14475
1.14516
1.14485
1.14561
1.14864
1.15457
1.1639
1.17733
1.19552
1.21992
1.2474
1.31529
0.395769
0.395954
0.394774
0.391377
0.384621
0.375383
0.365313
0.352982
0.335482
0.313067
0.287
0.253804
0.219817
0.199359
0.180176
0.159366
0.144492
0.143666
0.149411
0.166172
0.187214
0.209497
0.23002
0.250029
0.292813
0.477815
0.713462
0.786035
0.840117
0.889861
0.922709
0.948971
0.978564
1.00815
1.03186
1.05279
1.07275
1.08759
1.09553
1.10123
1.10935
1.11774
1.12251
1.12367
1.12471
1.12845
1.13397
1.13872
1.14102
1.14119
1.1407
1.14138
1.14443
1.15046
1.15999
1.17371
1.19229
1.2172
1.24523
1.31413
0.391079
0.390583
0.388449
0.384275
0.37797
0.371259
0.362877
0.350693
0.332028
0.306121
0.273503
0.235754
0.200179
0.177445
0.166735
0.151882
0.138333
0.132683
0.137196
0.150362
0.169854
0.191809
0.212266
0.232368
0.279843
0.487511
0.714061
0.7859
0.846795
0.889938
0.917173
0.944885
0.977081
1.00621
1.02917
1.0503
1.07053
1.08513
1.09263
1.09822
1.10647
1.11477
1.11924
1.12018
1.12124
1.12509
1.13061
1.13519
1.13723
1.13714
1.13647
1.13708
1.14015
1.1463
1.15604
1.17007
1.18907
1.2145
1.24311
1.31301
0.39412
0.393378
0.391214
0.387954
0.384074
0.380381
0.374395
0.363873
0.345806
0.314285
0.269818
0.221054
0.180248
0.153186
0.147499
0.141485
0.132657
0.126568
0.128458
0.136134
0.152627
0.172803
0.196193
0.218564
0.268229
0.496983
0.71486
0.791711
0.851017
0.883966
0.912932
0.945148
0.976754
1.00372
1.02649
1.04821
1.06855
1.08259
1.08951
1.09513
1.1036
1.11178
1.11594
1.11665
1.11774
1.1217
1.12722
1.1316
1.13337
1.13301
1.13216
1.13271
1.13582
1.14209
1.15206
1.16642
1.18586
1.21183
1.24102
1.31193
0.437989
0.436983
0.435685
0.43463
0.434705
0.434709
0.431709
0.420034
0.397134
0.355628
0.295084
0.21824
0.163549
0.133489
0.127523
0.128282
0.124273
0.121459
0.121152
0.124556
0.136288
0.158068
0.181866
0.203864
0.257312
0.521902
0.731281
0.804647
0.845729
0.8777
0.913366
0.946555
0.974676
1.00076
1.0243
1.04645
1.06647
1.07974
1.0862
1.09204
1.10074
1.10877
1.11257
1.11307
1.11422
1.11828
1.12379
1.12796
1.12944
1.1288
1.12776
1.12826
1.13141
1.13783
1.14804
1.16276
1.18266
1.2092
1.23898
1.3109
0.504376
0.502638
0.500164
0.497923
0.496721
0.493952
0.484382
0.463621
0.433969
0.39103
0.333129
0.245501
0.156471
0.120811
0.113066
0.114367
0.114565
0.114747
0.113681
0.115971
0.125455
0.145332
0.166365
0.182736
0.253481
0.572981
0.750136
0.805469
0.836317
0.875992
0.915737
0.944432
0.970838
0.99837
1.02257
1.04454
1.06399
1.07661
1.0829
1.08903
1.09789
1.1057
1.10914
1.10944
1.11066
1.11484
1.12032
1.12426
1.12544
1.1245
1.12328
1.12373
1.12694
1.13352
1.144
1.15909
1.17948
1.2066
1.23699
1.30993
0.529779
0.527756
0.524837
0.521736
0.517635
0.509304
0.493906
0.471336
0.443616
0.404812
0.35374
0.280055
0.172857
0.114177
0.103087
0.106263
0.104691
0.104447
0.105365
0.10784
0.116939
0.131541
0.149744
0.167637
0.284343
0.634824
0.759462
0.794172
0.829884
0.878729
0.914458
0.939148
0.968057
0.996944
1.02071
1.04215
1.06124
1.07351
1.07973
1.08605
1.09499
1.10255
1.10564
1.10577
1.10708
1.11138
1.11681
1.1205
1.12135
1.1201
1.11871
1.11912
1.12241
1.12916
1.13993
1.15543
1.17632
1.20404
1.23506
1.309
0.530732
0.527851
0.523615
0.518152
0.511356
0.50257
0.490199
0.472012
0.446289
0.407809
0.359148
0.296492
0.208743
0.115909
0.097511
0.100308
0.0985527
0.0946985
0.0949864
0.0997828
0.10888
0.121489
0.137669
0.155173
0.347671
0.655378
0.748809
0.777937
0.82796
0.88056
0.908818
0.935753
0.967539
0.995612
1.01827
1.03955
1.05865
1.07064
1.07663
1.08302
1.09202
1.09933
1.10208
1.10206
1.10347
1.10789
1.11325
1.11668
1.11718
1.11561
1.11404
1.11443
1.1178
1.12476
1.13584
1.15176
1.17318
1.20152
1.23318
1.30813
0.525928
0.522183
0.516778
0.510611
0.505042
0.499223
0.489447
0.471073
0.442602
0.402015
0.351831
0.293865
0.228983
0.135793
0.0953514
0.0958036
0.0955579
0.0912184
0.089333
0.0907544
0.0975143
0.111586
0.12675
0.148111
0.399443
0.665915
0.722136
0.765081
0.831983
0.876119
0.903821
0.935824
0.967406
0.993366
1.01555
1.03726
1.05641
1.06787
1.07343
1.0799
1.08901
1.09607
1.09847
1.09831
1.09983
1.10438
1.10964
1.11278
1.11291
1.11102
1.10928
1.10965
1.11314
1.12031
1.13173
1.1481
1.17008
1.19906
1.23136
1.30731
0.520991
0.517814
0.51242
0.507054
0.503176
0.497687
0.486451
0.466539
0.436256
0.392158
0.322042
0.257209
0.221569
0.171038
0.0971654
0.092294
0.0918271
0.0911863
0.0896746
0.0884267
0.0899723
0.100335
0.113217
0.175238
0.463023
0.652623
0.690305
0.761031
0.831945
0.868139
0.902994
0.93672
0.965481
0.9904
1.01319
1.03546
1.0543
1.06492
1.07001
1.07672
1.08598
1.09276
1.0948
1.0945
1.09617
1.10083
1.10598
1.10882
1.10855
1.10632
1.10441
1.10479
1.1084
1.11581
1.1276
1.14445
1.16701
1.19665
1.22961
1.30655
0.519179
0.515512
0.509582
0.504117
0.499521
0.492377
0.479715
0.459292
0.424136
0.363426
0.28838
0.237239
0.211517
0.188113
0.111335
0.0896837
0.0879131
0.0918526
0.0936149
0.0901136
0.0899005
0.0947767
0.101762
0.214437
0.478102
0.613094
0.668305
0.763303
0.822507
0.864038
0.904407
0.934916
0.961855
0.9878
1.01145
1.03383
1.05195
1.06162
1.06646
1.07356
1.08295
1.08939
1.09105
1.09066
1.09248
1.09726
1.10227
1.10476
1.10408
1.1015
1.09944
1.09984
1.1036
1.11128
1.12345
1.14081
1.16398
1.19431
1.22793
1.30585
0.520016
0.515713
0.508279
0.500505
0.493193
0.48341
0.470054
0.445919
0.400504
0.336791
0.284059
0.247103
0.215808
0.19522
0.147536
0.0903759
0.0882534
0.0963958
0.099941
0.0956819
0.094906
0.092036
0.114635
0.268297
0.462161
0.56565
0.654829
0.754467
0.81259
0.865516
0.903212
0.930152
0.95875
0.986142
1.00994
1.03196
1.04923
1.05812
1.06293
1.07045
1.0799
1.08595
1.08723
1.08676
1.08877
1.09365
1.09849
1.10062
1.0995
1.09657
1.09437
1.09481
1.09873
1.1067
1.1193
1.1372
1.16101
1.19203
1.22632
1.3052
0.522792
0.517159
0.507007
0.496194
0.485933
0.473936
0.45921
0.429348
0.381939
0.33131
0.292993
0.259412
0.224653
0.201197
0.176538
0.101559
0.0922333
0.101253
0.103825
0.100073
0.0991656
0.0986548
0.193948
0.312945
0.425519
0.525583
0.639933
0.739846
0.811374
0.866619
0.897918
0.92625
0.957453
0.98494
1.00817
1.02975
1.04632
1.05461
1.05948
1.06737
1.07681
1.08242
1.08333
1.08283
1.08503
1.09
1.09464
1.09638
1.0948
1.09151
1.08918
1.08968
1.0938
1.10209
1.11514
1.13362
1.15808
1.18982
1.22479
1.30461
0.525844
0.518307
0.505371
0.492064
0.479686
0.466784
0.451227
0.420663
0.378756
0.336817
0.30223
0.271234
0.237232
0.208751
0.191659
0.138699
0.0983635
0.1019
0.105523
0.105581
0.120841
0.1617
0.235574
0.310794
0.393024
0.501617
0.624815
0.73496
0.814175
0.862108
0.893039
0.925476
0.95706
0.983352
1.00602
1.02744
1.04345
1.05117
1.05606
1.06428
1.07364
1.07881
1.07936
1.07885
1.08127
1.08632
1.09072
1.09203
1.08997
1.08632
1.08388
1.08447
1.0888
1.09745
1.11099
1.13007
1.15522
1.18769
1.22334
1.30407
0.526915
0.518378
0.503747
0.488977
0.475609
0.462504
0.446969
0.419597
0.383677
0.346974
0.314235
0.283169
0.25026
0.218459
0.203217
0.181051
0.110228
0.100684
0.103842
0.116934
0.143247
0.185373
0.240626
0.309864
0.383645
0.49213
0.618201
0.737446
0.811919
0.855454
0.892348
0.926139
0.955854
0.981099
1.00379
1.02528
1.04064
1.0477
1.0526
1.06116
1.0704
1.07511
1.07533
1.07483
1.07748
1.08259
1.08672
1.08757
1.085
1.08099
1.07847
1.07916
1.08374
1.09278
1.10684
1.12656
1.15243
1.18564
1.22197
1.3036
0.526181
0.517493
0.502352
0.487403
0.473727
0.460721
0.446189
0.422588
0.392255
0.360445
0.329458
0.297683
0.263818
0.231126
0.211897
0.202124
0.141503
0.102163
0.102957
0.123173
0.151337
0.186372
0.236745
0.299685
0.378446
0.485532
0.620335
0.737517
0.804307
0.853536
0.89392
0.925111
0.953211
0.978666
1.00182
1.02325
1.03775
1.04407
1.04905
1.058
1.06709
1.07134
1.07122
1.07078
1.07367
1.0788
1.08264
1.08298
1.07988
1.07552
1.07294
1.07376
1.07863
1.08809
1.10271
1.1231
1.14971
1.18368
1.22069
1.30318
0.524982
0.516552
0.502073
0.487862
0.474178
0.461315
0.44803
0.427974
0.40223
0.374385
0.345792
0.315206
0.280521
0.245404
0.217869
0.211758
0.185086
0.111069
0.105514
0.12842
0.152481
0.185872
0.227964
0.282019
0.367723
0.481892
0.625519
0.73143
0.79872
0.855958
0.89338
0.921168
0.950186
0.976667
1.00007
1.02113
1.03461
1.04024
1.04547
1.05484
1.06372
1.06748
1.06703
1.06669
1.06982
1.07496
1.07846
1.07826
1.07459
1.06991
1.06728
1.06828
1.07346
1.08338
1.0986
1.1197
1.14708
1.18181
1.2195
1.30281
0.522618
0.515391
0.503216
0.489482
0.475962
0.463265
0.450912
0.43392
0.412276
0.387841
0.361835
0.333434
0.300415
0.263601
0.229759
0.217048
0.207306
0.139305
0.113707
0.134431
0.153392
0.188237
0.225381
0.27372
0.364138
0.48721
0.627338
0.720781
0.800376
0.857942
0.88839
0.916541
0.948313
0.975157
0.998294
1.01878
1.03124
1.03629
1.04192
1.0517
1.06029
1.06353
1.06277
1.06256
1.06595
1.07105
1.07418
1.0734
1.06914
1.06413
1.06151
1.06271
1.06824
1.07867
1.09452
1.11637
1.14453
1.18004
1.21839
1.3025
0.520505
0.515045
0.504541
0.491413
0.478645
0.466214
0.454877
0.441081
0.423576
0.402441
0.378647
0.351806
0.321154
0.286409
0.251392
0.225328
0.219294
0.188532
0.127708
0.137585
0.155609
0.189752
0.228555
0.277731
0.369174
0.492536
0.619966
0.716825
0.807153
0.855026
0.881405
0.91455
0.947756
0.973606
0.996306
1.01624
1.02769
1.03227
1.03845
1.04858
1.05679
1.05947
1.05842
1.0584
1.06205
1.06706
1.06977
1.06837
1.06351
1.0582
1.05562
1.05705
1.06298
1.07395
1.09049
1.11312
1.14208
1.17837
1.21738
1.30225
0.520272
0.515713
0.505506
0.493279
0.481673
0.469998
0.45998
0.449003
0.434956
0.416988
0.39558
0.370408
0.341962
0.310635
0.277064
0.244245
0.234916
0.223352
0.158355
0.138855
0.155609
0.185992
0.22635
0.280156
0.369871
0.488746
0.609875
0.725025
0.81087
0.846954
0.878128
0.915426
0.947123
0.97157
0.994218
1.0136
1.02399
1.02823
1.03505
1.04543
1.05318
1.05529
1.05398
1.05421
1.05812
1.06301
1.06523
1.06317
1.05769
1.05211
1.0496
1.05131
1.05768
1.06924
1.08651
1.10995
1.13974
1.1768
1.21646
1.30204
0.521112
0.516603
0.506363
0.495129
0.484912
0.474565
0.465742
0.456883
0.445643
0.430764
0.411832
0.388834
0.362592
0.334721
0.304944
0.274931
0.253956
0.2506
0.213096
0.144171
0.153465
0.178936
0.219041
0.279111
0.36885
0.486126
0.616322
0.737099
0.806606
0.840266
0.879649
0.916477
0.945151
0.969256
0.992228
1.01081
1.02007
1.02419
1.03171
1.04223
1.04945
1.05098
1.04948
1.04999
1.05415
1.05886
1.06055
1.05779
1.05166
1.04585
1.04346
1.04549
1.05234
1.06455
1.08259
1.10687
1.1375
1.17535
1.21564
1.30188
0.522697
0.517909
0.507801
0.49747
0.488653
0.480053
0.47223
0.464756
0.455547
0.443218
0.426605
0.406211
0.382502
0.35793
0.333224
0.306614
0.279798
0.276928
0.257872
0.172043
0.155931
0.178158
0.219982
0.285833
0.37746
0.496646
0.632559
0.743105
0.795657
0.839826
0.882563
0.914938
0.942077
0.967284
0.990302
1.00772
1.01591
1.02019
1.0284
1.03895
1.0456
1.04656
1.04491
1.04575
1.05014
1.05462
1.05571
1.05219
1.04542
1.03942
1.03721
1.0396
1.04699
1.05989
1.07875
1.1039
1.13539
1.174
1.2149
1.30177
0.524797
0.519869
0.510063
0.50063
0.493179
0.486212
0.479154
0.472409
0.464542
0.45414
0.439867
0.422118
0.40169
0.379877
0.359634
0.337692
0.314253
0.299523
0.295595
0.243239
0.171249
0.186049
0.228607
0.298183
0.394427
0.516737
0.64883
0.739045
0.789724
0.844284
0.882496
0.910485
0.939646
0.965917
0.988109
1.0042
1.01158
1.01628
1.0251
1.03558
1.04162
1.04202
1.04029
1.0415
1.04608
1.05028
1.05071
1.04638
1.03896
1.03282
1.03085
1.03365
1.04162
1.05527
1.075
1.10105
1.13339
1.17277
1.21426
1.3017
0.527339
0.522642
0.513542
0.504919
0.498568
0.492704
0.486252
0.479812
0.4727
0.463737
0.451914
0.436887
0.419604
0.401352
0.384749
0.368098
0.34823
0.328132
0.330697
0.31527
0.220206
0.200111
0.243026
0.32032
0.422113
0.542744
0.657471
0.727486
0.793701
0.848042
0.87717
0.906333
0.939041
0.964635
0.985314
1.00036
1.00723
1.01245
1.02179
1.03211
1.03751
1.03736
1.03562
1.03724
1.04196
1.04582
1.04552
1.04032
1.03227
1.02606
1.02437
1.02764
1.03626
1.05071
1.07134
1.09833
1.13153
1.17164
1.2137
1.30167
0.530351
0.526295
0.518372
0.510368
0.504601
0.499176
0.493164
0.486834
0.480125
0.472393
0.463022
0.450861
0.436872
0.422787
0.409302
0.397286
0.382425
0.367022
0.362193
0.370953
0.331695
0.229699
0.260052
0.343613
0.447364
0.559527
0.654941
0.726184
0.802979
0.84631
0.870022
0.906123
0.939548
0.962552
0.981969
0.996435
1.00297
1.00867
1.01844
1.02853
1.03325
1.03258
1.03091
1.03296
1.03778
1.04121
1.04012
1.034
1.02534
1.01913
1.01779
1.02158
1.03091
1.04623
1.06781
1.09574
1.1298
1.17064
1.21323
1.30167
0.533674
0.530852
0.524425
0.516788
0.510952
0.505441
0.499632
0.493414
0.487067
0.480546
0.473518
0.464474
0.454176
0.443226
0.433529
0.426378
0.417467
0.407636
0.402361
0.4152
0.420519
0.34481
0.287173
0.358689
0.461601
0.56967
0.647566
0.735423
0.809059
0.837826
0.867329
0.908885
0.939055
0.959287
0.978551
0.992644
0.99878
1.00492
1.01507
1.02482
1.02881
1.02764
1.02613
1.02863
1.03349
1.03643
1.03449
1.02739
1.01816
1.01204
1.01112
1.01549
1.02559
1.04183
1.0644
1.09329
1.12821
1.16974
1.21284
1.30171
0.537425
0.536253
0.531334
0.523787
0.517283
0.511331
0.505586
0.499672
0.493753
0.488547
0.483853
0.477992
0.471051
0.463357
0.45791
0.455031
0.451999
0.448316
0.447546
0.459821
0.48592
0.493784
0.399412
0.380777
0.468659
0.570305
0.65555
0.749485
0.806218
0.829709
0.870258
0.911246
0.936168
0.955457
0.975509
0.988969
0.994645
1.00122
1.01168
1.02098
1.02416
1.02252
1.02127
1.02423
1.02907
1.03143
1.02857
1.02046
1.01072
1.00479
1.00436
1.00938
1.02033
1.03754
1.06114
1.091
1.12675
1.16896
1.21253
1.30177
0.541748
0.542309
0.538585
0.530877
0.523391
0.516837
0.511102
0.505716
0.500541
0.496875
0.494367
0.491438
0.487719
0.483616
0.481474
0.482785
0.485639
0.488157
0.492832
0.509177
0.540053
0.586708
0.611143
0.534257
0.506427
0.577419
0.671028
0.759785
0.79767
0.829764
0.875126
0.910101
0.931533
0.951949
0.972615
0.985063
0.99049
0.997612
1.00832
1.01701
1.01931
1.01725
1.01634
1.01973
1.02448
1.02617
1.02232
1.01316
1.00302
0.997378
0.997509
1.00327
1.01514
1.03339
1.05804
1.08888
1.12544
1.16829
1.2123
1.30186
0.546926
0.548733
0.54559
0.537611
0.529164
0.521981
0.516327
0.511792
0.50782
0.505812
0.505278
0.504793
0.503864
0.503013
0.504345
0.509804
0.517781
0.526544
0.536687
0.558847
0.595213
0.652863
0.730886
0.78454
0.7815
0.761638
0.771379
0.797206
0.804306
0.838844
0.879406
0.907777
0.928928
0.949727
0.969357
0.980281
0.985941
0.993925
1.00497
1.01296
1.01433
1.01189
1.01138
1.01515
1.0197
1.02061
1.01567
1.00545
0.995031
0.989809
0.990586
0.997175
1.01003
1.02938
1.05512
1.08692
1.12427
1.16772
1.21213
1.30196
0.552973
0.555238
0.552044
0.543709
0.534586
0.526898
0.521503
0.518146
0.515937
0.515486
0.516399
0.517645
0.51901
0.521279
0.526048
0.5351
0.548017
0.56314
0.57962
0.606541
0.650935
0.708036
0.796976
0.897441
0.983737
1.04521
1.08468
1.06586
1.02547
0.988607
0.953562
0.929372
0.931985
0.949229
0.966694
0.974575
0.980322
0.989392
1.00119
1.00868
1.00923
1.00651
1.00646
1.01052
1.01475
1.01475
1.0086
0.997308
0.986755
0.982083
0.983593
0.991103
1.00504
1.02554
1.05238
1.08513
1.12325
1.16726
1.21203
1.30208
0.559748
0.561604
0.557798
0.549064
0.539617
0.531742
0.526951
0.525091
0.52483
0.525742
0.527489
0.529767
0.532815
0.53771
0.545777
0.558573
0.575907
0.597363
0.621154
0.651909
0.702633
0.763607
0.843548
0.942699
1.0468
1.13362
1.20461
1.23299
1.25464
1.25131
1.21064
1.13983
1.05375
0.989456
0.966977
0.970517
0.974203
0.982993
0.995847
1.00358
1.00377
1.0011
1.00162
1.00589
1.00965
1.0086
1.0011
0.988725
0.978206
0.974205
0.976539
0.985073
1.00018
1.02188
1.04983
1.08352
1.12236
1.16689
1.21198
1.30221
0.56697
0.567702
0.562852
0.553687
0.544307
0.536762
0.533001
0.532735
0.534251
0.536222
0.538049
0.540728
0.545028
0.552062
0.562975
0.579217
0.601102
0.628518
0.658281
0.693957
0.745822
0.811617
0.885773
0.976163
1.07048
1.14747
1.20671
1.25582
1.29839
1.32552
1.34018
1.33303
1.28063
1.18967
1.07856
0.993992
0.970746
0.977225
0.988103
0.996411
0.997221
0.995348
0.996781
1.00126
1.0044
1.00217
0.993163
0.979728
0.96942
0.966197
0.969441
0.979107
0.995471
1.01842
1.0475
1.08209
1.12161
1.16661
1.21198
1.30235
0.574319
0.573452
0.567269
0.557695
0.548798
0.542304
0.539864
0.540991
0.543769
0.546147
0.547614
0.550404
0.555801
0.564652
0.578057
0.597367
0.622594
0.654307
0.691419
0.732021
0.782721
0.850132
0.924586
1.00513
1.09346
1.16168
1.21881
1.27226
1.31105
1.34115
1.36897
1.37882
1.36688
1.33447
1.2683
1.15077
1.02463
0.977886
0.982015
0.987116
0.98863
0.988511
0.991578
0.996486
0.99894
0.995414
0.984775
0.97035
0.960444
0.95809
0.962331
0.973232
0.990938
1.01518
1.04537
1.08084
1.12098
1.16641
1.21202
1.30249
0.581508
0.578757
0.571111
0.56129
0.553338
0.548645
0.547624
0.549573
0.55264
0.554674
0.555842
0.558795
0.565228
0.57575
0.591168
0.612908
0.640811
0.675629
0.717856
0.765238
0.816448
0.881602
0.957134
1.0312
1.10798
1.17891
1.24094
1.28918
1.3204
1.35127
1.37844
1.38414
1.3792
1.37164
1.34685
1.29269
1.18641
1.04927
0.985439
0.981055
0.978645
0.979962
0.985381
0.991232
0.993104
0.988229
0.97587
0.960622
0.951324
0.949925
0.955255
0.967487
0.986604
1.01217
1.04345
1.07975
1.12048
1.1663
1.21211
1.30264
0.588111
0.583529
0.574585
0.56478
0.558264
0.555854
0.556109
0.55787
0.560084
0.56162
0.56299
0.566437
0.573915
0.586098
0.603386
0.627021
0.656626
0.69295
0.737923
0.79159
0.847515
0.910273
0.983638
1.0552
1.12446
1.1974
1.25743
1.29909
1.32811
1.35753
1.37859
1.38394
1.38505
1.38177
1.36686
1.3375
1.2917
1.1989
1.05757
0.982856
0.972501
0.970829
0.977678
0.985024
0.986638
0.980442
0.966349
0.950565
0.942098
0.941739
0.948266
0.961914
0.982497
1.00939
1.04175
1.07883
1.1201
1.16625
1.21222
1.30278
0.593871
0.587701
0.577826
0.568489
0.563915
0.563682
0.564635
0.565165
0.565714
0.566864
0.569039
0.573539
0.582141
0.595864
0.615052
0.640602
0.671861
0.708862
0.753793
0.810066
0.871727
0.933728
1.00308
1.07434
1.14016
1.20834
1.26214
1.30278
1.33534
1.36207
1.37826
1.38635
1.3923
1.39078
1.37473
1.35074
1.32421
1.28405
1.19091
1.04276
0.972844
0.965324
0.969695
0.977706
0.979319
0.971849
0.9561
0.940192
0.932792
0.933571
0.941419
0.95656
0.978645
1.00686
1.04024
1.07806
1.11981
1.16625
1.21235
1.30291
0.598644
0.591288
0.581085
0.57276
0.570175
0.57152
0.572342
0.57108
0.570009
0.571093
0.574589
0.580574
0.590352
0.605389
0.626374
0.654046
0.687203
0.725133
0.768852
0.823373
0.886718
0.949551
1.01549
1.08518
1.14893
1.20744
1.25749
1.30203
1.34139
1.36909
1.3833
1.39168
1.39812
1.39804
1.38209
1.3573
1.33608
1.31172
1.2685
1.15845
1.01307
0.966208
0.964969
0.970255
0.97123
0.962313
0.945043
0.929509
0.923436
0.92547
0.934761
0.951477
0.97508
1.00458
1.03894
1.07743
1.11962
1.1663
1.2125
1.30304
0.602439
0.594459
0.584631
0.57757
0.576623
0.578562
0.578505
0.575784
0.573494
0.574697
0.579706
0.587551
0.59875
0.614975
0.637408
0.666927
0.702123
0.742107
0.785329
0.835762
0.896314
0.959614
1.02266
1.08769
1.14909
1.20279
1.25488
1.30511
1.34836
1.37759
1.39188
1.39826
1.40254
1.4029
1.3886
1.3639
1.34275
1.32358
1.29394
1.23352
1.10394
0.990354
0.966769
0.965643
0.963194
0.951948
0.9332
0.918556
0.914042
0.917478
0.928353
0.946712
0.971826
1.00255
1.03782
1.07693
1.1195
1.16639
1.21266
1.30317
0.605428
0.597464
0.588597
0.582712
0.58255
0.584257
0.583303
0.579831
0.576989
0.578376
0.584573
0.594256
0.607149
0.624705
0.648308
0.679005
0.715347
0.757513
0.802918
0.850834
0.906839
0.96892
1.03068
1.09089
1.15039
1.20478
1.25921
1.3103
1.35353
1.38456
1.39951
1.40378
1.4055
1.40523
1.39349
1.37086
1.34915
1.32976
1.30275
1.26459
1.18214
1.05243
0.981468
0.966465
0.956883
0.941427
0.92084
0.907426
0.904624
0.909637
0.922255
0.942314
0.968904
1.00079
1.03687
1.07653
1.11946
1.1665
1.21283
1.30328
0.607871
0.600538
0.592928
0.587775
0.587371
0.588369
0.58699
0.58349
0.580912
0.582581
0.589276
0.60026
0.615044
0.634362
0.659169
0.690482
0.726734
0.769873
0.81821
0.868428
0.92277
0.983044
1.04486
1.10298
1.16051
1.2143
1.26601
1.31253
1.35444
1.38786
1.40371
1.40714
1.40745
1.4066
1.39706
1.3772
1.3556
1.33463
1.30935
1.27715
1.22097
1.12024
1.01579
0.9745
0.954597
0.931877
0.908579
0.896337
0.895228
0.902003
0.916523
0.93832
0.966332
0.999271
1.03609
1.07625
1.11944
1.16663
1.21299
1.30338
0.60994
0.603814
0.5974
0.592273
0.590795
0.590835
0.589553
0.587005
0.585633
0.587654
0.593995
0.605334
0.621737
0.643128
0.669545
0.701462
0.73707
0.779709
0.829369
0.883617
0.938792
0.998354
1.06108
1.12053
1.17703
1.22748
1.2713
1.31158
1.35301
1.38773
1.40431
1.40809
1.40827
1.40731
1.39999
1.38301
1.36159
1.33909
1.31346
1.28158
1.24058
1.16966
1.06409
0.990795
0.955956
0.924069
0.897251
0.885693
0.885991
0.894655
0.911202
0.93476
0.964117
0.997996
1.03545
1.07604
1.11946
1.16677
1.21314
1.30347
0.611816
0.607235
0.601538
0.59586
0.592959
0.592115
0.591396
0.590501
0.591025
0.593369
0.598805
0.609694
0.626917
0.650031
0.678305
0.711189
0.747015
0.78846
0.836755
0.89213
0.950477
1.00893
1.07073
1.13187
1.18862
1.23748
1.27617
1.31287
1.35268
1.38531
1.40257
1.40785
1.40835
1.40701
1.40129
1.38741
1.36776
1.34303
1.31614
1.28621
1.25177
1.19828
1.10875
1.01527
0.959686
0.917967
0.887549
0.876046
0.87724
0.88771
0.906346
0.931657
0.962254
0.996952
1.03496
1.07589
1.11951
1.1669
1.21328
1.30355
0.613593
0.610574
0.60503
0.59844
0.593979
0.592226
0.592388
0.593975
0.596637
0.599462
0.604003
0.613819
0.630675
0.65433
0.683784
0.717843
0.755443
0.796978
0.842056
0.894599
0.952692
1.01166
1.07194
1.13214
1.18863
1.23978
1.2825
1.31992
1.35414
1.38029
1.39808
1.40718
1.40972
1.4072
1.40106
1.39049
1.37288
1.34608
1.31756
1.28824
1.25681
1.21648
1.14438
1.04391
0.965851
0.913043
0.87977
0.867842
0.86938
0.881374
0.902025
0.929016
0.960726
0.99613
1.0346
1.07578
1.11956
1.16703
1.21341
1.30362
0.615217
0.613612
0.607721
0.600037
0.594332
0.591842
0.592887
0.597074
0.601816
0.605431
0.609612
0.618072
0.633317
0.656133
0.685672
0.72024
0.75896
0.801616
0.846422
0.895535
0.951132
1.00874
1.06758
1.12773
1.18637
1.24169
1.29052
1.32958
1.35611
1.37493
1.39305
1.40659
1.41085
1.40679
1.3999
1.393
1.37657
1.34861
1.31852
1.28873
1.26046
1.22735
1.16873
1.07073
0.973262
0.908716
0.873885
0.861336
0.8628
0.87595
0.898358
0.926853
0.959527
0.995518
1.03433
1.07571
1.11961
1.16713
1.21351
1.30367
0.616683
0.616156
0.609638
0.600948
0.594376
0.591385
0.59331
0.599334
0.605958
0.610902
0.615268
0.622304
0.635057
0.656013
0.684759
0.71907
0.757932
0.801449
0.848423
0.898249
0.952989
1.00926
1.0669
1.12563
1.18387
1.24052
1.29248
1.33281
1.3571
1.37387
1.39174
1.40677
1.41093
1.40543
1.3983
1.39425
1.37886
1.35109
1.31988
1.28901
1.26216
1.23345