/*--------------------------------*- C++ -*----------------------------------*\
  =========                 |
  \\      /  F ield         | OpenFOAM: The Open Source CFD Toolbox
   \\    /   O peration     | Website:  https://openfoam.org
    \\  /    A nd           | Version:  7
     \\/     M anipulation  |
\*---------------------------------------------------------------------------*/
FoamFile
{
    version     2.0;
    format      ascii;
    class       volScalarField;
    location    "0.1";
    object      T;
}
// * * * * * * * * * * * * * * * * * * * * * * * * * * * * * * * * * * * * * //

dimensions      [0 0 0 1 0 0 0];

internalField   nonuniform List<scalar> 
103200
(
0.738282
0.739437
0.727024
0.705986
0.6813
0.674503
0.66848
0.656933
0.654283
0.654933
0.65378
0.649286
0.6426
0.638283
0.63624
0.637052
0.636561
0.635765
0.639988
0.642145
0.644602
0.651101
0.658234
0.668236
0.686166
0.733562
0.79496
0.831124
0.849352
0.862286
0.874378
0.885812
0.896116
0.903816
0.908333
0.911104
0.913696
0.916341
0.918527
0.920331
0.922885
0.926221
0.928864
0.930144
0.930635
0.931541
0.933233
0.935151
0.936629
0.937473
0.93798
0.938596
0.939654
0.94134
0.943793
0.947184
0.951655
0.957582
0.964099
0.980784
0.676219
0.783727
0.780008
0.759736
0.732423
0.721763
0.707535
0.685105
0.670572
0.665638
0.659185
0.64799
0.639645
0.636012
0.633218
0.632479
0.631077
0.629468
0.633109
0.634702
0.636475
0.642887
0.650265
0.660209
0.678352
0.728344
0.790111
0.829184
0.848211
0.861252
0.87322
0.884594
0.895187
0.903118
0.907599
0.910262
0.912792
0.91544
0.917627
0.919423
0.922
0.925345
0.927952
0.929185
0.929657
0.930575
0.932273
0.934181
0.935631
0.936438
0.93691
0.937501
0.938548
0.940241
0.94272
0.946159
0.950705
0.956738
0.963374
0.980329
0.661177
0.749178
0.777675
0.779428
0.767485
0.757643
0.742612
0.722181
0.700251
0.684977
0.672339
0.653889
0.641629
0.636822
0.631892
0.628414
0.624693
0.621191
0.624227
0.625287
0.626551
0.632923
0.640945
0.650983
0.669463
0.721452
0.786885
0.828048
0.846608
0.859852
0.871952
0.883664
0.894561
0.902512
0.906867
0.909419
0.911888
0.914524
0.916704
0.9185
0.921116
0.924471
0.927036
0.928218
0.928671
0.929601
0.931306
0.933202
0.934622
0.935391
0.935825
0.93639
0.937427
0.939128
0.941634
0.945124
0.949747
0.955891
0.96265
0.979881
0.648731
0.692751
0.733735
0.758556
0.768898
0.777713
0.769144
0.754796
0.739792
0.717815
0.697545
0.672202
0.6483
0.63688
0.628791
0.623013
0.616613
0.61094
0.613556
0.614468
0.615512
0.621691
0.630559
0.641065
0.659934
0.71405
0.783385
0.825251
0.844743
0.858808
0.871393
0.883296
0.893916
0.901748
0.906065
0.908559
0.910971
0.913585
0.915759
0.917571
0.920237
0.923599
0.926115
0.927241
0.927675
0.928619
0.930331
0.932214
0.933601
0.934329
0.934724
0.935262
0.936289
0.937999
0.940535
0.944078
0.948782
0.95504
0.961928
0.97944
0.62252
0.635133
0.660408
0.698529
0.736931
0.760566
0.767456
0.769517
0.766254
0.751471
0.725846
0.698031
0.664437
0.641496
0.629025
0.618984
0.60773
0.600373
0.602264
0.602865
0.603935
0.609992
0.619706
0.63057
0.649562
0.706914
0.781216
0.823508
0.843793
0.85879
0.871548
0.882624
0.89284
0.900885
0.905281
0.907702
0.910037
0.912629
0.914809
0.916649
0.919364
0.922726
0.925187
0.926254
0.926669
0.927629
0.929348
0.931217
0.932569
0.933253
0.933606
0.934116
0.935134
0.936854
0.939423
0.943022
0.94781
0.954186
0.961207
0.979006
0.59999
0.604122
0.61813
0.649914
0.688861
0.723958
0.749385
0.764809
0.772936
0.769821
0.755115
0.728198
0.690028
0.654528
0.63443
0.618946
0.600075
0.590902
0.591645
0.592045
0.593378
0.59935
0.609647
0.620966
0.640434
0.702973
0.778259
0.822135
0.843984
0.858993
0.870734
0.881043
0.891717
0.900217
0.904566
0.906833
0.909094
0.91168
0.913869
0.915731
0.918489
0.921848
0.924251
0.925257
0.925653
0.926629
0.928357
0.930209
0.931523
0.932161
0.932471
0.932953
0.933962
0.935694
0.938297
0.941956
0.946832
0.953331
0.960488
0.97858
0.59356
0.598375
0.60953
0.632764
0.659047
0.685529
0.713319
0.738781
0.757681
0.761918
0.756169
0.742387
0.711989
0.668284
0.640427
0.619444
0.594059
0.582669
0.580516
0.581059
0.582807
0.588547
0.598619
0.610142
0.630194
0.695792
0.773377
0.822568
0.844135
0.857664
0.868615
0.879608
0.891153
0.899707
0.903784
0.905922
0.908158
0.910748
0.912931
0.914803
0.917609
0.920965
0.923307
0.924249
0.924627
0.925621
0.927357
0.92919
0.930464
0.931053
0.931318
0.931771
0.932772
0.934517
0.937157
0.94088
0.945848
0.952474
0.959773
0.978161
0.595509
0.600846
0.611045
0.625908
0.640464
0.656499
0.67648
0.700484
0.722857
0.738898
0.741353
0.733616
0.714637
0.679089
0.646943
0.621338
0.594888
0.577877
0.571045
0.571569
0.573463
0.578707
0.588463
0.599971
0.620429
0.688215
0.771378
0.8234
0.842062
0.855253
0.867173
0.879385
0.890955
0.898959
0.902851
0.904989
0.907235
0.909813
0.911972
0.91386
0.916725
0.92008
0.922356
0.92323
0.92359
0.924603
0.926349
0.928161
0.929389
0.929926
0.930145
0.930569
0.931563
0.933324
0.936004
0.939793
0.944858
0.951616
0.95906
0.977752
0.597137
0.600273
0.607929
0.618083
0.626378
0.637729
0.65346
0.671989
0.688826
0.700326
0.707684
0.706852
0.699757
0.67841
0.648572
0.622138
0.596902
0.5768
0.563343
0.56259
0.564288
0.56909
0.578262
0.58943
0.610161
0.681139
0.772844
0.821169
0.839324
0.854214
0.867609
0.879783
0.890158
0.897879
0.901891
0.904066
0.906298
0.90885
0.91099
0.912909
0.915843
0.919195
0.921398
0.922199
0.922542
0.923576
0.925332
0.92712
0.928297
0.92878
0.928952
0.929347
0.930336
0.932115
0.934838
0.938697
0.943863
0.950758
0.958353
0.977351
0.596078
0.596642
0.599659
0.605702
0.6135
0.626148
0.641019
0.655176
0.665681
0.672153
0.674462
0.675974
0.671997
0.664726
0.645049
0.62201
0.600421
0.577502
0.557154
0.553995
0.555316
0.559013
0.567125
0.577962
0.59915
0.677555
0.774998
0.817677
0.838257
0.855346
0.868501
0.878863
0.888693
0.896862
0.901015
0.903132
0.905331
0.907869
0.910002
0.911961
0.914968
0.91831
0.92043
0.921154
0.921482
0.92254
0.924307
0.926068
0.927188
0.927613
0.927735
0.928103
0.929088
0.930888
0.933657
0.937591
0.942863
0.9499
0.95765
0.97696
0.593917
0.593688
0.594058
0.599116
0.608811
0.622164
0.635463
0.646789
0.655058
0.66001
0.658141
0.653172
0.647091
0.641531
0.636399
0.620176
0.601539
0.577349
0.553946
0.545568
0.546154
0.54856
0.555638
0.566169
0.588074
0.673648
0.77375
0.816734
0.839965
0.856354
0.86729
0.876806
0.887555
0.896159
0.900148
0.902155
0.904348
0.90689
0.90901
0.911015
0.9141
0.917422
0.919448
0.920093
0.920411
0.921496
0.923275
0.925005
0.926062
0.926423
0.926495
0.926836
0.92782
0.929643
0.932463
0.936476
0.941859
0.949044
0.956954
0.97658
0.593159
0.593545
0.594293
0.599853
0.609549
0.621612
0.632607
0.64273
0.651945
0.658761
0.657041
0.647703
0.632138
0.61736
0.619539
0.614199
0.599645
0.576104
0.550605
0.540043
0.537434
0.538845
0.544302
0.553908
0.576541
0.668572
0.772845
0.81923
0.841313
0.854692
0.86483
0.87567
0.887217
0.895483
0.899175
0.901145
0.903359
0.905896
0.908002
0.910074
0.913239
0.916526
0.91845
0.919017
0.919329
0.920443
0.922234
0.92393
0.924919
0.925211
0.925232
0.925545
0.92653
0.928381
0.931254
0.935352
0.940852
0.94819
0.956264
0.976211
0.593317
0.594412
0.596435
0.602261
0.611196
0.620508
0.629349
0.639359
0.650797
0.660773
0.66156
0.652213
0.629612
0.601302
0.59418
0.599195
0.591658
0.570592
0.546348
0.535447
0.528969
0.529312
0.533469
0.542338
0.566065
0.665026
0.774776
0.82255
0.839171
0.852087
0.863978
0.87599
0.886848
0.89453
0.898124
0.900103
0.902327
0.904861
0.906986
0.909148
0.91238
0.915618
0.917433
0.917924
0.918235
0.919381
0.921183
0.922841
0.923758
0.923978
0.923944
0.924229
0.925218
0.927099
0.930032
0.934219
0.939842
0.947338
0.955582
0.975853
0.592867
0.594424
0.59771
0.603063
0.609587
0.615985
0.623396
0.633852
0.647832
0.661819
0.666711
0.658161
0.633539
0.599675
0.570845
0.57307
0.571887
0.559055
0.541273
0.52979
0.520722
0.520601
0.524559
0.532989
0.55716
0.66577
0.782812
0.821084
0.836342
0.851722
0.864864
0.875853
0.885797
0.893462
0.897053
0.898983
0.901219
0.903806
0.905994
0.908236
0.911516
0.914696
0.9164
0.916818
0.917129
0.918308
0.92012
0.921735
0.922576
0.92272
0.922632
0.922889
0.923884
0.925799
0.928795
0.933079
0.93883
0.946491
0.954909
0.975507
0.590706
0.59205
0.595136
0.599593
0.604074
0.608995
0.616348
0.627568
0.642634
0.658644
0.667453
0.661153
0.638122
0.600874
0.5595
0.549482
0.549944
0.542975
0.532025
0.524185
0.513051
0.513458
0.515914
0.523113
0.54803
0.671045
0.790445
0.817451
0.83618
0.853432
0.864774
0.874378
0.884655
0.892545
0.89592
0.897762
0.900091
0.902797
0.905033
0.907318
0.910641
0.913761
0.915352
0.915696
0.91601
0.917225
0.919046
0.92061
0.921372
0.921436
0.921293
0.921526
0.922527
0.92448
0.927545
0.93193
0.937817
0.945649
0.954246
0.975173
0.588339
0.589294
0.591791
0.595554
0.599853
0.605836
0.613709
0.624799
0.639687
0.655267
0.664924
0.659238
0.638441
0.600657
0.552763
0.533344
0.532791
0.527364
0.521755
0.517436
0.508433
0.506718
0.507587
0.513056
0.539929
0.679588
0.791771
0.817812
0.839178
0.853621
0.862986
0.873105
0.884241
0.891713
0.894667
0.896526
0.899038
0.901846
0.904063
0.906374
0.909758
0.912816
0.914289
0.914558
0.914878
0.916131
0.917958
0.919466
0.920145
0.920126
0.919925
0.920135
0.921146
0.923141
0.926281
0.930774
0.936804
0.944813
0.953594
0.974853
0.590785
0.591649
0.594231
0.598582
0.604212
0.611634
0.620918
0.633732
0.650603
0.664051
0.666265
0.655786
0.633157
0.596179
0.546445
0.519537
0.518198
0.51592
0.511873
0.508325
0.501896
0.49846
0.500594
0.506769
0.533348
0.688701
0.793699
0.821254
0.841152
0.851588
0.861545
0.873334
0.884198
0.890651
0.893377
0.895382
0.898062
0.90088
0.903031
0.905414
0.908877
0.911859
0.913207
0.913401
0.913731
0.915026
0.916855
0.918302
0.918893
0.918787
0.918527
0.918717
0.919742
0.921783
0.925003
0.929613
0.935792
0.943985
0.952955
0.974546
0.618953
0.61977
0.623171
0.629079
0.637045
0.646528
0.658044
0.67183
0.688586
0.699645
0.696283
0.660823
0.621863
0.588094
0.541867
0.502614
0.501744
0.504955
0.501629
0.498012
0.491983
0.493794
0.495127
0.499953
0.530171
0.707827
0.804537
0.827568
0.839342
0.849314
0.86185
0.874095
0.883516
0.88939
0.892182
0.894314
0.897048
0.899817
0.901944
0.904465
0.907998
0.910884
0.912102
0.912224
0.912571
0.91391
0.915737
0.917117
0.917614
0.917417
0.917097
0.91727
0.918312
0.920406
0.923713
0.928445
0.934782
0.943165
0.952328
0.974254
0.656097
0.656812
0.66006
0.665608
0.672454
0.679638
0.686665
0.694918
0.708138
0.721556
0.730567
0.70349
0.617058
0.579249
0.53846
0.495004
0.485109
0.490653
0.489274
0.488582
0.485346
0.488384
0.487139
0.486909
0.530137
0.742854
0.816236
0.828242
0.835671
0.848635
0.863025
0.873544
0.882173
0.888236
0.891072
0.893175
0.895898
0.898673
0.900871
0.903547
0.907112
0.909881
0.910969
0.911026
0.911398
0.912783
0.914603
0.915909
0.916306
0.916014
0.915635
0.915793
0.916858
0.919009
0.92241
0.927273
0.933775
0.942356
0.951716
0.973976
0.669836
0.670805
0.67442
0.679409
0.683908
0.686869
0.688967
0.694296
0.708004
0.726099
0.743649
0.7402
0.653378
0.568298
0.531678
0.498434
0.466051
0.471112
0.475439
0.477632
0.479141
0.478724
0.476104
0.477649
0.560814
0.789461
0.823026
0.824697
0.832548
0.849671
0.862774
0.87186
0.881127
0.887316
0.889878
0.891859
0.894658
0.897556
0.899858
0.902642
0.906203
0.908846
0.909806
0.90981
0.910215
0.911644
0.913451
0.914678
0.914968
0.914577
0.914139
0.914286
0.915378
0.917593
0.921096
0.926098
0.932774
0.941558
0.95112
0.973713
0.670614
0.671368
0.67463
0.678473
0.680759
0.681658
0.683677
0.691117
0.706958
0.726012
0.745481
0.752804
0.705647
0.566053
0.523471
0.498454
0.465496
0.451427
0.454843
0.464091
0.470689
0.471437
0.468275
0.471901
0.659028
0.823752
0.821867
0.819746
0.831592
0.850459
0.860926
0.870753
0.88079
0.886362
0.888463
0.890438
0.893477
0.896534
0.898879
0.901719
0.905264
0.907779
0.908618
0.908577
0.909023
0.910493
0.91228
0.913421
0.913597
0.913103
0.912607
0.912746
0.913871
0.916157
0.91977
0.924921
0.931778
0.940773
0.950541
0.973466
0.668421
0.66896
0.672045
0.675511
0.677604
0.67876
0.681273
0.687409
0.698729
0.711768
0.724624
0.737874
0.727531
0.607011
0.513575
0.496498
0.470535
0.449695
0.445433
0.445714
0.45182
0.462317
0.459965
0.469032
0.777331
0.834809
0.816145
0.815699
0.833188
0.848867
0.859062
0.870855
0.880552
0.885045
0.886903
0.889093
0.892434
0.895563
0.897866
0.900761
0.904298
0.906685
0.907408
0.907325
0.907815
0.909328
0.911087
0.912136
0.91219
0.911591
0.911038
0.911174
0.912338
0.914703
0.918434
0.923743
0.930791
0.940003
0.949981
0.973234
0.66601
0.667077
0.670468
0.674321
0.676779
0.676862
0.676096
0.678523
0.684616
0.688407
0.679345
0.67503
0.70301
0.668862
0.510637
0.491427
0.471216
0.452891
0.446804
0.441742
0.440715
0.45059
0.446757
0.517737
0.858424
0.836921
0.803526
0.81378
0.833471
0.845582
0.858705
0.871281
0.879596
0.883439
0.885397
0.887904
0.891452
0.894541
0.896787
0.899783
0.903316
0.905566
0.906174
0.906053
0.906593
0.908148
0.909871
0.910821
0.910748
0.910037
0.90943
0.909569
0.910779
0.91323
0.917089
0.922565
0.929813
0.93925
0.949439
0.973018
0.664758
0.665904
0.669601
0.673415
0.67499
0.672496
0.668194
0.666785
0.666173
0.65654
0.635269
0.636991
0.66561
0.69056
0.550608
0.482203
0.468321
0.459935
0.457169
0.446841
0.441568
0.442322
0.443357
0.682596
0.890302
0.836991
0.800196
0.815277
0.829681
0.843419
0.859269
0.87065
0.877993
0.881862
0.884038
0.886773
0.890404
0.89342
0.895671
0.898809
0.90232
0.904421
0.904911
0.90476
0.905356
0.906953
0.908632
0.909473
0.909266
0.908441
0.907783
0.90793
0.909193
0.911739
0.915735
0.92139
0.928847
0.938514
0.948919
0.972819
0.66462
0.665829
0.669512
0.672319
0.672022
0.666864
0.659425
0.652948
0.643663
0.627639
0.620958
0.628982
0.652172
0.688788
0.631056
0.480177
0.468056
0.475003
0.473357
0.462401
0.456426
0.443504
0.468538
0.85878
0.885625
0.828086
0.801231
0.81316
0.825005
0.843695
0.858872
0.868844
0.876448
0.8805
0.882728
0.885556
0.889249
0.892243
0.894573
0.897847
0.901304
0.903244
0.903617
0.903445
0.904104
0.905741
0.907367
0.90809
0.907741
0.9068
0.906095
0.906256
0.90758
0.91023
0.914376
0.920219
0.927895
0.937798
0.948421
0.972636
0.665257
0.666193
0.669025
0.670701
0.668735
0.661294
0.651117
0.638829
0.625339
0.616139
0.61525
0.624993
0.643622
0.67635
0.689268
0.521991
0.473798
0.485933
0.483402
0.474605
0.469588
0.462065
0.662893
0.901696
0.877916
0.808406
0.800524
0.80841
0.823971
0.844089
0.856841
0.8672
0.875394
0.879224
0.881295
0.884221
0.888057
0.891087
0.893516
0.896889
0.900256
0.902031
0.902291
0.902107
0.902837
0.904512
0.906075
0.906669
0.906172
0.905112
0.904364
0.904547
0.905941
0.908706
0.913011
0.919054
0.926958
0.937104
0.947945
0.972469
0.665966
0.666356
0.668187
0.668916
0.665955
0.65748
0.645417
0.63043
0.618655
0.611781
0.612557
0.621602
0.637015
0.665088
0.70271
0.617542
0.487985
0.488011
0.488693
0.48611
0.513971
0.584131
0.721475
0.885319
0.86341
0.800139
0.797261
0.805957
0.824998
0.842277
0.854768
0.866669
0.874577
0.877744
0.879691
0.882863
0.886921
0.889984
0.892481
0.895914
0.899167
0.900781
0.900932
0.900748
0.901556
0.903264
0.904755
0.905209
0.904554
0.903375
0.902589
0.902802
0.904275
0.907166
0.911643
0.917898
0.926038
0.936432
0.947494
0.972319
0.666066
0.666119
0.66734
0.667557
0.66427
0.655489
0.64242
0.627615
0.616128
0.610529
0.611709
0.619138
0.631867
0.655032
0.69873
0.703499
0.533772
0.487425
0.488275
0.506265
0.547749
0.60586
0.719564
0.868307
0.851448
0.800981
0.795483
0.806954
0.824226
0.839236
0.854332
0.866636
0.873317
0.875956
0.878018
0.88159
0.885856
0.8889
0.891436
0.894907
0.898036
0.899496
0.899543
0.899368
0.900261
0.901996
0.903403
0.903705
0.902884
0.901586
0.900769
0.901021
0.902584
0.905613
0.910274
0.916753
0.925139
0.935786
0.947069
0.972185
0.665058
0.665198
0.666598
0.666906
0.663583
0.654804
0.641677
0.626611
0.615831
0.611783
0.612721
0.618354
0.628313
0.645757
0.685643
0.730025
0.622859
0.497334
0.490235
0.519765
0.560256
0.609168
0.716361
0.843464
0.840141
0.802788
0.797409
0.8075
0.820885
0.837961
0.854769
0.865725
0.871419
0.874009
0.876408
0.880411
0.884816
0.887792
0.890365
0.893866
0.896867
0.898179
0.898121
0.89797
0.898954
0.900707
0.902019
0.902155
0.90116
0.899743
0.898904
0.899205
0.900868
0.904047
0.908907
0.915622
0.924263
0.935166
0.946669
0.972068
0.663618
0.664078
0.666455
0.667797
0.664904
0.65624
0.642579
0.628039
0.618773
0.615516
0.616476
0.620115
0.627022
0.640158
0.667883
0.724639
0.712623
0.53339
0.501468
0.536253
0.568882
0.613939
0.714005
0.815256
0.826809
0.801319
0.800565
0.805948
0.817474
0.83861
0.854328
0.863521
0.869233
0.872118
0.874892
0.879267
0.883761
0.886645
0.889274
0.892792
0.895663
0.896828
0.896666
0.896554
0.897634
0.899394
0.900599
0.900556
0.899377
0.897844
0.896992
0.897352
0.899129
0.902472
0.907544
0.914507
0.923411
0.934574
0.946297
0.971966
0.661605
0.662808
0.666876
0.669041
0.666735
0.658488
0.645328
0.631395
0.622011
0.618554
0.61959
0.623506
0.627969
0.638245
0.657531
0.702302
0.744433
0.613046
0.524278
0.554671
0.576842
0.625764
0.71805
0.797453
0.816684
0.80291
0.800935
0.801157
0.817358
0.83934
0.85192
0.860937
0.867272
0.870359
0.873397
0.87813
0.882698
0.885471
0.88817
0.891691
0.894428
0.895439
0.895179
0.895123
0.896303
0.898055
0.899138
0.898906
0.89753
0.895886
0.895033
0.895464
0.897367
0.900889
0.906188
0.913411
0.922587
0.934012
0.945952
0.97188
0.659755
0.662116
0.667311
0.670189
0.668787
0.661174
0.648763
0.635645
0.626457
0.622881
0.623226
0.626475
0.631343
0.638562
0.655449
0.687791
0.741497
0.714313
0.561362
0.564025
0.584491
0.638139
0.73134
0.79833
0.813089
0.802638
0.795597
0.797384
0.820091
0.838074
0.848602
0.859149
0.865689
0.868583
0.871883
0.877041
0.881647
0.884278
0.887053
0.890561
0.893159
0.894011
0.893662
0.893677
0.89496
0.89669
0.897633
0.897199
0.895618
0.893869
0.893026
0.893542
0.895585
0.899302
0.904843
0.912339
0.921792
0.933482
0.945635
0.971808
0.659106
0.661838
0.667457
0.671068
0.67076
0.66426
0.653
0.640883
0.63175
0.627726
0.627239
0.62965
0.634273
0.641469
0.656426
0.68171
0.73158
0.770318
0.64033
0.568646
0.589849
0.643948
0.73333
0.79474
0.802393
0.793016
0.786226
0.799485
0.821968
0.834342
0.846663
0.858446
0.864009
0.866641
0.870423
0.876053
0.880596
0.883062
0.885916
0.889398
0.891854
0.89254
0.892115
0.892221
0.893603
0.895296
0.89608
0.895429
0.893636
0.891789
0.890972
0.891585
0.893785
0.897712
0.903512
0.911292
0.92103
0.932984
0.945347
0.971751
0.659
0.661676
0.667451
0.671816
0.672687
0.667677
0.6577
0.646554
0.637425
0.632614
0.631384
0.633055
0.637082
0.644145
0.658143
0.682629
0.725446
0.78141
0.748803
0.588463
0.594482
0.646533
0.728176
0.782241
0.788015
0.782463
0.786198
0.803875
0.820011
0.830858
0.846714
0.857508
0.861792
0.864617
0.869138
0.87515
0.879496
0.881814
0.884747
0.888201
0.890511
0.891026
0.890543
0.890756
0.892232
0.89387
0.894476
0.893592
0.891579
0.889646
0.888869
0.889595
0.891968
0.896125
0.902199
0.910275
0.920303
0.932519
0.945087
0.971708
0.659085
0.661697
0.667626
0.672864
0.67483
0.671353
0.66271
0.652479
0.643307
0.63751
0.635451
0.636264
0.639718
0.646677
0.659843
0.683382
0.718448
0.778595
0.813928
0.66698
0.609519
0.65488
0.729248
0.779945
0.782021
0.780271
0.788688
0.805666
0.814631
0.830217
0.846929
0.855275
0.859184
0.862763
0.868046
0.874254
0.878308
0.880532
0.883543
0.88697
0.88913
0.889469
0.888949
0.889284
0.890845
0.89241
0.892816
0.891682
0.889443
0.887438
0.88672
0.887575
0.890139
0.894543
0.900908
0.909292
0.919612
0.932089
0.944855
0.971677
0.659661
0.662108
0.6682
0.674398
0.677292
0.675119
0.66775
0.658342
0.649242
0.642529
0.639506
0.639221
0.642403
0.648836
0.661132
0.682204
0.714284
0.767579
0.82762
0.798187
0.650984
0.676663
0.734753
0.77412
0.776125
0.778995
0.791413
0.802509
0.811037
0.831683
0.845896
0.852015
0.856742
0.861241
0.867045
0.873296
0.877029
0.87922
0.882304
0.885709
0.887712
0.887873
0.887338
0.887807
0.889439
0.890913
0.891096
0.889692
0.887224
0.885165
0.884524
0.885526
0.8883
0.892972
0.899644
0.908344
0.918961
0.931695
0.944652
0.971659
0.660538
0.662967
0.66947
0.676549
0.680072
0.678821
0.672656
0.664002
0.655146
0.647793
0.643657
0.642473
0.645025
0.651211
0.662658
0.682035
0.710339
0.751941
0.821041
0.868928
0.753679
0.695491
0.736393
0.770998
0.776449
0.78104
0.791583
0.794901
0.812138
0.83293
0.842326
0.848823
0.854928
0.859924
0.866014
0.872271
0.875689
0.877876
0.881038
0.884422
0.886256
0.886239
0.885709
0.886325
0.888012
0.889373
0.889311
0.887613
0.884918
0.882827
0.882283
0.883452
0.886457
0.891417
0.898412
0.907438
0.918351
0.931336
0.944476
0.971653
0.66162
0.664295
0.671518
0.679273
0.683056
0.682353
0.677273
0.669329
0.660852
0.653228
0.648301
0.646511
0.648094
0.654455
0.665134
0.682403
0.707438
0.742306
0.803454
0.873002
0.884205
0.735181
0.736666
0.766141
0.77579
0.780451
0.785467
0.792309
0.815997
0.831637
0.8382
0.847118
0.853679
0.858527
0.864961
0.871222
0.874306
0.876495
0.879756
0.883112
0.88475
0.884563
0.884062
0.884834
0.886558
0.88778
0.887455
0.885438
0.882521
0.880423
0.879998
0.881355
0.884614
0.889882
0.897216
0.906575
0.917784
0.931014
0.944327
0.971655
0.66285
0.666106
0.674221
0.682407
0.686125
0.685696
0.681485
0.674253
0.666312
0.6589
0.653702
0.651598
0.652303
0.657906
0.668307
0.684609
0.706877
0.736829
0.785091
0.856083
0.91638
0.86062
0.743234
0.754198
0.767104
0.776064
0.776203
0.794641
0.818131
0.827125
0.835733
0.846354
0.85212
0.856952
0.864028
0.870174
0.872875
0.875083
0.878467
0.881771
0.883184
0.882834
0.882391
0.883326
0.885069
0.886124
0.885513
0.883157
0.88003
0.877955
0.877672
0.87924
0.882776
0.888375
0.896062
0.905759
0.917261
0.930727
0.944203
0.971666
0.664331
0.66838
0.677324
0.685712
0.689175
0.688802
0.68523
0.678798
0.671556
0.664853
0.659977
0.657722
0.657497
0.662029
0.672656
0.688298
0.708387
0.735129
0.774032
0.832193
0.897378
0.93887
0.837274
0.745028
0.750607
0.764281
0.776027
0.79927
0.816226
0.822604
0.835443
0.84531
0.849971
0.855433
0.863308
0.86908
0.871394
0.873667
0.877188
0.880393
0.881547
0.881045
0.880691
0.881792
0.883532
0.88439
0.883469
0.880757
0.87744
0.875421
0.875306
0.877113
0.880951
0.886902
0.894955
0.904993
0.916784
0.930476
0.944105
0.971684
0.66616
0.671035
0.680557
0.688949
0.692124
0.691666
0.688524
0.682981
0.676718
0.671175
0.667052
0.664685
0.663911
0.667561
0.677477
0.692513
0.711822
0.735998
0.768029
0.814451
0.872117
0.925234
0.94557
0.850539
0.767033
0.763436
0.778035
0.801883
0.811306
0.821709
0.835268
0.84289
0.84749
0.85427
0.862637
0.867805
0.869856
0.87228
0.875941
0.878982
0.879841
0.879199
0.878962
0.880224
0.881932
0.882562
0.881304
0.87822
0.874745
0.872821
0.872903
0.874977
0.879145
0.88547
0.893901
0.904281
0.916353
0.93026
0.944029
0.97171
0.668426
0.673946
0.683714
0.691947
0.694879
0.694281
0.691462
0.686911
0.681942
0.677821
0.674693
0.672508
0.671435
0.674175
0.682962
0.697259
0.715977
0.738728
0.766455
0.804595
0.85246
0.904402
0.945444
0.953057
0.906511
0.853658
0.826006
0.819379
0.814467
0.824194
0.834486
0.840275
0.846049
0.853739
0.861771
0.866131
0.868149
0.870874
0.874714
0.877545
0.878085
0.87732
0.877218
0.878624
0.880264
0.880627
0.878999
0.87553
0.871939
0.870153
0.870466
0.872837
0.877364
0.884086
0.892905
0.903625
0.915968
0.930077
0.943975
0.97174
0.671162
0.676945
0.686637
0.694632
0.697419
0.696714
0.694209
0.690705
0.687354
0.684739
0.682576
0.680775
0.679717
0.681809
0.689181
0.702279
0.720393
0.742448
0.767718
0.801067
0.842504
0.884671
0.928872
0.955745
0.966225
0.958497
0.948602
0.927547
0.905176
0.884613
0.863791
0.848882
0.847455
0.853808
0.861018
0.864054
0.866047
0.86919
0.873353
0.876033
0.876284
0.875433
0.875486
0.877002
0.878533
0.878581
0.876539
0.872675
0.869019
0.867418
0.867995
0.870699
0.875618
0.882757
0.89197
0.903026
0.91563
0.929927
0.94394
0.971775
0.674302
0.679875
0.68922
0.697009
0.699755
0.699064
0.696968
0.694561
0.692973
0.691705
0.690338
0.689069
0.688279
0.689936
0.696153
0.70804
0.725096
0.74672
0.77134
0.800751
0.838298
0.875832
0.911668
0.943589
0.961441
0.974648
0.984219
0.983326
0.981463
0.971708
0.951682
0.924762
0.893804
0.869961
0.861478
0.862532
0.863761
0.86686
0.871452
0.874231
0.874357
0.87353
0.873786
0.875374
0.876743
0.876436
0.873916
0.869652
0.865988
0.864617
0.865492
0.868568
0.873914
0.881489
0.891102
0.902485
0.915337
0.929808
0.943925
0.971813
0.677682
0.68263
0.691437
0.699117
0.701952
0.701477
0.69993
0.698727
0.698587
0.698358
0.697577
0.696881
0.696618
0.698255
0.703653
0.714311
0.730379
0.751447
0.775226
0.80215
0.835538
0.870862
0.902288
0.931389
0.955291
0.968623
0.976188
0.981817
0.988209
0.990136
0.989738
0.9848
0.968016
0.939667
0.90246
0.871518
0.862512
0.864788
0.868705
0.871699
0.872056
0.871496
0.87208
0.873743
0.874899
0.874185
0.871132
0.866468
0.862857
0.861756
0.862964
0.866453
0.872258
0.880289
0.890302
0.902005
0.915089
0.929718
0.943923
0.971853
0.681062
0.685165
0.693348
0.701001
0.704122
0.704123
0.703329
0.703168
0.703885
0.704264
0.703976
0.703879
0.704452
0.706552
0.711696
0.721443
0.736089
0.755786
0.779465
0.804989
0.834155
0.866916
0.897628
0.923857
0.948269
0.961414
0.97092
0.980248
0.986229
0.990854
0.996709
0.998602
0.994708
0.984662
0.963775
0.926083
0.882562
0.86514
0.866559
0.868408
0.869028
0.869073
0.870251
0.872059
0.872976
0.871815
0.868175
0.86313
0.859642
0.858846
0.860421
0.864362
0.870659
0.879161
0.889573
0.901582
0.914883
0.929654
0.943934
0.971894
0.684227
0.687455
0.695032
0.7027
0.706437
0.707161
0.707134
0.707585
0.70852
0.709119
0.709304
0.709919
0.711493
0.714475
0.719878
0.729133
0.742564
0.760609
0.783328
0.80876
0.834855
0.864482
0.894327
0.918993
0.940607
0.95787
0.971248
0.980803
0.986181
0.9927
0.999617
1.0007
0.998602
0.995491
0.987379
0.970558
0.937054
0.891105
0.867886
0.866272
0.865488
0.866041
0.868067
0.870201
0.870915
0.869287
0.86502
0.859648
0.856359
0.855901
0.85788
0.86231
0.869126
0.878109
0.888916
0.901217
0.914717
0.929615
0.943959
0.971935
0.687078
0.689488
0.696546
0.704359
0.708939
0.710615
0.711209
0.711668
0.712201
0.712851
0.713682
0.715152
0.717822
0.721998
0.728182
0.737439
0.74995
0.766252
0.787316
0.812701
0.838145
0.864839
0.892579
0.91662
0.937138
0.957119
0.971953
0.981125
0.987088
0.994449
0.99981
1.00063
1.00018
0.998178
0.992965
0.983826
0.969702
0.940592
0.893816
0.867029
0.863321
0.8628
0.865334
0.868002
0.868629
0.866537
0.861628
0.856026
0.853018
0.852932
0.855359
0.860312
0.86767
0.877139
0.88833
0.900906
0.914589
0.929599
0.943993
0.971975
0.689563
0.691273
0.697962
0.706088
0.711648
0.714409
0.715272
0.715059
0.714796
0.715468
0.717135
0.719662
0.723455
0.7289
0.736253
0.746148
0.7585
0.773521
0.792353
0.816429
0.842246
0.866792
0.89234
0.916172
0.936508
0.956423
0.970818
0.980695
0.988676
0.995759
0.999656
1.00109
1.00191
1.00058
0.995034
0.987524
0.979258
0.966864
0.937802
0.888655
0.863534
0.86086
0.862487
0.865404
0.866036
0.863487
0.857955
0.852267
0.849629
0.84996
0.852878
0.858386
0.866301
0.876253
0.887813
0.900647
0.914494
0.929599
0.944034
0.972015
0.691642
0.692845
0.699412
0.707953
0.714598
0.718187
0.718861
0.717624
0.716634
0.717429
0.720032
0.723714
0.728567
0.735167
0.743808
0.754844
0.767778
0.782429
0.799389
0.82081
0.845573
0.869285
0.892993
0.916364
0.936415
0.953746
0.967545
0.97965
0.990295
0.997578
1.00071
1.00215
1.00317
1.00243
0.996966
0.989261
0.982641
0.97513
0.961959
0.927418
0.878217
0.861217
0.860809
0.862749
0.863159
0.860085
0.853965
0.848369
0.846201
0.846998
0.850454
0.856551
0.865031
0.875454
0.887364
0.900434
0.914429
0.929613
0.94408
0.972052
0.693317
0.694278
0.70103
0.710002
0.717619
0.721565
0.721612
0.719537
0.717991
0.718921
0.722452
0.727365
0.733284
0.740888
0.750659
0.762896
0.776871
0.792213
0.808394
0.827044
0.849245
0.872041
0.894032
0.91603
0.935426
0.951275
0.966293
0.980369
0.992153
0.999563
1.0026
1.00356
1.00406
1.00357
0.998645
0.99104
0.984577
0.978741
0.969767
0.951183
0.909479
0.869994
0.861464
0.861104
0.86029
0.856366
0.84966
0.844346
0.842738
0.844061
0.848111
0.854825
0.863869
0.874744
0.886978
0.900264
0.914391
0.929641
0.944129
0.972087
0.694647
0.695659
0.702876
0.7123
0.720399
0.724216
0.723635
0.721082
0.719281
0.720308
0.724528
0.730573
0.737584
0.746139
0.756823
0.769971
0.784768
0.801189
0.818194
0.835524
0.855247
0.876654
0.897287
0.917132
0.935809
0.952023
0.967784
0.982142
0.99363
1.00125
1.00442
1.00483
1.00464
1.00401
0.999892
0.992978
0.986494
0.980688
0.972536
0.960773
0.934795
0.891754
0.866726
0.861405
0.85804
0.852566
0.845131
0.84023
0.839245
0.841165
0.845872
0.853227
0.862824
0.874123
0.886653
0.900131
0.914375
0.929677
0.94418
0.97212
0.695721
0.697062
0.704911
0.714732
0.72269
0.726037
0.725099
0.722412
0.72069
0.721833
0.726357
0.733194
0.741315
0.75092
0.762408
0.776126
0.791211
0.808329
0.826688
0.844975
0.863981
0.884317
0.904345
0.922483
0.939948
0.955788
0.970578
0.983346
0.994303
1.00257
1.00577
1.00583
1.00523
1.00435
1.0009
0.99484
0.988434
0.982135
0.974415
0.964398
0.946767
0.914332
0.878846
0.864266
0.857227
0.849097
0.840601
0.836099
0.835738
0.838332
0.843758
0.851772
0.861903
0.87359
0.886383
0.900033
0.914369
0.929718
0.94423
0.972149
0.696596
0.698535
0.707061
0.717061
0.724351
0.727027
0.726075
0.723716
0.722443
0.723721
0.728096
0.735196
0.744234
0.754962
0.767341
0.781504
0.79654
0.813715
0.832837
0.852823
0.872168
0.892178
0.912276
0.930335
0.946893
0.961204
0.973124
0.983719
0.994581
1.00326
1.00661
1.00663
1.00593
1.00495
1.002
0.996685
0.990235
0.983334
0.975346
0.965406
0.95255
0.93011
0.895397
0.870034
0.857714
0.846246
0.836383
0.832106
0.832272
0.83559
0.841788
0.850472
0.861107
0.873141
0.886164
0.899964
0.914375
0.929762
0.944278
0.972175
0.697367
0.700068
0.709099
0.719062
0.725445
0.7275
0.726811
0.725126
0.724526
0.725891
0.729843
0.736764
0.746285
0.757923
0.771235
0.785915
0.801166
0.818002
0.836746
0.857312
0.877979
0.897624
0.917445
0.93612
0.952536
0.965929
0.975915
0.985267
0.995645
1.00349
1.0071
1.00755
1.00696
1.00573
1.00304
0.998317
0.992144
0.984395
0.975877
0.966435
0.955633
0.938897
0.91018
0.878599
0.859049
0.844006
0.832745
0.828463
0.828972
0.832985
0.839983
0.849336
0.860438
0.872774
0.885995
0.899913
0.91439
0.929804
0.944322
0.972198
0.698129
0.701598