/*--------------------------------*- C++ -*----------------------------------*\
  =========                 |
  \\      /  F ield         | OpenFOAM: The Open Source CFD Toolbox
   \\    /   O peration     | Website:  https://openfoam.org
    \\  /    A nd           | Version:  7
     \\/     M anipulation  |
\*---------------------------------------------------------------------------*/
FoamFile
{
    version     2.0;
    format      ascii;
    class       volScalarField;
    location    "0.3";
    object      p;
}
// * * * * * * * * * * * * * * * * * * * * * * * * * * * * * * * * * * * * * //

dimensions      [1 -1 -2 0 0 0 0];

internalField   nonuniform List<scalar> 
3225
(
1
1
1
1
1
1
1
1
1
1
1
1
1
1
1
1
1
1
1
1
1
1
1
1
1
1
1
1
1
1
1
1
1
1
1
1
1
1
1
1
1
1
1
1
1
1
1
1
1
1
1
1
1
1
1
1
1
1
1
1
1
1
1
1
1
1
1
1
1
1
1
1
1
1
1
1
1
1
1
1
1
1
1
1
1
1
1
1
1
1
1
1
1
1
1
1
1
1
1
1
1
1
1
1
1
1
1
1
1
1
1
1
1
1
1
1
1
1
1
1
1
1
1
1
1
1
1
1
1
1
1
1
1
1
1
1
1
1
1
1
1
1
1
1
1
1
1
1
1
1
1
1
1
1
1
1
1
1
1
1
1
1
1
1
1
1
1
1
1
1
1
1
1
1
1
1
1
1
1
1
1
1
1
1
1
1
1
1
1
1
1
1
1
1
1
1
1
1
1
1
1
1
1
1
1
1
1
1
1
1
1
1
1
1
1
1
1
1
1
1
1
1
1
1
1
1
1
1
1
1
1
1
1
1
1
1
1
1
1
1
1
1
1
1
1
1
1
1
1
1
1
1
1
1
1
1
1
1
1
1
1
1
1
1
1
1
1
1
1
1
1
1
1
1
1
1
1
1
1
1
1
1
1
1
1
1
1
1
1
1
1
1
1
1
1
1
1
1
1
1
1
1
1
1
1
1
1
1
1
1
1
1
1
1
1
1
1
1
1
1
1
1
1
1
1
1
1
1
1
1
1
1
1
1
1
1
1
1
1
1
1
1
1
1
1
1
1
1
1
1
1
1
1
1
1
1
1
1
1
1
1
1
1
1
1
1
1
1
1
1
1
1
1
1
1
1
1
1
1
1
1
1
1
1
1
1
1
1
1
1
1
1
1
1
1
1
1
1
1
1
1
1
1
1
1
1
1
1
1
1
1
1
1
1
1
1
1
1
1
1
1
1
1
1
1
1
1
1
1
1
1
1
1
1
1
1
1
1
1
1
1
1
1
1
1
1
1
1
1
1
1
1
1
1
1
1
1
1
1
1
1
1
1
1
1
1
1
1
1
1
1
1
1
1
1
1
1
1
1
1
1
1
1
1
1
1
1
1
1
1
1
1
1
1
1
1
1
1
1
1
1
1
1
1
1
1
1
1
1
1
1
1
1
1
1
1
1
1
1
1
1
1
1
1
1
1
1
1
1
1
1
1
1
1
1
1
1
1
1
1
1
1
1
1
1
1
1
1
1
1
1
1
1
1
1
1
1
1
1
1
1
1
1
1
1
1
1
1
1
1
1
1
1
1
1
1
1
1
1
1
1
1
1
1
1
1
1
1
1
1
1
1
1
1
1
1
1
1
1
1
1
1
1
1
1
1
1
1
1
1
1
1
1
1
1
1
1
1
1
1
1
1
1
1
1
1
1
1
1
1
1
1
1
1
1
1
1
1
1
1
1
1
1
1
1
1
1
1
1
1
1
1
1
1
1
1
1
1
1
1
1
1
1
1
1
1
1
1
1
1
1
1
1
1
1
1
1
1
1
1
1
1
1
1
1
1
1
1
1
1
1
1
1
1
1
1
1
1
1
1
1
1
1
1
1
1
1
1
1
1
1
1
1
1
1
1
1
1
1
1
1
1
1
1
1
1
1
1
1
1
1
1
1
1
1
1
1
1
1
1
1
1
1
1
1
1
1
1
1
1
1
1
1
1
1
1
1
1
1
1
1
1
1
1
1
1
1
1
1
1
1
1
1
1
1
1
1
1
1
1
1
1
1
1
1
1
1
1
1
1
1
1
1
1
1
1
1
1
1
1
1
1
1
1
1
1
1
1
1
1
1
1
1
1
1
1
1
1
1
1
1
1
1
1
1
1
1
1
1
1
1
1
1
1
1
1
1
1
1
1
1
1
1
1
1
1
1
1
1
1
1
1
1
1
1
1
1
1
1
1
1
1
1
1
1
1
1
1
1
1
1
1
1
1
1
1
1
1
1
1
1
1
1
1
1
1
1
1
1
1
1
1
1
1
1
1
1
1
1
1
1
1
1
1
1
1
1
1
1
1
1
1
1
1
1
1
1
1
1
1
1
1
1
1
1
1
1
1
1
1
1
1
1
1
1
1
1
1
1
1
1
1
1
1
1
1
1
1
1
1
1
1
1
1
1
1
1
1
1
1
1
1
1
1
1
1
1
1
1
1
1
1
1
1
1
1
1
1
1
1
1
1
1
1
1
1
1
1
1
1
1
1
1
1
1
1
1
1
1
1
1
1
1
1
1
1
1
1
1
1
1
1
1
1
1
1
1
1
1
1
1
1
1
1
1
1
1
1
1
1
1
1
1
1
1
1
1
1
1
1
1
1
1
1
1
1
1
1
1
1
1
1
1
1
1
1
1
1
1
1
1
1
1
1
1
1
1
1
1
1
1
1
1
1
1
1
1
1
1
1
1
1
1
1
1
1
1
1
1
1
1
1
1
1
1
1
1
1
1
1
1
1
1
1
1
1
1
1
1
1
1
1
1
1
1
1
1
1
1
1
1
1
1
1
1
1
1
1
1
1
1
1
1
1
1
1
1
1
1
1
1
1
1
1
1
1
1
1
1
1
1
1
1
1
1
1
1
1
1
1
1
1
1
1
1
1
1
1
1
1
1
1
1
1
1
1
1
1
1
1
1
1
1
1
1
1
1
1
1
1
1
1
1
1
1
1
1
1
1
1
1
1
1
1
1
1
1
1
1
1
1
1
1
1
1
1
1
1
1
1
1
1
1
1
1
1
1
1
1
1
1
1
1
1
1
1
1
1
1
1
1
1
1
1
1
1
1
1
1
1
1
1
1
1
1
1
1
1
1
1
1
1
1
1
1
1
1
1
1
1
1
1
1
1
1
1
1
1
1
1
1
1
1
1
1
1
1
1
1
1
1
1
1
1
1
1
1
1
1
1
1
1
1
1
1
1
1
1
1
1
1
1
1
1
1
1
1
1
1
1
1
1
1
1
1
1
1
1
1
1
1
1
1
1
1
1
1
1
1
1
1
1
1
1
1
1
1
1
1
1
1
1
1
1
1
1
1
1
1
1
1
1
1
1
1
1
1
1
1
1
1
1
1
1
1
1
1
1
1
1
1
1
1
1
1
1
1
1
1
1
1
1
1
1
1
1
1
1
1
1
1
1
1
1
1
1
1
1
1
1
1
1
1
1
1
1
1
1
1
1
1
1
1
1
1
1
1
1
1
1
1
1
1
1
1
1
1
1
1
1
1
1
1
1
1
1
1
1
1
1
1
1
1
1
1
1
1
1
1
1
1
1
1
1
1
1
1
1
1
1
1
1
1
1
1
1
1
1
1
1
1
1
1
1
1
1
1
1
1
1
1
1
1
1
1
1
1
1
1
1
1
1
1
1
1
1
1
1
1
1
1
1
1
1
1
1
1
1
1
1
1
1
1
1
1
1
1
1
1
1
1
1
1
1
1
1
1
1
1
1
1
1
1
1
1
1
1
1
1
1
1
1
1
1
1
1
1
1
1
1
1
1
1
1
1
1
1
1
1
1
1
1
1
1
1
1
1
1
1
1
1
1
1
1
1
1
1
1
1
1
1
1
1
1
1
1
1
1
1
1
1
1
1
1
1
1
1
1
1
1
1
1
1
1
1
1
1
1
1
1
1
1
1
1
1
1
1
1
1
1
1
1
1
1
1
1
1
1
1
1
1
1
1
1
1
1
1
1
1
1
1
1
1
1
1
1
1
1
1
1
1
1
1
1
1
1
1
1
1
1
1
1
1
1
1
1
1
1
1
1
1
1
1
1
1
1
1
1
1
1
1
1
1
1
1
1
1
1
1
1
1
1
1
1
1
1
1
1
1
1
1
1
1
1
1
1
1
1
1
1
1
1
1
1
1
1
1
1
1
1
1
1
1
1
1
1
1
1
1
1
1
1
1
1
1
1
1
1
1
1
1
1
1
1
1
1
1
1
1
1
1
1
1
1
1
1
1
1
1
1
1
1
1
1
1
1
1
1
1
1
1
1
1
1
1
1
1
1
1
1
1
1
1
1
1
1
1
1
1
1
1
1
1
1
1
1
1
1
1
1
1
1
1
1
1
1
1
1
1
1
1
1
1
1
1
1
1
1
1
1
1
1
1
1
1
1
1
1
1
1
1
1
1
1
1
1
1
1
1
1
1
1
1
1
1
1
1
1
1
1
1
1
1
1
1
1
1
1
1
1
1
1
1
1
1
1
1
1
1
1
1
1
1
1
1
1
1
1
1
1
1
1
1
1
1
1
1
1
1
1
1
1
1
1
1
1
1
1
1
1
1
1
1
1
1
1
1
1
1
1
1
1
1
1
1
1
1
1
1
1
1
1
1
1
1
1
1
1
1
1
1
1
1
1
1
1
1
1
1
1
1
1
1
1
1
1
1
1
1
1
1
1
1
1
1
1
1
1
1
1
1
1
1
1
1
1
1
1
1
1
1
1
1
1
1
1
1
1
1
1
1
1
1
1
1
1
1
1
1
1
1
1
1
1
1
1
1
1
1
1
1
1
1
1
1
1
1
1
1
1
1
1
1
1
1
1
1
1
1
1
1
1
1
1
1
1
1
1
1
1
1
1
1
1
1
1
1
1
1
1
1
1
1
1
1
1
1
1
1
1
1
1
1
1
1
1
1
1
1
1
1
1
1
1
1
1
1
1
1
1
1
1
1
1
1
1
1
1
1
1
1
1
1
1
1
1
1
1
1
1
1
1
1
1
1
1
1
1
1
1
1
1
1
1
1
1
1
1
1
1
1
1
1
1
1
1
1
1
1
1
1
1
1
1
1
1
1
1
1
1
1
1
1
1
1
1
1
1
1
1
1
1
1
1
1
1
1
1
1
1
1
1
1
1
1
1
1
1
1
1
1
1
1
1
1
1
1
1
1
1
1
1
1
1
1
1.00001
1.00059
1
1
1
1
1
1
1
1
1
1
1
1
1
1
1
1
1
1
1
1
1
1
1
1
1.00005
1.00142
1.01709
1
1
1
1
1
1
1
1
1
1
1
1
1
1
1
1
1
1
1
1
1
1
1
1.00014
1.00332
1.03053
1.12955
1
1
1
1
1
1
1
1
1
1
1
1
1
1
1
1
1
1
1
1
1
1.00001
1.00036
1.00683
1.05044
1.17814
1.35509
1
1
1
1
1
1
1
1
1
1
1
1
1
1
1
1
1
1
1
1
1.00003
1.00096
1.01302
1.07749
1.22534
1.40158
1.49423
1
1
1
1
1
1
1
1
1
1
1
1
1
1
1
1
1
1
1
1.00008
1.00224
1.02449
1.11605
1.28461
1.43552
1.50058
1.53499
1
1
1
1
1
1
1
1
1
1
1
1
1
1
1
1
1
1
1.00022
1.00468
1.04041
1.15951
1.34694
1.48373
1.5141
1.53139
1.54562
1
1
1
1
1
1
1
1
1
1
1
1
1
1
1
1
1.00001
1.00062
1.00976
1.06594
1.20929
1.38459
1.50883
1.53876
1.54504
1.54534
1.54231
1
1
1
1
1
1
1
1
1
1
1
1
1
1
1
1.00004
1.00139
1.01838
1.09992
1.27744
1.43867
1.50848
1.54587
1.55955
1.55651
1.54745
1.53614
1
1
1
1
1
1
1
1
1
1
1
1
1
1
1.00013
1.00321
1.03184
1.13942
1.32315
1.49255
1.54168
1.54758
1.55181
1.55807
1.55367
1.54459
1.53459
1
1
1
1
1
1
1
1
1
1
1
1
1.00001
1.00034
1.00688
1.05399
1.19812
1.37339
1.49788
1.56356
1.56494
1.56169
1.55606
1.55172
1.5466
1.54082
1.53432
1
1
1
1
1
1
1
1
1
1
1
1.00002
1.00083
1.01298
1.08165
1.25246
1.44896
1.52414
1.55643
1.56886
1.56949
1.56449
1.55631
1.54837
1.54181
1.53753
1.53388
1
1
1
1
1
1
1
1
1
1
1.00006
1.0021
1.02434
1.1233
1.30101
1.47274
1.56541
1.57162
1.5699
1.56592
1.56448
1.56277
1.55624
1.54797
1.5408
1.53507
1.53039
1
1
1
1
1
1
1
1
1
1.00017
1.00439
1.04136
1.17443
1.38041
1.49724
1.55993
1.58204
1.58173
1.57476
1.56716
1.56119
1.55719
1.5534
1.54709
1.53999
1.53324
1.52698
1
1
1
1
1
1
1
1.00001
1.00051
1.00908
1.06656
1.22093
1.42807
1.5544
1.57237
1.57795
1.58004
1.57967
1.57509
1.56812
1.56066
1.55437
1.54924
1.54491
1.53881
1.5315
1.52447
1
1
1
1
1
1
1.00003
1.00122
1.01769
1.10474
1.29382
1.45604
1.55961
1.5905
1.59207
1.58556
1.57923
1.57434
1.57143
1.56728
1.56059
1.55348
1.54719
1.54189
1.53677
1.52987
1.52257
1
1
1
1
1
1.0001
1.00276
1.03093
1.14495
1.35938
1.52614
1.56693
1.5858
1.59456
1.5936
1.58791
1.58026
1.57344
1.56808
1.56409
1.55945
1.55279
1.54595
1.53969
1.53413
1.52808
1.52094
1
1
1
1
1.00027
1.00623
1.05357
1.20337
1.39629
1.54723
1.59808
1.60004
1.59505
1.59067
1.58799
1.58565
1.58032
1.57394
1.56754
1.56168
1.55666
1.55155
1.54501
1.53825
1.53186
1.52594
1.51938
1
1
1.00001
1.00068
1.01222
1.08329
1.27342
1.47349
1.55161
1.59472
1.60843
1.6065
1.59987
1.59137
1.58526
1.58099
1.57828
1.5736
1.56705
1.56033
1.55436
1.54937
1.54385
1.53694
1.53002
1.52369
1.51759
1
1.00005
1.00176
1.02296
1.12466
1.32121
1.51921
1.59812
1.60444
1.60397
1.60273
1.60259
1.59936
1.5933
1.58646
1.58033
1.57498
1.57101
1.56623
1.55975
1.55325
1.54726
1.54179
1.53556
1.52863
1.52187
1.51551
1.00014
1.00404
1.04092
1.18322
1.39674
1.52623
1.60272
1.62075
1.61873
1.609
1.60098
1.59664
1.59556
1.59332
1.58733
1.58007
1.5736
1.56824
1.56439
1.55916
1.55233
1.54562
1.53956
1.53391
1.52739
1.52033
1.51349
1.00838
1.0672
1.23719
1.46847
1.58212
1.60227
1.61343
1.61869
1.61824
1.6125
1.60472
1.59779
1.59267
1.58942
1.5862
1.58024
1.5737
1.56758
1.56225
1.55761
1.55147
1.54465
1.53809
1.53201
1.5259
1.51899
1.51186
1.10708
1.30575
1.4899
1.60757
1.63065
1.62536
1.61528
1.61127
1.61172
1.61196
1.60666
1.59916
1.59208
1.58682
1.58359
1.57989
1.57371
1.567
1.56074
1.55554
1.55055
1.54395
1.5369
1.53019
1.52405
1.51763
1.51046
1.38949
1.54392
1.59856
1.62899
1.63497
1.63114
1.6221
1.61364
1.60907
1.60695
1.60515
1.59971
1.59332
1.58727
1.58206
1.57813
1.57305
1.56651
1.56006
1.5542
1.549
1.54292
1.53587
1.52887
1.52231
1.51594
1.50895
1.59743
1.62876
1.62652
1.62472
1.62751
1.62992
1.62482
1.61673
1.60938
1.60458
1.60206
1.59939
1.59378
1.58748
1.58135
1.57612
1.57176
1.56617
1.55962
1.5531
1.54715
1.54153
1.53501
1.52788
1.52082
1.51406
1.50722
1.64375
1.64587
1.63665
1.62813
1.62416
1.62421
1.62293
1.61754
1.61127
1.60563
1.60076
1.59728
1.59331
1.58743
1.58131
1.57559
1.57044
1.56517
1.55887
1.55223
1.54589
1.53999
1.53376
1.52673
1.51948
1.51243
1.5055
1.64481
1.64514
1.63998
1.63208
1.62578
1.62153
1.61984
1.61742
1.61219
1.60638
1.60063
1.59555
1.59178
1.58737
1.58149
1.57524
1.5692
1.56366
1.55803
1.55172
1.54512
1.53862
1.53218
1.52537
1.51824
1.51108
1.50397
1.6396
1.64212
1.63947
1.63384
1.62727
1.6222
1.61864
1.61631
1.61206
1.60648
1.60079
1.59548
1.59093
1.58646
1.58089
1.57466
1.56853
1.56274
1.55699
1.55083
1.54427
1.53761
1.53091
1.52402
1.51691
1.50974
1.50255
1.64168
1.64032
1.63723
1.6326
1.62776
1.62318
1.61913
1.61506
1.61069
1.60607
1.60112
1.59595
1.59055
1.58514
1.57984
1.57439
1.56849
1.56226
1.55591
1.54964
1.54343
1.53696
1.53004
1.52284
1.51557
1.50837
1.50118
1.64326
1.63844
1.63471
1.63226
1.62898
1.62458
1.61953
1.61426
1.60952
1.6057
1.60139
1.59591
1.58994
1.58417
1.57908
1.57403
1.56805
1.56147
1.5549
1.54869
1.54262
1.5361
1.52898
1.52162
1.51433
1.50713
1.4998
1.64313
1.63773
1.6342
1.63297
1.62982
1.62475
1.61918
1.61383
1.60944
1.60596
1.60129
1.59539
1.58932
1.58372
1.57889
1.57366
1.5673
1.56059
1.55417
1.54816
1.5419
1.53498
1.5277
1.52039
1.51324
1.50605
1.49846
1.64301
1.63831
1.63526
1.63345
1.62947
1.62439
1.61921
1.61428
1.61011
1.60585
1.60063
1.59484
1.58901
1.58358
1.57848
1.57287
1.56644
1.55981
1.55351
1.54748
1.54094
1.53373
1.52638
1.51923
1.51214
1.5048
1.49704
1.64364
1.64028
1.63723
1.63309
1.62816
1.62351
1.61951
1.61559
1.61084
1.60523
1.5995
1.5942
1.58912
1.5837
1.57785
1.57177
1.56565
1.55941
1.55302
1.54651
1.53971
1.53255
1.52524
1.51814
1.51105
1.50345
1.49551
1.64352
1.64259
1.63873
1.63332
1.62792
1.623
1.61963
1.61651
1.61109
1.60488
1.5988
1.59361
1.58924
1.5839
1.57744
1.57089
1.56484
1.55916
1.55282
1.5457
1.53849
1.53155
1.52461
1.51732
1.50983
1.50212
1.49415
1.64381
1.64298
1.63952
1.63411
1.62857
1.62342
1.61941
1.61603
1.61109
1.60509
1.59904
1.59355
1.58881
1.58356
1.57725
1.57064
1.56434
1.5585
1.55225
1.54522
1.53787
1.53078
1.52387
1.51654
1.50876
1.50092
1.49299
1.64454
1.64166
1.63935
1.6351
1.62988
1.62452
1.61941
1.6151
1.61088
1.60568
1.59987
1.59398
1.58835
1.58295
1.57719
1.57093
1.56444
1.55791
1.55142
1.54473
1.53772
1.53048
1.52314
1.51562
1.50786
1.49999
1.49199
1.64513
1.6408
1.63864
1.63608
1.631
1.62541
1.61984
1.615
1.61108
1.60628
1.60036
1.59415
1.58823
1.58285
1.57727
1.57097
1.56429
1.5576
1.55102
1.5444
1.53747
1.53014
1.52252
1.51482
1.50705
1.49909
1.4909
1.6458
1.64098
1.63818
1.63659
1.63185
1.62605
1.62031
1.61523
1.61149
1.60688
1.6007
1.59427
1.58822
1.58294
1.57744
1.57094
1.56407
1.55737
1.55088
1.54412
1.53696
1.52958
1.52198
1.51417
1.50625
1.49815
1.48971
1.64777
1.64208
1.63782
1.63579
1.63268
1.62712
1.62126
1.61567
1.61107
1.60701
1.6014
1.59488
1.58849
1.58272
1.57741
1.57117
1.56418
1.55727
1.5507
1.54398
1.53661
1.52898
1.52142
1.5136
1.50543
1.49717
1.48871
1.65037
1.64424
1.639
1.63484
1.63232
1.62856
1.62291
1.61686
1.61103
1.6062
1.60201
1.5962
)
;

boundaryField
{
    inlet
    {
        type            fixedValue;
        value           nonuniform 0();
    }
    outlet
    {
        type            zeroGradient;
    }
    triangle
    {
        type            zeroGradient;
    }
    top
    {
        type            symmetryPlane;
    }
    bottom
    {
        type            symmetryPlane;
    }
    defaultFaces
    {
        type            empty;
    }
    procBoundary4to3
    {
        type            processor;
        value           nonuniform List<scalar> 
119
(
1
1
1
1
1
1
1
1
1
1
1
1
1
1
1
1
1
1
1
1
1
1
1
1
1
1
1
1
1
1
1
1
1
1
1
1
1
1
1
1
1
1
1
1
1
1
1
1
1
1
1
1
1
1
1
1
1
1
1
1
1
1
1
1
1
1
1
1
1
1
1
1
1
1
1
1
1
1
1
1
1
1
1
1
1
1
1
1
1
1
1
1
1
1
1
1
1
1
1
1
1
1.0004
1.01685
1.15537
1.4378
1.59737
1.63475
1.64014
1.64451
1.64861
1.6506
1.64968
1.64726
1.64577
1.64672
1.64873
1.65045
1.6522
1.65385
)
;
    }
    procBoundary4to5
    {
        type            processor;
        value           nonuniform List<scalar> 
119
(
1
1
1
1
1
1
1
1
1
1
1
1
1
1
1
1
1
1
1
1
1
1
1
1
1
1
1
1
1
1
1
1
1
1
1
1
1
1
1
1
1
1
1
1
1
1
1
1
1
1
1
1
1
1
1
1
1
1
1
1
1
1
1
1
1
1
1
1
1
1
1
1
1
1
1
1
1
1
1
1.00023
1.00932
1.09007
1.29235
1.4603
1.5182
1.54302
1.54416
1.5363
1.5294
1.52779
1.52824
1.52686
1.52366
1.52092
1.51834
1.51596
1.51381
1.51208
1.51055
1.50887
1.50692
1.50496
1.50318
1.50153
1.49994
1.49829
1.49665
1.49515
1.49375
1.49219
1.49052
1.48886
1.48748
1.48611
1.48488
1.48373
1.48247
1.48103
1.47979
)
;
    }
    procBoundary4to11
    {
        type            processor;
        value           uniform 1.6552;
    }
    procBoundary4to12
    {
        type            processor;
        value           nonuniform List<scalar> 
28
(
1.65117
1.64649
1.6411
1.63598
1.63153
1.62828
1.62434
1.61835
1.61191
1.60602
1.60116
1.59687
1.58934
1.58269
1.57684
1.57148
1.56481
1.55742
1.55032
1.54372
1.53661
1.52864
1.52066
1.51291
1.50471
1.49608
1.4876
1.58934
)
;
    }
}


// ************************************************************************* //
