/*--------------------------------*- C++ -*----------------------------------*\
  =========                 |
  \\      /  F ield         | OpenFOAM: The Open Source CFD Toolbox
   \\    /   O peration     | Website:  https://openfoam.org
    \\  /    A nd           | Version:  8
     \\/     M anipulation  |
\*---------------------------------------------------------------------------*/
FoamFile
{
    version     2.0;
    format      ascii;
    class       volScalarField;
    location    "5.2";
    object      p;
}
// * * * * * * * * * * * * * * * * * * * * * * * * * * * * * * * * * * * * * //

dimensions      [1 -1 -2 0 0 0 0];

internalField   nonuniform List<scalar> 
2600
(
1.44037
1.40471
1.34497
1.2017
1.03887
1.3589
2.19469
2.68702
2.72454
3.03574
1.47886
1.41041
1.34187
1.19089
1.03268
1.35355
2.15318
2.65526
2.72579
3.06473
1.4841
1.41137
1.34215
1.19065
1.03592
1.34414
2.09306
2.62227
2.71994
3.09399
1.47784
1.40841
1.33845
1.187
1.03673
1.34406
2.02635
2.58737
2.71215
3.12141
1.47095
1.40262
1.33694
1.1871
1.04124
1.35154
1.95552
2.54695
2.69772
3.14805
1.46795
1.39551
1.33446
1.19002
1.05847
1.36283
1.87899
2.505
2.68275
3.17251
1.46183
1.38841
1.332
1.19481
1.08605
1.384
1.80824
2.44257
2.66964
3.19343
1.45491
1.38093
1.32264
1.20252
1.12532
1.40484
1.7293
2.38589
2.65115
3.21121
1.449
1.36989
1.30716
1.21167
1.17616
1.42862
1.66301
2.31874
2.6565
3.21751
1.4424
1.35605
1.28796
1.22054
1.24184
1.45817
1.58771
2.24885
2.6625
3.22482
1.43684
1.33736
1.26936
1.23437
1.31345
1.49319
1.52821
2.17419
2.68364
3.22925
1.43028
1.31816
1.25
1.25605
1.39167
1.53
1.47229
2.10182
2.70237
3.24082
1.42848
1.29568
1.2295
1.27765
1.4658
1.56898
1.42733
2.03603
2.72918
3.23845
1.42404
1.2728
1.21036
1.30367
1.54443
1.60846
1.3978
1.98192
2.75829
3.24414
1.42525
1.25117
1.19022
1.33158
1.62102
1.64419
1.37832
1.94138
2.78095
3.24093
1.42356
1.23482
1.17213
1.3571
1.69107
1.67445
1.36531
1.9094
2.80726
3.24238
1.4227
1.22611
1.15541
1.38633
1.74573
1.69814
1.35385
1.88638
2.82728
3.23891
1.42195
1.22227
1.15
1.41048
1.78911
1.71361
1.34592
1.86973
2.85131
3.23352
1.44408
1.22975
1.14993
1.42799
1.82546
1.72291
1.33675
1.84439
2.87143
3.22628
1.3962
1.21272
1.15295
1.44227
1.83985
1.73609
1.3291
1.80736
2.88885
3.21691
1.76767
1.17982
1.17734
1.44769
1.83828
1.75118
1.32309
1.75906
2.89882
3.20798
2.15513
1.1995
1.20561
1.44894
1.81403
1.75877
1.32465
1.72671
2.89907
3.19593
2.48653
1.21934
1.23959
1.44787
1.76083
1.74908
1.34174
1.72925
2.8881
3.17886
2.76008
1.26963
1.2977
1.45339
1.71451
1.73359
1.39107
1.77404
2.87281
3.1569
2.99144
1.38768
1.33097
1.43142
1.66324
1.706
1.45497
1.84866
2.86534
3.12574
3.18845
1.5404
1.35585
1.39976
1.6247
1.67884
1.52609
1.94184
2.85958
3.10392
3.36274
1.71795
1.4053
1.36983
1.5773
1.65468
1.6038
2.03735
2.84509
3.08738
3.50772
1.88532
1.47028
1.35641
1.53496
1.6303
1.68032
2.11592
2.82631
3.07793
3.63857
2.05259
1.53528
1.36324
1.50582
1.59969
1.74681
2.17352
2.79511
3.06526
3.75487
2.20738
1.61261
1.37299
1.48206
1.57392
1.80087
2.22029
2.76292
3.04934
3.86294
2.35381
1.69264
1.38226
1.46586
1.56481
1.86135
2.27397
2.73413
3.02756
3.96809
2.505
1.77783
1.38898
1.45059
1.56667
1.92892
2.3319
2.71573
3.00177
4.07145
2.6486
1.86756
1.40068
1.43986
1.57611
1.99704
2.39109
2.70967
2.97627
4.14758
2.79245
1.95823
1.4096
1.43405
1.59602
2.06543
2.45254
2.71544
2.95351
4.24101
2.92856
2.05013
1.42431
1.44594
1.6267
2.12817
2.52202
2.73958
2.93281
4.30867
3.06726
2.13142
1.43999
1.46184
1.66177
2.19095
2.59057
2.76842
2.91614
4.27344
3.20182
2.2165
1.4628
1.48776
1.70242
2.25111
2.61264
2.7773
2.89907
4.2752
3.32252
2.29908
1.49347
1.53407
1.74679
2.2962
2.62508
2.77074
2.87987
4.12631
3.39634
2.37677
1.53966
1.58222
1.78315
2.33147
2.62531
2.75082
2.85605
3.88841
3.43066
2.46238
1.6159
1.61553
1.82323
2.36064
2.62781
2.71974
2.82418
4.22725
7.70295
7.38417
6.94544
6.6628
6.48471
6.36419
6.25404
6.07314
5.62671
1.65866
5.12733
6.50775
6.49986
6.46425
6.39352
6.32298
6.20741
5.99467
5.43714
1.06201
1.91413
5.91687
6.61372
6.46837
6.39277
6.3109
6.18552
5.95633
5.40649
1.0628
1.06669
3.44011
6.24112
6.37189
6.34183
6.26675
6.12836
5.89304
5.39011
1.06375
1.06582
1.2445
4.56921
6.38094
6.35102
6.24667
6.09884
5.84922
5.39759
1.06407
1.06549
1.0679
1.75103
5.61235
6.33079
6.20383
6.08128
5.84139
5.41993
1.06323
1.06467
1.0659
1.07382
3.19732
6.08593
6.16011
6.04957
5.81162
5.41239
1.06244
1.06379
1.06519
1.06736
1.27856
4.86063
6.22236
6.03852
5.77746
5.40424
1.06157
1.06273
1.06418
1.06537
1.06879
2.31939
5.82756
5.98851
5.73934
5.40609
1.06044
1.06141
1.06252
1.06369
1.06518
1.14251
4.3782
5.93395
5.72215
5.40844
1.05926
1.0603
1.06138
1.06274
1.06393
1.06653
2.12244
5.53828
5.71707
5.40212
1.05842
1.05935
1.06038
1.06155
1.0627
1.06415
1.14377
4.26174
5.63903
5.39394
1.05752
1.05833
1.05927
1.06026
1.06148
1.0626
1.06625
2.29283
5.35912
5.43579
1.05682
1.05763
1.05853
1.05951
1.0607
1.06183
1.06377
1.22354
4.40273
5.36543
1.05628
1.05706
1.05792
1.05888
1.05995
1.06114
1.06228
1.07254
2.77711
5.21701
1.05583
1.0566
1.05743
1.05839
1.05939
1.06061
1.06173
1.06417
1.47771
4.59274
1.0555
1.05624
1.05706
1.05798
1.05896
1.06012
1.0613
1.06263
1.09934
3.535
1.05523
1.05595
1.05674
1.05762
1.05859
1.05966
1.06089
1.06202
1.06681
2.40194
1.05504
1.05574
1.05651
1.05736
1.05832
1.05935
1.06056
1.06172
1.06401
1.47727
1.0549
1.05558
1.05634
1.05717
1.0581
1.0591
1.06026
1.06147
1.06297
1.1164
1.00165
1.00511
1.00893
1.01313
1.0178
1.02293
1.02866
1.0353
1.04129
1.05429
1.00165
1.00511
1.00893
1.01313
1.0178
1.02293
1.02865
1.0353
1.04129
1.05433
1.00165
1.00511
1.00893
1.01313
1.0178
1.02293
1.02864
1.0353
1.04127
1.05452
1.00165
1.00511
1.00893
1.01313
1.0178
1.02294
1.02863
1.03531
1.04121
1.05452
1.00165
1.00511
1.00893
1.01313
1.0178
1.02294
1.02862
1.03531
1.04119
1.05485
1.00165
1.00511
1.00893
1.01313
1.01779
1.02294
1.02861
1.03531
1.04119
1.05518
1.00165
1.00511
1.00893
1.01313
1.01779
1.02294
1.02861
1.03531
1.04124
1.05513
1.00164
1.00511
1.00893
1.01313
1.01779
1.02295
1.02861
1.0353
1.04131
1.0547
1.00164
1.00511
1.00893
1.01313
1.01779
1.02295
1.02861
1.03528
1.04138
1.05415
1.00164
1.00511
1.00893
1.01314
1.01779
1.02295
1.02861
1.03526
1.04146
1.0537
1.00164
1.00511
1.00893
1.01314
1.01779
1.02295
1.02861
1.03524
1.04154
1.05289
1.00164
1.00511
1.00893
1.01314
1.01779
1.02295
1.02861
1.03522
1.04163
1.05233
1.00164
1.00511
1.00893
1.01314
1.01779
1.02295
1.02862
1.03519
1.04169
1.05183
1.00164
1.00511
1.00893
1.01314
1.01779
1.02295
1.02862
1.03517
1.04176
1.05142
1.00164
1.00511
1.00893
1.01314
1.01778
1.02295
1.02862
1.03516
1.04182
1.05109
1.00164
1.00511
1.00893
1.01314
1.01778
1.02295
1.02863
1.03514
1.04188
1.05079
1.00164
1.00511
1.00893
1.01314
1.01778
1.02295
1.02863
1.03513
1.04193
1.05058
1.00164
1.00511
1.00893
1.01314
1.01778
1.02295
1.02863
1.03512
1.04197
1.05043
1.00164
1.00511
1.00893
1.01314
1.01778
1.02295
1.02863
1.03512
1.04201
1.05032
1.00164
1.00511
1.00893
1.01314
1.01778
1.02295
1.02863
1.03512
1.04204
1.05025
1.00164
1.00511
1.00893
1.01314
1.01778
1.02295
1.02863
1.03512
1.04204
1.05025
1.00164
1.00511
1.00893
1.01314
1.01778
1.02295
1.02863
1.03512
1.04201
1.05032
1.00164
1.00511
1.00893
1.01314
1.01778
1.02295
1.02863
1.03512
1.04197
1.05043
1.00164
1.00511
1.00893
1.01314
1.01778
1.02295
1.02863
1.03513
1.04193
1.05058
1.00164
1.00511
1.00893
1.01314
1.01778
1.02295
1.02863
1.03514
1.04188
1.05079
1.00164
1.00511
1.00893
1.01314
1.01778
1.02295
1.02862
1.03516
1.04182
1.05109
1.00164
1.00511
1.00893
1.01314
1.01779
1.02295
1.02862
1.03517
1.04176
1.05142
1.00164
1.00511
1.00893
1.01314
1.01779
1.02295
1.02862
1.03519
1.04169
1.05183
1.00164
1.00511
1.00893
1.01314
1.01779
1.02295
1.02861
1.03522
1.04162
1.05233
1.00164
1.00511
1.00893
1.01314
1.01779
1.02295
1.02861
1.03524
1.04154
1.05289
1.00164
1.00511
1.00893
1.01314
1.01779
1.02295
1.02861
1.03526
1.04146
1.0537
1.00164
1.00511
1.00893
1.01313
1.01779
1.02295
1.02861
1.03528
1.04138
1.05415
1.00164
1.00511
1.00893
1.01313
1.01779
1.02295
1.02861
1.0353
1.04131
1.05471
1.00165
1.00511
1.00893
1.01313
1.01779
1.02294
1.02861
1.03531
1.04124
1.05513
1.00165
1.00511
1.00893
1.01313
1.01779
1.02294
1.02861
1.03531
1.04119
1.05519
1.00165
1.00511
1.00893
1.01313
1.0178
1.02294
1.02862
1.03531
1.04119
1.05486
1.00165
1.00511
1.00893
1.01313
1.0178
1.02294
1.02863
1.03531
1.04121
1.05452
1.00165
1.00511
1.00893
1.01313
1.0178
1.02293
1.02864
1.0353
1.04127
1.05454
1.00165
1.00511
1.00893
1.01313
1.0178
1.02293
1.02865
1.0353
1.0413
1.05434
1.00165
1.00511
1.00893
1.01313
1.0178
1.02293
1.02866
1.0353
1.04131
1.05429
1.0549
1.05558
1.05634
1.05717
1.0581
1.0591
1.06026
1.06147
1.06297
1.11574
1.05504
1.05574
1.05651
1.05736
1.05832
1.05935
1.06056
1.06172
1.06401
1.47496
1.05523
1.05595
1.05674
1.05762
1.05859
1.05966
1.06089
1.06202
1.0668
2.39903
1.0555
1.05624
1.05706
1.05798
1.05896
1.06012
1.0613
1.06263
1.09925
3.53377
1.05583
1.0566
1.05743
1.05839
1.05939
1.06061
1.06173
1.06417
1.47702
4.59458
1.05628
1.05706
1.05792
1.05888
1.05995
1.06114
1.06229
1.07253
2.7757
5.21989
1.05682
1.05763
1.05853
1.05951
1.0607
1.06183
1.06377
1.22312
4.40182
5.36878
1.05752
1.05833
1.05927
1.06026
1.06148
1.0626
1.06625
2.29135
5.35735
5.44063
1.05842
1.05935
1.06038
1.06155
1.0627
1.06415
1.14355
4.26022
5.6377
5.39728
1.05926
1.0603
1.06138
1.06274
1.06393
1.06652
2.12099
5.53862
5.71567
5.40352
1.06044
1.06141
1.06253
1.0637
1.06518
1.14215
4.37639
5.93463
5.72155
5.40771
1.06157
1.06273
1.06418
1.06538
1.06879
2.31711
5.8268
5.98948
5.73941
5.40648
1.06245
1.0638
1.0652
1.06736
1.27804
4.85854
6.22213
6.03866
5.77816
5.40468
1.06324
1.06468
1.06591
1.07383
3.19537
6.08519
6.16005
6.04891
5.81223
5.41365
1.06408
1.0655
1.06791
1.75109
5.61133
6.33024
6.20362
6.08049
5.8418
5.41982
1.06376
1.06584
1.24485
4.56919
6.38027
6.3505
6.24617
6.0982
5.84903
5.39726
1.06279
1.06672
3.44176
6.24059
6.37143
6.34138
6.26621
6.12768
5.89252
5.38986
1.06203
1.91689
5.91765
6.61281
6.46774
6.39236
6.3105
6.18485
5.95591
5.40715
1.66014
5.13029
6.50699
6.49947
6.46352
6.39298
6.32253
6.20664
5.99425
5.43656
4.2302
7.70302
7.3829
6.94474
6.66206
6.48409
6.36352
6.25335
6.07262
5.62771
3.9263
3.47215
2.48074
1.71788
1.4058
1.68983
2.63959
2.81394
2.68925
2.6215
4.15909
3.45966
2.39684
1.63751
1.36251
1.64151
2.62543
2.80457
2.67352
2.61754
4.30484
3.3927
2.3263
1.56102
1.32329
1.59713
2.60305
2.80127
2.65742
2.61468
4.29971
3.28066
2.2609
1.48239
1.28483
1.55558
2.57836
2.803
2.64269
2.61544
4.33147
3.14992
2.19991
1.4112
1.24699
1.51836
2.54988
2.81311
2.63056
2.62262
4.26429
3.0141
2.13091
1.34995
1.21743
1.48927
2.51997
2.82343
2.62094
2.63703
4.17711
2.87467
2.05083
1.29685
1.18731
1.46583
2.48772
2.83212
2.60898
2.65593
4.10769
2.72975
1.96568
1.25903
1.16592
1.44826
2.45192
2.83807
2.59261
2.67598
4.01354
2.58163
1.87349
1.22762
1.1471
1.4334
2.41717
2.84065
2.56588
2.695
3.91657
2.42692
1.78193
1.20801
1.13485
1.42052
2.38788
2.84391
2.53281
2.71261
3.82054
2.27307
1.68942
1.19068
1.12732
1.41019
2.35736
2.85532
2.50248
2.73246
3.70611
2.11666
1.60882
1.18673
1.12455
1.40545
2.32724
2.86734
2.47942
2.7525
3.582
1.95748
1.53495
1.18553
1.12517
1.4014
2.30495
2.85296
2.46943
2.7786
3.43026
1.80501
1.48121
1.19663
1.1215
1.39234
2.28804
2.83767
2.48482
2.80006
3.24733
1.65618
1.43926
1.21241
1.11467
1.38227
2.27413
2.82701
2.51621
2.82221
3.03831
1.53797
1.41231
1.22169
1.10135
1.37437
2.26912
2.81839
2.55479
2.86247
2.785
1.43995
1.3999
1.22071
1.09014
1.3723
2.27307
2.7977
2.59975
2.89449
2.50531
1.39012
1.37623
1.20408
1.07973
1.37367
2.26685
2.77486
2.64509
2.93218
2.16899
1.38455
1.36439
1.21193
1.06828
1.37471
2.25535
2.74975
2.68109
2.96688
1.80008
1.38243
1.34195
1.20331
1.04524
1.3674
2.23034
2.71962
2.70862
3.00179
1.06603
1.07117
1.07487
1.79487
5.32998
5.00253
4.20598
3.4296
2.65879
1.99267
1.066
1.07109
1.07492
1.80256
5.33305
5.01142
4.20115
3.41366
2.64715
1.99442
1.06598
1.07092
1.07505
1.81454
5.34414
5.02876
4.18512
3.38633
2.62972
1.99877
1.06599
1.07064
1.0755
1.85667
5.34985
5.02181
4.1492
3.34891
2.61159
2.008
1.066
1.0703
1.07683
1.93908
5.34601
4.99777
4.09808
3.29831
2.59184
2.02246
1.06601
1.06995
1.08142
2.04102
5.30822
4.93566
4.01531
3.23307
2.57503
2.04414
1.06598
1.06967
1.0969
2.13481
5.25333
4.83664
3.91517
3.1662
2.56729
2.07444
1.0659
1.06952
1.14797
2.203
5.14196
4.73054
3.84058
3.11318
2.56532
2.10738
1.06571
1.07023
1.28943
2.30281
4.92168
4.49742
3.70272
3.04743
2.5702
2.14713
1.06544
1.07498
1.56215
2.53591
4.57686
4.26731
3.61316
3.01952
2.58394
2.18905
1.06518
1.09931
1.9155
2.7584
4.12933
3.99791
3.45001
2.92498
2.59025
2.23111
1.06507
1.20539
2.20459
2.85415
3.6617
3.75292
3.32793
2.87595
2.60759
2.27695
1.065
1.50069
2.43334
2.83708
3.24318
3.48894
3.18563
2.83925
2.63086
2.32708
1.06579
1.9369
2.6956
2.7438
2.88678
3.19334
3.06349
2.82839
2.65202
2.37912
1.07881
2.40358
2.92628
2.61591
2.558
2.855
2.96667
2.82566
2.67596
2.42617
1.20358
2.78604
3.05964
2.50582
2.28427
2.52835
2.90237
2.82951
2.68774
2.4565
1.55946
3.12665
3.03702
2.36107
2.04088
2.27806
2.83314
2.83216
2.69313
2.47809
2.08976
3.33425
2.95527
2.1839
1.81828
2.08533
2.76358
2.8276
2.6964
2.50831
2.57687
3.37995
2.82826
2.01296
1.62916
1.91643
2.7195
2.83736
2.70763
2.54859
3.47742
3.43844
2.64023
1.84289
1.48288
1.77431
2.6488
2.82699
2.70353
2.59887
3.44017
3.39635
2.61904
1.76393
1.66575
1.90718
2.39817
2.63263
2.70372
2.77126
2.55193
3.33698
2.80101
1.97534
1.75787
2.04135
2.46705
2.65395
2.70528
2.71668
2.0653
3.2866
2.92607
2.18097
1.88451
2.2117
2.53436
2.65437
2.70528
2.67277
1.54443
3.0747
3.01239
2.38172
2.04141
2.41339
2.62875
2.64497
2.6801
2.61912
1.19484
2.73603
3.03376
2.54077
2.23731
2.65301
2.72044
2.63942
2.63807
2.55429
1.0775
2.35962
2.89936
2.65484
2.50042
2.90474
2.83627
2.64472
2.59322
2.48381
1.06569
1.90124
2.66561
2.77995
2.83981
3.17132
2.96542
2.65281
2.56718
2.42067
1.06499
1.4741
2.41035
2.86057
3.22453
3.4389
3.11003
2.67382
2.55672
2.36427
1.06507
1.19344
2.18938
2.86883
3.66449
3.72469
3.27219
2.72735
2.5438
2.30838
1.06519
1.09653
1.90066
2.77148
4.138
3.99794
3.41869
2.79912
2.53233
2.25375
1.06545
1.07455
1.55142
2.54044
4.58124
4.28606
3.5805
2.89677
2.52912
2.20317
1.06571
1.07019
1.28507
2.30214
4.91885
4.51944
3.69066
2.97027
2.525
2.15532
1.0659
1.06952
1.14723
2.19766
5.13351
4.74106
3.84466
3.08071
2.53327
2.114
1.06598
1.06967
1.09711
2.12787
5.24718
4.84951
3.93566
3.14257
2.54732
2.08292
1.06601
1.06994
1.08156
2.03712
5.3069
4.94837
4.03431
3.2235
2.56829
2.05887
1.066
1.0703
1.07684
1.93726
5.34948
5.01505
4.11491
3.2987
2.59673
2.04339
1.06599
1.07065
1.07548
1.85365
5.36404
5.04877
4.16892
3.35695
2.62411
2.03446
1.06598
1.07092
1.07502
1.81101
5.37252
5.0702
4.21576
3.40419
2.64817
2.03033
1.066
1.07109
1.0749
1.79838
5.37536
5.06869
4.24217
3.44171
2.66978
2.0301
1.06603
1.07116
1.07487
1.79169
5.38494
5.07044
4.25635
3.4638
2.68403
2.03109
1.05479
1.05546
1.0562
1.05701
1.0579
1.05888
1.05997
1.0612
1.06237
1.06666
1.05471
1.05537
1.05609
1.05688
1.05775
1.05869
1.05973
1.06087
1.06222
1.0632
1.05467
1.05532
1.05603
1.0568
1.05765
1.05857
1.05959
1.06066
1.06202
1.06295
1.05466
1.0553
1.05599
1.05675
1.05758
1.05848
1.05948
1.06053
1.06184
1.06276
1.05466
1.05529
1.05599
1.05674
1.05756
1.05845
1.05941
1.06045
1.0617
1.06263
1.05467
1.0553
1.05599
1.05674
1.05756
1.05844
1.0594
1.06044
1.06164
1.06264
1.05465
1.05529
1.05598
1.05674
1.05756
1.05844
1.05941
1.06045
1.06162
1.06282
1.05464
1.05528
1.05598
1.05674
1.05757
1.05845
1.05943
1.06047
1.06162
1.06294
1.05466
1.05529
1.056
1.05675
1.05758
1.05847
1.05945
1.0605
1.06163
1.06297
1.05468
1.05532
1.05602
1.05677
1.0576
1.05849
1.05946
1.06051
1.06164
1.06296
1.05471
1.05535
1.05604
1.0568
1.05762
1.05851
1.05947
1.06053
1.06166
1.06295
1.05474
1.05538
1.05607
1.05683
1.05764
1.05853
1.05949
1.06055
1.06168
1.06294
1.05476
1.0554
1.05609
1.05685
1.05766
1.05856
1.05952
1.06057
1.0617
1.06295
1.05478
1.05541
1.0561
1.05686
1.05767
1.05857
1.05953
1.06059
1.06172
1.06296
1.05478
1.05542
1.05611
1.05687
1.05768
1.05858
1.05955
1.0606
1.06174
1.06297
1.05478
1.05542
1.05612
1.05688
1.0577
1.05859
1.05956
1.06062
1.06176
1.06297
1.05477
1.05541
1.05611
1.05688
1.0577
1.0586
1.05957
1.06062
1.06176
1.06298
1.05477
1.05541
1.05612
1.05688
1.05771
1.0586
1.05957
1.06062
1.06176
1.06298
1.05476
1.05541
1.05612
1.05688
1.05771
1.0586
1.05957
1.06061
1.06176
1.06298
1.05478
1.05543
1.05613
1.05689
1.05772
1.0586
1.05956
1.0606
1.06175
1.06297
1.00164
1.00511
1.00893
1.01314
1.01778
1.02295
1.02863
1.03512
1.04207
1.05019
1.00164
1.00511
1.00893
1.01314
1.01778
1.02295
1.02863
1.03511
1.0421
1.05016
1.00164
1.00511
1.00893
1.01314
1.01778
1.02295
1.02864
1.03511
1.04213
1.05015
1.00164
1.00511
1.00893
1.01314
1.01778
1.02295
1.02864
1.03509
1.04216
1.05016
1.00164
1.00511
1.00893
1.01314
1.01778
1.02295
1.02864
1.03508
1.04218
1.05017
1.00164
1.00511
1.00893
1.01314
1.01778
1.02295
1.02865
1.03506
1.0422
1.05019
1.00164
1.00511
1.00893
1.01314
1.01778
1.02295
1.02865
1.03505
1.04222
1.05017
1.00164
1.00511
1.00893
1.01314
1.01778
1.02295
1.02866
1.03503
1.04222
1.05017
1.00164
1.00511
1.00893
1.01314
1.01778
1.02295
1.02866
1.03503
1.04222
1.05018
1.00164
1.00511
1.00893
1.01314
1.01778
1.02295
1.02867
1.03503
1.04221
1.05019
1.00164
1.00511
1.00893
1.01314
1.01779
1.02294
1.02867
1.03503
1.0422
1.05021
1.00164
1.00511
1.00893
1.01314
1.01779
1.02294
1.02867
1.03503
1.04218
1.05023
1.00164
1.00511
1.00893
1.01314
1.01779
1.02294
1.02867
1.03504
1.04217
1.05024
1.00164
1.00511
1.00893
1.01314
1.01779
1.02294
1.02867
1.03504
1.04215
1.05025
1.00164
1.00511
1.00893
1.01314
1.01779
1.02294
1.02867
1.03505
1.04215
1.05025
1.00164
1.00511
1.00893
1.01314
1.01779
1.02294
1.02866
1.03505
1.04215
1.05024
1.00164
1.00511
1.00893
1.01314
1.01779
1.02294
1.02866
1.03505
1.04215
1.05023
1.00164
1.00511
1.00893
1.01314
1.01779
1.02294
1.02866
1.03506
1.04215
1.05023
1.00164
1.00511
1.00893
1.01314
1.01779
1.02294
1.02866
1.03506
1.04215
1.05022
1.00164
1.00511
1.00893
1.01314
1.01779
1.02295
1.02866
1.03506
1.04214
1.05023
1.00164
1.00511
1.00893
1.01314
1.01779
1.02295
1.02866
1.03506
1.04214
1.05023
1.00164
1.00511
1.00893
1.01314
1.01779
1.02294
1.02866
1.03506
1.04215
1.05022
1.00164
1.00511
1.00893
1.01314
1.01779
1.02294
1.02866
1.03506
1.04215
1.05023
1.00164
1.00511
1.00893
1.01314
1.01779
1.02294
1.02866
1.03505
1.04215
1.05023
1.00164
1.00511
1.00893
1.01314
1.01779
1.02294
1.02866
1.03505
1.04215
1.05024
1.00164
1.00511
1.00893
1.01314
1.01779
1.02294
1.02867
1.03505
1.04215
1.05025
1.00164
1.00511
1.00893
1.01314
1.01779
1.02294
1.02867
1.03504
1.04215
1.05025
1.00164
1.00511
1.00893
1.01314
1.01779
1.02294
1.02867
1.03504
1.04216
1.05024
1.00164
1.00511
1.00893
1.01314
1.01779
1.02294
1.02867
1.03503
1.04218
1.05023
1.00164
1.00511
1.00893
1.01314
1.01779
1.02294
1.02867
1.03503
1.04219
1.05021
1.00164
1.00511
1.00893
1.01314
1.01778
1.02295
1.02867
1.03503
1.04221
1.05019
1.00164
1.00511
1.00893
1.01314
1.01778
1.02295
1.02866
1.03503
1.04222
1.05018
1.00164
1.00511
1.00893
1.01314
1.01778
1.02295
1.02866
1.03503
1.04222
1.05017
1.00164
1.00511
1.00893
1.01314
1.01778
1.02295
1.02865
1.03505
1.04222
1.05017
1.00164
1.00511
1.00893
1.01314
1.01778
1.02295
1.02865
1.03506
1.0422
1.05019
1.00164
1.00511
1.00893
1.01314
1.01778
1.02295
1.02864
1.03508
1.04218
1.05017
1.00164
1.00511
1.00893
1.01314
1.01778
1.02295
1.02864
1.03509
1.04216
1.05016
1.00164
1.00511
1.00893
1.01314
1.01778
1.02295
1.02864
1.03511
1.04213
1.05015
1.00164
1.00511
1.00893
1.01314
1.01778
1.02295
1.02863
1.03511
1.0421
1.05016
1.00164
1.00511
1.00893
1.01314
1.01778
1.02295
1.02863
1.03512
1.04207
1.05019
1.05478
1.05543
1.05613
1.05689
1.05771
1.05859
1.05956
1.06059
1.06174
1.06297
1.05476
1.05541
1.05612
1.05688
1.05771
1.0586
1.05957
1.06061
1.06175
1.06298
1.05477
1.05541
1.05612
1.05688
1.05771
1.0586
1.05957
1.06062
1.06176
1.06298
1.05477
1.05541
1.05611
1.05688
1.0577
1.0586
1.05957
1.06062
1.06176
1.06298
1.05478
1.05542
1.05612
1.05688
1.0577
1.0586
1.05957
1.06062
1.06176
1.06297
1.05478
1.05542
1.05611
1.05687
1.05769
1.05858
1.05955
1.0606
1.06174
1.06297
1.05478
1.05541
1.0561
1.05686
1.05768
1.05857
1.05953
1.06059
1.06173
1.06296
1.05476
1.0554
1.0561
1.05685
1.05767
1.05856
1.05952
1.06057
1.0617
1.06295
1.05474
1.05538
1.05608
1.05683
1.05765
1.05853
1.0595
1.06055
1.06168
1.06295
1.05471
1.05535
1.05605
1.0568
1.05762
1.05851
1.05948
1.06053
1.06166
1.06295
1.05468
1.05532
1.05602
1.05678
1.0576
1.05849
1.05946
1.06051
1.06164
1.06296
1.05466
1.0553
1.056
1.05675
1.05758
1.05847
1.05945
1.0605
1.06163
1.06297
1.05464
1.05528
1.05598
1.05674
1.05757
1.05845
1.05943
1.06047
1.06162
1.06294
1.05465
1.05529
1.05598
1.05674
1.05756
1.05844
1.05941
1.06045
1.06162
1.06281
1.05467
1.0553
1.05599
1.05674
1.05756
1.05844
1.05941
1.06044
1.06164
1.06263
1.05466
1.05529
1.05599
1.05674
1.05756
1.05845
1.05941
1.06045
1.0617
1.06263
1.05466
1.0553
1.05599
1.05675
1.05758
1.05848
1.05948
1.06053
1.06184
1.06276
1.05467
1.05532
1.05603
1.0568
1.05765
1.05857
1.05959
1.06066
1.06202
1.06295
1.05471
1.05537
1.05609
1.05688
1.05775
1.05869
1.05973
1.06087
1.06222
1.0632
1.05479
1.05546
1.0562
1.05701
1.0579
1.05888
1.05997
1.0612
1.06237
1.06661
)
;

boundaryField
{
    inlet
    {
        type            fixedValue;
        value           uniform 1;
    }
    outlet
    {
        type            zeroGradient;
    }
    triangle
    {
        type            zeroGradient;
    }
    top
    {
        type            symmetryPlane;
    }
    bottom
    {
        type            symmetryPlane;
    }
    defaultFaces
    {
        type            empty;
    }
}


// ************************************************************************* //
