/*--------------------------------*- C++ -*----------------------------------*\
  =========                 |
  \\      /  F ield         | OpenFOAM: The Open Source CFD Toolbox
   \\    /   O peration     | Website:  https://openfoam.org
    \\  /    A nd           | Version:  8
     \\/     M anipulation  |
\*---------------------------------------------------------------------------*/
FoamFile
{
    version     2.0;
    format      ascii;
    class       volScalarField;
    location    "5.2";
    object      rho;
}
// * * * * * * * * * * * * * * * * * * * * * * * * * * * * * * * * * * * * * //

dimensions      [1 -3 0 0 0 0 0];

internalField   nonuniform List<scalar> 
2600
(
1.11047
1.08013
1.03514
0.949414
0.913858
1.11938
1.56592
1.86302
1.96388
2.37603
1.08054
1.04073
0.996515
0.909701
0.865181
1.07041
1.52793
1.85317
1.97415
2.36596
1.07531
1.03127
0.98495
0.895916
0.835176
1.0345
1.49041
1.84753
1.984
2.35889
1.07359
1.02997
0.98117
0.890537
0.81769
1.01919
1.45805
1.841
1.98842
2.35063
1.07384
1.02934
0.98196
0.891161
0.812083
1.01952
1.43016
1.82847
1.98248
2.34057
1.07584
1.02956
0.985873
0.898004
0.819887
1.02726
1.40071
1.81002
1.97169
2.32897
1.07515
1.02994
0.992308
0.910638
0.839504
1.04351
1.37147
1.77274
1.95902
2.31746
1.07271
1.02922
0.994936
0.925926
0.87051
1.06298
1.33267
1.73216
1.94452
2.30775
1.06968
1.02498
0.991943
0.940153
0.910949
1.08686
1.29573
1.68436
1.94416
2.29691
1.06552
1.01734
0.983464
0.951352
0.96131
1.11493
1.24947
1.63507
1.94653
2.29197
1.06122
1.00536
0.971981
0.963368
1.01459
1.14436
1.20783
1.58652
1.96063
2.29035
1.05603
0.992042
0.957147
0.976254
1.06772
1.17162
1.16657
1.54542
1.97745
2.29645
1.05317
0.97667
0.939729
0.98437
1.11187
1.19761
1.13244
1.51627
2.00499
2.29921
1.04901
0.96111
0.923171
0.991786
1.15164
1.21994
1.10928
1.49956
2.04294
2.30959
1.04744
0.946442
0.907474
0.999196
1.1838
1.23554
1.0953
1.49329
2.08788
2.32026
1.04328
0.935604
0.894637
1.00664
1.20751
1.24358
1.08974
1.49221
2.14453
2.33959
1.03987
0.930633
0.88728
1.02075
1.22206
1.24481
1.0893
1.49583
2.20546
2.36362
1.03881
0.930315
0.89345
1.03755
1.23562
1.24046
1.09155
1.50228
2.27344
2.39418
1.06729
0.946232
0.915524
1.06389
1.2544
1.23424
1.09015
1.50472
2.34065
2.43089
1.12102
0.976833
0.959308
1.11458
1.27346
1.23584
1.08621
1.50483
2.40439
2.47249
1.51291
1.02893
1.04329
1.19755
1.30918
1.24707
1.08331
1.5049
2.46514
2.52533
1.87504
1.13404
1.14385
1.29712
1.3685
1.26747
1.09619
1.52326
2.51901
2.58682
2.16045
1.22114
1.23557
1.38014
1.43438
1.30495
1.14191
1.56995
2.55632
2.64752
2.39133
1.3021
1.32592
1.44223
1.50297
1.36941
1.23356
1.64927
2.57997
2.70352
2.58464
1.42144
1.38838
1.4639
1.54977
1.44566
1.35172
1.75102
2.59813
2.74743
2.74364
1.57024
1.43323
1.46672
1.58275
1.52233
1.47449
1.86482
2.60852
2.78627
2.87528
1.73378
1.49045
1.4644
1.59059
1.58642
1.59025
1.97502
2.60957
2.8136
2.97665
1.88196
1.5577
1.47079
1.58882
1.6308
1.69273
2.06498
2.6064
2.83025
3.06015
2.02076
1.62272
1.49124
1.59009
1.65266
1.77865
2.13062
2.59288
2.83346
3.12917
2.14156
1.69411
1.51218
1.59158
1.66303
1.8458
2.18176
2.5767
2.82617
3.19117
2.24855
1.76373
1.52933
1.59439
1.67571
1.91053
2.2322
2.56045
2.80857
3.25202
2.35312
1.83376
1.54034
1.59222
1.68934
1.97411
2.2787
2.54847
2.78536
3.31343
2.4492
1.90414
1.55237
1.58819
1.70337
2.03068
2.32076
2.54352
2.76193
3.36028
2.54373
1.97262
1.56111
1.58508
1.72277
2.0827
2.36175
2.54508
2.74044
3.42449
2.63264
2.03996
1.5733
1.5947
1.7482
2.1276
2.40667
2.55896
2.72049
3.4815
2.72231
2.09783
1.58511
1.6069
1.77443
2.1706
2.45004
2.57639
2.70342
3.46098
2.80927
2.15805
1.6022
1.6262
1.8034
2.21139
2.46199
2.58105
2.68662
3.47272
2.89107
2.21786
1.62584
1.6613
1.83546
2.24205
2.46755
2.57605
2.66962
3.40158
2.9487
2.27647
1.6622
1.69975
1.86298
2.26569
2.46476
2.56316
2.65174
3.24588
2.97143
2.34013
1.72075
1.72941
1.8937
2.2836
2.4641
2.54431
2.63073
3.3069
4.95316
4.79476
4.58327
4.44676
4.36321
4.30526
4.24911
4.15487
3.93136
1.87704
3.83035
4.46258
4.42461
4.39663
4.35248
4.31032
4.24613
4.13373
3.8687
1.46021
2.07071
4.33144
4.56125
4.47473
4.41755
4.36265
4.28714
4.16225
3.90997
1.46141
1.4652
2.99613
4.4406
4.46696
4.4477
4.4034
4.32486
4.19586
3.96091
1.46288
1.46489
1.60626
3.59137
4.49754
4.48562
4.43661
4.36223
4.2306
4.0111
1.46348
1.46494
1.46729
1.97242
4.15685
4.50191
4.44047
4.38192
4.25875
4.04562
1.46273
1.46415
1.46536
1.47252
2.86582
4.37953
4.42802
4.37396
4.25364
4.04726
1.46195
1.46326
1.46463
1.46666
1.63819
3.72763
4.45251
4.36499
4.23652
4.04259
1.46106
1.46219
1.46361
1.46479
1.46803
2.35524
4.28403
4.34274
4.21477
4.04065
1.45994
1.46089
1.46199
1.46314
1.46457
1.53156
3.47876
4.30871
4.20186
4.03958
1.45878
1.4598
1.46087
1.4622
1.46338
1.46589
2.23622
4.1443
4.2033
4.03859
1.45796
1.45887
1.45988
1.46104
1.46217
1.46356
1.53358
3.43071
4.16547
4.03906
1.45707
1.45787
1.4588
1.45977
1.46097
1.46207
1.4656
2.35374
4.06658
4.06837
1.45639
1.45718
1.45807
1.45903
1.4602
1.46132
1.46317
1.60349
3.5365
4.03608
1.45585
1.45662
1.45746
1.45841
1.45946
1.46063
1.46176
1.47165
2.64692
3.98315
1.45541
1.45616
1.45698
1.45793
1.45891
1.46011
1.46121
1.46361
1.81357
3.65964
1.45508
1.45581
1.45662
1.45752
1.45849
1.45963
1.46079
1.46209
1.49592
3.00335
1.45482
1.45552
1.4563
1.45717
1.45812
1.45918
1.46038
1.4615
1.46618
2.37187
1.45463
1.45531
1.45608
1.45692
1.45785
1.45887
1.46006
1.4612
1.46345
1.81012
1.45449
1.45516
1.45591
1.45673
1.45764
1.45863
1.45976
1.46096
1.46242
1.51318
1.40165
1.40511
1.40893
1.41311
1.41776
1.42286
1.42856
1.43508
1.44121
1.45232
1.40165
1.40511
1.40893
1.41311
1.41776
1.42286
1.42855
1.43509
1.44119
1.45246
1.40165
1.40511
1.40893
1.41311
1.41776
1.42287
1.42854
1.43511
1.44113
1.45279
1.40165
1.40511
1.40893
1.41311
1.41776
1.42287
1.42853
1.43512
1.44103
1.45329
1.40165
1.40511
1.40893
1.41311
1.41776
1.42287
1.42851
1.43514
1.44098
1.45409
1.40165
1.40511
1.40893
1.41311
1.41776
1.42287
1.42851
1.43514
1.44097
1.45467
1.40165
1.40511
1.40893
1.41312
1.41775
1.42288
1.4285
1.43514
1.44101
1.45473
1.40165
1.40511
1.40893
1.41312
1.41775
1.42288
1.4285
1.43513
1.44108
1.45433
1.40165
1.40511
1.40892
1.41312
1.41775
1.42288
1.4285
1.43511
1.44115
1.45376
1.40165
1.40511
1.40892
1.41312
1.41775
1.42288
1.4285
1.43509
1.44123
1.45331
1.40165
1.40511
1.40892
1.41312
1.41775
1.42288
1.4285
1.43507
1.44131
1.45251
1.40165
1.40511
1.40892
1.41312
1.41775
1.42288
1.42851
1.43505
1.44139
1.45196
1.40165
1.40511
1.40892
1.41312
1.41775
1.42288
1.42851
1.43503
1.44146
1.45147
1.40165
1.40511
1.40892
1.41312
1.41775
1.42288
1.42851
1.43501
1.44153
1.45106
1.40165
1.40511
1.40892
1.41312
1.41775
1.42288
1.42852
1.43499
1.44159
1.45074
1.40165
1.40511
1.40892
1.41312
1.41775
1.42288
1.42852
1.43498
1.44165
1.45045
1.40165
1.40511
1.40892
1.41312
1.41775
1.42288
1.42852
1.43497
1.44169
1.45024
1.40165
1.40512
1.40892
1.41312
1.41775
1.42288
1.42852
1.43496
1.44173
1.45009
1.40165
1.40512
1.40892
1.41312
1.41775
1.42288
1.42852
1.43495
1.44177
1.44998
1.40165
1.40512
1.40892
1.41312
1.41774
1.42288
1.42852
1.43495
1.4418
1.44991
1.40165
1.40512
1.40892
1.41312
1.41774
1.42288
1.42852
1.43495
1.4418
1.44991
1.40165
1.40512
1.40892
1.41312
1.41775
1.42288
1.42852
1.43495
1.44177
1.44998
1.40165
1.40512
1.40892
1.41312
1.41775
1.42288
1.42852
1.43496
1.44173
1.45009
1.40165
1.40511
1.40892
1.41312
1.41775
1.42288
1.42852
1.43497
1.44169
1.45024
1.40165
1.40511
1.40892
1.41312
1.41775
1.42288
1.42852
1.43498
1.44165
1.45045
1.40165
1.40511
1.40892
1.41312
1.41775
1.42288
1.42852
1.43499
1.44159
1.45074
1.40165
1.40511
1.40892
1.41312
1.41775
1.42288
1.42851
1.43501
1.44153
1.45106
1.40165
1.40511
1.40892
1.41312
1.41775
1.42288
1.42851
1.43503
1.44146
1.45147
1.40165
1.40511
1.40892
1.41312
1.41775
1.42288
1.42851
1.43505
1.44139
1.45196
1.40165
1.40511
1.40892
1.41312
1.41775
1.42288
1.4285
1.43507
1.44131
1.45252
1.40165
1.40511
1.40892
1.41312
1.41775
1.42288
1.4285
1.43509
1.44123
1.45332
1.40165
1.40511
1.40892
1.41312
1.41775
1.42288
1.4285
1.43511
1.44115
1.45377
1.40165
1.40511
1.40893
1.41312
1.41775
1.42288
1.4285
1.43513
1.44108
1.45434
1.40165
1.40511
1.40893
1.41312
1.41775
1.42288
1.4285
1.43514
1.44101
1.45474
1.40165
1.40511
1.40893
1.41311
1.41776
1.42287
1.42851
1.43514
1.44097
1.45467
1.40165
1.40511
1.40893
1.41311
1.41776
1.42287
1.42851
1.43514
1.44098
1.45409
1.40165
1.40511
1.40893
1.41311
1.41776
1.42287
1.42853
1.43512
1.44103
1.45329
1.40165
1.40511
1.40893
1.41311
1.41776
1.42287
1.42854
1.43511
1.44113
1.4528
1.40165
1.40511
1.40893
1.41311
1.41776
1.42286
1.42855
1.43509
1.44119
1.45246
1.40165
1.40511
1.40893
1.41311
1.41776
1.42286
1.42856
1.43509
1.44122
1.45232
1.45449
1.45516
1.45591
1.45673
1.45764
1.45863
1.45976
1.46096
1.46242
1.51256
1.45463
1.45531
1.45608
1.45692
1.45785
1.45887
1.46006
1.4612
1.46345
1.80845
1.45482
1.45552
1.4563
1.45717
1.45812
1.45918
1.46038
1.4615
1.46617
2.37054
1.45508
1.45581
1.45662
1.45752
1.45849
1.45963
1.46079
1.46209
1.49583
3.0028
1.45541
1.45616
1.45698
1.45793
1.45891
1.46012
1.46122
1.46361
1.81309
3.66049
1.45585
1.45662
1.45746
1.45841
1.45946
1.46064
1.46176
1.47163
2.6466
3.9846
1.45639
1.45718
1.45807
1.45903
1.4602
1.46132
1.46317
1.60313
3.53684
4.03765
1.45707
1.45787
1.4588
1.45977
1.46097
1.46207
1.46559
2.35274
4.06617
4.07088
1.45796
1.45887
1.45989
1.46104
1.46217
1.46356
1.5334
3.42974
4.16489
4.04087
1.45878
1.45981
1.46087
1.4622
1.46338
1.46589
2.23525
4.14439
4.20263
4.03957
1.45994
1.46089
1.46199
1.46314
1.46457
1.53126
3.47765
4.30915
4.20162
4.03951
1.46106
1.4622
1.46361
1.4648
1.46803
2.35379
4.28359
4.34347
4.21499
4.04125
1.46195
1.46327
1.46464
1.46667
1.6378
3.72655
4.4525
4.36523
4.23704
4.04333
1.46274
1.46416
1.46537
1.47252
2.86485
4.37937
4.42816
4.37377
4.25404
4.0484
1.46349
1.46495
1.46731
1.97248
4.15651
4.50179
4.44053
4.38164
4.25902
4.04595
1.46289
1.4649
1.60653
3.5915
4.49733
4.48546
4.43643
4.36195
4.23052
4.0113
1.46139
1.46522
2.99702
4.44036
4.46668
4.44743
4.40307
4.32444
4.19555
3.96112
1.46023
2.07257
4.3319
4.56066
4.47424
4.41716
4.36227
4.28659
4.16193
3.91025
1.87801
3.83196
4.46206
4.42412
4.39601
4.35195
4.30983
4.24547
4.13338
3.86727
3.30825
4.953
4.79389
4.58259
4.44608
4.36263
4.30464
4.24847
4.15446
3.93087
3.26693
2.99565
2.35179
1.8085
1.56182
1.77758
2.44011
2.59557
2.5221
2.49577
3.41988
2.98823
2.29049
1.74304
1.52659
1.74195
2.42893
2.58938
2.51
2.49377
3.48924
2.93448
2.23771
1.68091
1.49517
1.70958
2.41249
2.58767
2.49935
2.49312
3.47523
2.85718
2.19036
1.61777
1.46491
1.67962
2.39677
2.59051
2.49173
2.49505
3.49315
2.772
2.1476
1.56069
1.43567
1.65339
2.3807
2.60054
2.48802
2.50167
3.43615
2.6839
2.0995
1.51096
1.41333
1.63365
2.36359
2.61174
2.48686
2.51402
3.37468
2.59249
2.04254
1.46724
1.39031
1.61782
2.34195
2.62059
2.4835
2.53008
3.33091
2.497
1.981
1.43533
1.37368
1.60506
2.31294
2.62453
2.47512
2.54744
3.27417
2.3982
1.91299
1.40728
1.35694
1.59177
2.2806
2.62207
2.45663
2.56312
3.21719
2.29246
1.84292
1.38728
1.34353
1.57787
2.24689
2.61383
2.42854
2.57548
3.16108
2.1825
1.76743
1.36815
1.33233
1.5638
2.2039
2.59981
2.39619
2.58541
3.09172
2.0635
1.6949
1.35695
1.32205
1.5503
2.15301
2.5696
2.36237
2.58937
3.01072
1.93317
1.62195
1.34332
1.31084
1.53314
2.10133
2.50015
2.32712
2.58968
2.9026
1.79879
1.5605
1.33595
1.29252
1.50798
2.04879
2.40246
2.29258
2.57717
2.76156
1.65988
1.50417
1.32816
1.268
1.47696
1.99238
2.28225
2.24415
2.55511
2.58954
1.54298
1.45479
1.30846
1.23292
1.43961
1.93124
2.15523
2.17349
2.53548
2.37603
1.44201
1.40678
1.26768
1.19048
1.39511
1.86227
2.03995
2.09025
2.50108
2.13401
1.3596
1.33036
1.1955
1.13516
1.33897
1.77849
1.95892
2.01553
2.46305
1.8383
1.27328
1.23169
1.117
1.06412
1.26954
1.69537
1.9107
1.96883
2.42432
1.4827
1.15964
1.11183
1.01841
0.978264
1.18887
1.62097
1.88165
1.95711
2.39374
1.46544
1.47047
1.47411
2.01284
4.06219
3.87391
3.4283
2.97333
2.48496
2.01858
1.46541
1.47039
1.47416
2.02771
4.0755
3.88628
3.42976
2.96592
2.47825
2.02021
1.46539
1.47023
1.47429
2.05262
4.11022
3.91713
3.43344
2.95675
2.47019
2.02454
1.46539
1.46996
1.47473
2.10507
4.15636
3.94795
3.43467
2.94685
2.46457
2.03346
1.46541
1.46962
1.47603
2.18384
4.20309
3.97666
3.43398
2.93274
2.46056
2.04739
1.46541
1.46928
1.48055
2.27249
4.23073
3.98584
3.4168
2.91141
2.46034
2.0677
1.46538
1.46901
1.49579
2.35754
4.24665
3.97183
3.38742
2.88949
2.4677
2.09543
1.4653
1.46886
1.54548
2.42465
4.22549
3.94864
3.37094
2.87584
2.4811
2.12651
1.46511
1.46956
1.67619
2.50767
4.11931
3.83104
3.30514
2.8514
2.50084
2.16408
1.46485
1.47424
1.9031
2.65956
3.90391
3.69063
3.25797
2.85019
2.52705
2.2045
1.4646
1.49828
2.16932
2.78125
3.60319
3.50781
3.14998
2.79327
2.54278
2.24501
1.46449
1.60068
2.37634
2.81028
3.27624
3.32409
3.0542
2.75108
2.55883
2.28678
1.46442
1.86095
2.51957
2.74865
2.97047
3.12281
2.93698
2.71232
2.57418
2.32881
1.46521
2.18511
2.64911
2.63741
2.70396
2.89774
2.82854
2.68605
2.58076
2.36807
1.47852
2.49216
2.75176
2.51981
2.45604
2.64371
2.74116
2.66044
2.5835
2.39905
1.60313
2.72375
2.80942
2.41463
2.23996
2.4027
2.67593
2.64066
2.57466
2.41314
1.90972
2.87103
2.76537
2.27983
2.04909
2.21394
2.61108
2.6244
2.56089
2.41834
2.21533
2.91794
2.6686
2.14415
1.8801
2.06898
2.54882
2.611
2.54765
2.43022
2.41689
2.91514
2.57125
2.02418
1.73703
1.9442
2.50506
2.6125
2.54418
2.45104
2.96672
2.96016
2.45711
1.90453
1.62379
1.83993
2.44831
2.60445
2.53478
2.4813
2.94668
2.93615
2.44483
1.8313
1.77005
1.95457
2.3043
2.46807
2.53781
2.59783
2.40549
2.89148
2.55697
1.98385
1.83595
2.04663
2.3471
2.48742
2.54738
2.5657
2.20272
2.89389
2.65489
2.13497
1.92595
2.16299
2.39521
2.49947
2.55901
2.54246
1.89851
2.84787
2.75275
2.29283
2.04374
2.30578
2.47086
2.50647
2.55377
2.51458
1.59444
2.69832
2.79639
2.4391
2.2002
2.48427
2.549
2.51812
2.53838
2.47935
1.47716
2.46714
2.7386
2.55163
2.40794
2.67691
2.64604
2.5418
2.52328
2.43702
1.46511
2.16141
2.63353
2.66829
2.67093
2.87826
2.75871
2.56944
2.51827
2.39443
1.46442
1.83882
2.50775
2.76982
2.95644
3.08633
2.88301
2.60136
2.51858
2.35196
1.4645
1.58931
2.36774
2.82333
3.27569
3.30343
3.01426
2.65145
2.51079
2.30626
1.46461
1.49553
2.15964
2.79171
3.60628
3.50527
3.12622
2.70514
2.49926
2.25926
1.46486
1.47382
1.89516
2.66161
3.90383
3.69984
3.23524
2.76487
2.4866
2.21355
1.46512
1.46952
1.67255
2.50442
4.11519
3.843
3.29825
2.80084
2.46863
2.16936
1.4653
1.46886
1.54484
2.4193
4.22078
3.95592
3.37605
2.85598
2.45899
2.13094
1.46538
1.46901
1.496
2.35166
4.24497
3.98229
3.4035
2.87547
2.45433
2.10136
1.46541
1.46928
1.48068
2.26949
4.23213
3.99607
3.4311
2.90664
2.45559
2.0781
1.4654
1.46962
1.47605
2.1832
4.20798
3.98916
3.44648
2.93426
2.46373
2.06236
1.46539
1.46996
1.4747
2.10438
4.16801
3.96606
3.44881
2.95304
2.47328
2.05264
1.46538
1.47023
1.47426
2.05138
4.12938
3.94315
3.4533
2.96874
2.48282
2.04745
1.4654
1.47039
1.47414
2.02499
4.10102
3.92053
3.45497
2.98395
2.49352
2.04608
1.46544
1.47047
1.47411
2.01012
4.09378
3.91374
3.45878
2.99508
2.5019
2.04639
1.45438
1.45504
1.45577
1.45657
1.45744
1.45841
1.45948
1.46069
1.46184
1.46602
1.4543
1.45495
1.45566
1.45644
1.45729
1.45822
1.45925
1.46037
1.46169
1.46265
1.45426
1.4549
1.4556
1.45636
1.45719
1.4581
1.4591
1.46016
1.46149
1.46241
1.45425
1.45488
1.45557
1.45631
1.45713
1.45802
1.45899
1.46003
1.46131
1.46222
1.45425
1.45488
1.45556
1.4563
1.45711
1.45798
1.45893
1.45995
1.46117
1.46209
1.45426
1.45488
1.45556
1.4563
1.4571
1.45797
1.45892
1.45994
1.46112
1.4621
1.45424
1.45487
1.45555
1.4563
1.4571
1.45798
1.45893
1.45995
1.4611
1.46227
1.45423
1.45486
1.45555
1.4563
1.45711
1.45799
1.45895
1.45997
1.4611
1.4624
1.45425
1.45488
1.45557
1.45631
1.45713
1.45801
1.45896
1.46
1.46111
1.46242
1.45427
1.4549
1.45559
1.45633
1.45714
1.45802
1.45898
1.46001
1.46112
1.46242
1.4543
1.45493
1.45561
1.45636
1.45716
1.45804
1.45899
1.46003
1.46114
1.46241
1.45433
1.45496
1.45564
1.45639
1.45719
1.45806
1.45901
1.46004
1.46116
1.4624
1.45435
1.45498
1.45566
1.45641
1.45721
1.45809
1.45903
1.46007
1.46118
1.46241
1.45436
1.45499
1.45567
1.45642
1.45722
1.4581
1.45905
1.46009
1.4612
1.46242
1.45437
1.455
1.45568
1.45642
1.45723
1.45811
1.45906
1.4601
1.46122
1.46242
1.45437
1.455
1.45569
1.45643
1.45724
1.45812
1.45908
1.46011
1.46124
1.46243
1.45436
1.45499
1.45568
1.45643
1.45725
1.45813
1.45909
1.46012
1.46124
1.46244
1.45436
1.45499
1.45569
1.45644
1.45725
1.45813
1.45909
1.46012
1.46124
1.46244
1.45435
1.45499
1.45568
1.45644
1.45725
1.45813
1.45908
1.46011
1.46123
1.46244
1.45437
1.45501
1.4557
1.45645
1.45726
1.45813
1.45908
1.46009
1.46123
1.46243
1.40165
1.40512
1.40892
1.41312
1.41774
1.42288
1.42852
1.43495
1.44183
1.44985
1.40165
1.40512
1.40892
1.41312
1.41774
1.42288
1.42853
1.43495
1.44186
1.44982
1.40165
1.40512
1.40892
1.41312
1.41774
1.42288
1.42853
1.43494
1.44189
1.44981
1.40165
1.40512
1.40892
1.41312
1.41774
1.42288
1.42853
1.43493
1.44191
1.44982
1.40165
1.40512
1.40892
1.41312
1.41774
1.42288
1.42854
1.43491
1.44194
1.44983
1.40165
1.40512
1.40892
1.41312
1.41774
1.42288
1.42854
1.4349
1.44196
1.44985
1.40165
1.40512
1.40892
1.41312
1.41774
1.42288
1.42855
1.43488
1.44197
1.44983
1.40165
1.40512
1.40892
1.41312
1.41774
1.42288
1.42855
1.43487
1.44198
1.44983
1.40165
1.40512
1.40892
1.41312
1.41775
1.42288
1.42855
1.43486
1.44198
1.44983
1.40165
1.40512
1.40892
1.41312
1.41775
1.42288
1.42856
1.43486
1.44197
1.44985
1.40165
1.40512
1.40892
1.41312
1.41775
1.42288
1.42856
1.43487
1.44195
1.44987
1.40165
1.40512
1.40892
1.41312
1.41775
1.42287
1.42856
1.43487
1.44194
1.44989
1.40165
1.40512
1.40892
1.41312
1.41775
1.42287
1.42856
1.43487
1.44192
1.4499
1.40165
1.40512
1.40892
1.41312
1.41775
1.42287
1.42856
1.43488
1.44191
1.44991
1.40165
1.40512
1.40892
1.41312
1.41775
1.42287
1.42856
1.43488
1.44191
1.44991
1.40165
1.40512
1.40892
1.41312
1.41775
1.42288
1.42855
1.43489
1.44191
1.4499
1.40165
1.40512
1.40892
1.41312
1.41775
1.42288
1.42855
1.43489
1.44191
1.44989
1.40165
1.40512
1.40892
1.41312
1.41775
1.42288
1.42855
1.43489
1.44191
1.44988
1.40165
1.40512
1.40892
1.41312
1.41775
1.42288
1.42855
1.4349
1.44191
1.44988
1.40165
1.40512
1.40892
1.41312
1.41775
1.42288
1.42855
1.4349
1.4419
1.44989
1.40165
1.40512
1.40892
1.41312
1.41775
1.42288
1.42855
1.4349
1.4419
1.44989
1.40165
1.40512
1.40892
1.41312
1.41775
1.42288
1.42855
1.43489
1.44191
1.44988
1.40165
1.40512
1.40892
1.41312
1.41775
1.42288
1.42855
1.43489
1.44191
1.44988
1.40165
1.40512
1.40892
1.41312
1.41775
1.42288
1.42855
1.43489
1.44191
1.44989
1.40165
1.40512
1.40892
1.41312
1.41775
1.42288
1.42855
1.43489
1.44191
1.4499
1.40165
1.40512
1.40892
1.41312
1.41775
1.42287
1.42856
1.43488
1.44191
1.44991
1.40165
1.40512
1.40892
1.41312
1.41775
1.42287
1.42856
1.43488
1.44191
1.44991
1.40165
1.40512
1.40892
1.41312
1.41775
1.42287
1.42856
1.43487
1.44192
1.4499
1.40165
1.40512
1.40892
1.41312
1.41775
1.42287
1.42856
1.43487
1.44194
1.44989
1.40165
1.40512
1.40892
1.41312
1.41775
1.42288
1.42856
1.43487
1.44195
1.44987
1.40165
1.40512
1.40892
1.41312
1.41775
1.42288
1.42856
1.43486
1.44197
1.44985
1.40165
1.40512
1.40892
1.41312
1.41775
1.42288
1.42855
1.43486
1.44198
1.44983
1.40165
1.40512
1.40892
1.41312
1.41774
1.42288
1.42855
1.43487
1.44198
1.44983
1.40165
1.40512
1.40892
1.41312
1.41774
1.42288
1.42855
1.43488
1.44197
1.44983
1.40165
1.40512
1.40892
1.41312
1.41774
1.42288
1.42854
1.4349
1.44196
1.44984
1.40165
1.40512
1.40892
1.41312
1.41774
1.42288
1.42854
1.43491
1.44194
1.44983
1.40165
1.40512
1.40892
1.41312
1.41774
1.42289
1.42853
1.43493
1.44191
1.44982
1.40165
1.40512
1.40892
1.41312
1.41774
1.42288
1.42853
1.43494
1.44189
1.44981
1.40165
1.40512
1.40892
1.41312
1.41774
1.42288
1.42853
1.43495
1.44186
1.44982
1.40165
1.40512
1.40892
1.41312
1.41774
1.42288
1.42852
1.43495
1.44183
1.44985
1.45437
1.45501
1.4557
1.45645
1.45726
1.45812
1.45907
1.46009
1.46122
1.46243
1.45435
1.45499
1.45568
1.45644
1.45725
1.45813
1.45908
1.46011
1.46123
1.46243
1.45436
1.45499
1.45569
1.45644
1.45725
1.45813
1.45909
1.46012
1.46124
1.46243
1.45436
1.45499
1.45568
1.45643
1.45725
1.45813
1.45909
1.46012
1.46124
1.46243
1.45437
1.455
1.45569
1.45643
1.45724
1.45813
1.45908
1.46011
1.46124
1.46243
1.45437
1.455
1.45568
1.45642
1.45723
1.45811
1.45906
1.4601
1.46122
1.46242
1.45437
1.45499
1.45567
1.45642
1.45722
1.4581
1.45905
1.46009
1.4612
1.46242
1.45435
1.45498
1.45567
1.45641
1.45721
1.45809
1.45903
1.46007
1.46118
1.46241
1.45433
1.45496
1.45565
1.45639
1.45719
1.45806
1.45901
1.46005
1.46116
1.4624
1.4543
1.45493
1.45562
1.45636
1.45717
1.45804
1.45899
1.46003
1.46114
1.46241
1.45427
1.4549
1.45559
1.45633
1.45714
1.45802
1.45898
1.46001
1.46112
1.46242
1.45425
1.45488
1.45557
1.45631
1.45713
1.45801
1.45896
1.46
1.46111
1.46242
1.45423
1.45486
1.45555
1.4563
1.45711
1.45799
1.45895
1.45997
1.46111
1.46239
1.45424
1.45487
1.45555
1.4563
1.4571
1.45798
1.45893
1.45995
1.4611
1.46227
1.45426
1.45488
1.45556
1.4563
1.4571
1.45797
1.45892
1.45994
1.46112
1.46209
1.45425
1.45488
1.45556
1.4563
1.45711
1.45798
1.45893
1.45995
1.46118
1.46209
1.45425
1.45488
1.45557
1.45631
1.45713
1.45801
1.45899
1.46003
1.46131
1.46222
1.45426
1.4549
1.4556
1.45636
1.45719
1.4581
1.4591
1.46016
1.46149
1.46241
1.4543
1.45495
1.45566
1.45644
1.45729
1.45822
1.45925
1.46037
1.46169
1.46265
1.45438
1.45504
1.45577
1.45657
1.45744
1.45841
1.45947
1.46069
1.46184
1.46596
)
;

boundaryField
{
    inlet
    {
        type            calculated;
        value           uniform 1.40001;
    }
    outlet
    {
        type            calculated;
        value           nonuniform List<scalar> 
100
(
2.59796
2.56572
2.54253
2.51466
2.47946
2.43706
2.39438
2.35186
2.30615
2.25919
2.21353
2.16938
2.13099
2.10143
2.07819
2.06248
2.05277
2.04758
2.04621
2.04651
2.52396
2.58553
2.64641
2.70264
2.7468
2.78588
2.81337
2.83012
2.83341
2.82621
2.80867
2.78546
2.76201
2.74047
2.72048
2.70341
2.68661
2.66967
2.65188
2.63093
2.37716
2.36704
2.3599
2.35155
2.34143
2.32978
2.31817
2.30837
2.2974
2.29226
2.29058
2.29651
2.29919
2.30942
2.31988
2.33902
2.36281
2.39314
2.42964
2.47114
2.49574
2.49371
2.49299
2.495
2.50174
2.51417
2.53028
2.54761
2.56327
2.57564
2.58554
2.58949
2.5898
2.57731
2.55545
2.53601
2.50185
2.46408
2.42543
2.39489
2.01874
2.02038
2.0247
2.03363
2.04753
2.06782
2.09553
2.12657
2.1641
2.20447
2.24495
2.28671
2.32877
2.36803
2.39901
2.413
2.41837
2.43036
2.45134
2.4814
)
;
    }
    triangle
    {
        type            calculated;
        value           nonuniform List<scalar> 
40
(
3.3069
4.95316
4.79476
4.58327
4.44676
4.36321
4.30526
4.24911
4.15487
3.93136
1.11047
1.08054
1.07531
1.07359
1.07384
1.07584
1.07515
1.07271
1.06968
1.06552
1.06122
1.05603
1.05317
1.04901
1.04744
1.04328
1.03987
1.03881
1.06729
1.12102
3.30825
4.953
4.79389
4.58259
4.44608
4.36263
4.30464
4.24847
4.15446
3.93087
)
;
    }
    top
    {
        type            symmetryPlane;
    }
    bottom
    {
        type            symmetryPlane;
    }
    defaultFaces
    {
        type            empty;
    }
}


// ************************************************************************* //
