/*--------------------------------*- C++ -*----------------------------------*\
  =========                 |
  \\      /  F ield         | OpenFOAM: The Open Source CFD Toolbox
   \\    /   O peration     | Website:  https://openfoam.org
    \\  /    A nd           | Version:  7
     \\/     M anipulation  |
\*---------------------------------------------------------------------------*/
FoamFile
{
    version     2.0;
    format      ascii;
    class       volVectorField;
    location    "0.1";
    object      U;
}
// * * * * * * * * * * * * * * * * * * * * * * * * * * * * * * * * * * * * * //

dimensions      [0 1 -1 0 0 0 0];

internalField   nonuniform List<vector> 
3225
(
(1.10123 -1.07002e-14 0)
(1.10074 8.54555e-15 0)
(1.10032 -1.58791e-15 0)
(1.10007 -8.03745e-16 0)
(1.10001 4.63423e-16 0)
(1.1 1.02607e-15 0)
(1.1 7.66467e-16 0)
(1.1 7.70073e-16 0)
(1.1 4.73122e-16 0)
(1.1 1.33906e-15 0)
(1.1 -7.48508e-16 0)
(1.1 -1.72702e-15 0)
(1.1 -1.52776e-15 0)
(1.1 -4.42032e-16 0)
(1.1 -4.46751e-16 0)
(1.1 3.53867e-16 0)
(1.1 7.51137e-16 0)
(1.1 1.28907e-15 0)
(1.1 -4.51061e-16 0)
(1.1 -1.37952e-16 0)
(1.1 -5.87852e-16 0)
(1.1 2.77918e-16 0)
(1.1 5.18994e-16 0)
(1.1 7.02165e-16 0)
(1.1 1.31271e-16 0)
(1.1 -1.05248e-15 0)
(1.1 3.49534e-16 0)
(1.10123 -9.68453e-15 0)
(1.10074 9.04083e-15 0)
(1.10032 -2.51796e-15 0)
(1.1 -8.25341e-16 0)
(1.1 -1.29188e-15 0)
(1.1 -9.90961e-16 0)
(1.1 -2.48914e-16 0)
(1.1 1.59191e-15 0)
(1.1 -1.28434e-16 0)
(1.1 -7.82629e-16 0)
(1.1 1.12908e-16 0)
(1.1 -1.35922e-15 0)
(1.10123 -4.7684e-15 0)
(1.10074 2.37813e-15 0)
(1.10032 -5.81478e-15 0)
(1.10007 -1.41609e-15 0)
(1.10001 8.56778e-15 0)
(1.1 -2.65358e-15 0)
(1.1 -4.59512e-16 0)
(1.1 -8.32741e-17 0)
(1.1 2.86049e-16 0)
(1.1 -4.0773e-16 0)
(1.1 -1.43987e-15 0)
(1.1 1.20767e-15 0)
(1.1 2.60952e-15 0)
(1.1 -3.7415e-16 0)
(1.1 -1.11491e-15 0)
(1.1 3.47525e-16 0)
(1.1 -6.36643e-16 0)
(1.1 -3.09004e-16 0)
(1.1 -5.88979e-16 0)
(1.1 -1.28784e-15 0)
(1.1 -7.66658e-16 0)
(1.1 -9.28034e-16 0)
(1.1 2.07629e-15 0)
(1.1 6.26963e-16 0)
(1.1 -1.14237e-15 0)
(1.1 -8.48535e-16 0)
(1.1 -2.10373e-15 0)
(1.10123 -8.39429e-15 0)
(1.10074 5.02439e-15 0)
(1.10032 -4.84974e-15 0)
(1.10007 -1.12821e-15 0)
(1.10001 9.06283e-15 0)
(1.1 -2.10845e-15 0)
(1.1 -1.87551e-15 0)
(1.1 -5.22456e-17 0)
(1.1 -3.87643e-16 0)
(1.1 -2.07714e-16 0)
(1.1 -1.42291e-15 0)
(1.1 2.1315e-15 0)
(1.1 2.78902e-15 0)
(1.1 -4.86882e-16 0)
(1.1 -1.15074e-16 0)
(1.1 -2.41286e-16 0)
(1.1 -1.7529e-15 0)
(1.1 7.91107e-16 0)
(1.1 -4.39248e-16 0)
(1.1 -1.93262e-15 0)
(1.1 -1.12269e-15 0)
(1.1 -4.33436e-16 0)
(1.1 1.65446e-15 0)
(1.1 2.17555e-16 0)
(1.1 -1.16398e-15 0)
(1.1 -1.5656e-15 0)
(1.1 -2.31861e-15 0)
(1.10123 -9.78633e-15 0)
(1.10074 6.7665e-15 0)
(1.10032 -4.12102e-15 0)
(1.10007 8.09258e-16 0)
(1.10001 7.45746e-15 0)
(1.1 -1.65165e-15 0)
(1.1 -7.06048e-16 0)
(1.1 -4.25359e-17 0)
(1.1 -1.17259e-15 0)
(1.1 -6.64384e-16 0)
(1.1 -1.27844e-15 0)
(1.1 1.29523e-15 0)
(1.1 2.57564e-15 0)
(1.1 1.14182e-16 0)
(1.1 -4.60867e-16 0)
(1.1 -2.68939e-16 0)
(1.1 -2.24201e-15 0)
(1.1 3.23966e-16 0)
(1.1 -1.44838e-15 0)
(1.1 -1.48369e-15 0)
(1.1 -8.84224e-16 0)
(1.1 -5.41622e-17 0)
(1.1 9.49557e-16 0)
(1.1 2.90917e-16 0)
(1.1 -1.49674e-15 0)
(1.1 -1.47792e-15 0)
(1.1 -1.9439e-15 0)
(1.10123 -9.96805e-15 0)
(1.10074 6.9794e-15 0)
(1.10032 -5.20324e-15 0)
(1.10007 2.16154e-15 0)
(1.10001 5.72424e-15 0)
(1.1 -1.67364e-15 0)
(1.1 -5.79109e-17 0)
(1.1 5.88383e-17 0)
(1.1 -1.87622e-15 0)
(1.1 -1.09802e-15 0)
(1.1 -1.76582e-15 0)
(1.1 6.89107e-16 0)
(1.1 2.25607e-15 0)
(1.1 -4.55535e-16 0)
(1.1 -1.08446e-15 0)
(1.1 6.61604e-16 0)
(1.1 -9.63764e-16 0)
(1.1 2.4275e-18 0)
(1.1 -1.65667e-15 0)
(1.1 -1.3797e-15 0)
(1.1 -5.14783e-16 0)
(1.1 -9.7984e-16 0)
(1.1 1.18305e-15 0)
(1.1 1.61019e-15 0)
(1.1 -1.57466e-15 0)
(1.1 -1.76479e-15 0)
(1.1 -2.3338e-15 0)
(1.10123 -6.90637e-15 0)
(1.10074 6.96655e-15 0)
(1.10032 -6.67976e-15 0)
(1.10007 1.94227e-15 0)
(1.10001 3.57361e-15 0)
(1.1 -9.4045e-16 0)
(1.1 -1.91541e-16 0)
(1.1 -4.93532e-16 0)
(1.1 -1.65585e-15 0)
(1.1 -9.17668e-16 0)
(1.1 -2.29857e-15 0)
(1.1 4.99919e-16 0)
(1.1 3.90976e-16 0)
(1.1 3.34606e-17 0)
(1.1 -5.46896e-16 0)
(1.1 5.93925e-16 0)
(1.1 3.71398e-16 0)
(1.1 9.45145e-17 0)
(1.1 -2.04339e-15 0)
(1.1 -9.8483e-16 0)
(1.1 -1.35499e-15 0)
(1.1 -1.31927e-15 0)
(1.1 7.8462e-16 0)
(1.1 1.60854e-15 0)
(1.1 1.01106e-16 0)
(1.1 -1.11268e-15 0)
(1.1 -2.16176e-15 0)
(1.10123 -3.19071e-15 0)
(1.10074 5.55993e-15 0)
(1.10032 -7.83912e-15 0)
(1.10007 1.61621e-15 0)
(1.10001 2.76991e-15 0)
(1.1 -8.75632e-16 0)
(1.1 -7.1179e-17 0)
(1.1 -5.29463e-16 0)
(1.1 -9.66548e-16 0)
(1.1 -1.41334e-15 0)
(1.1 -2.29756e-15 0)
(1.1 -9.32485e-17 0)
(1.1 -1.29071e-16 0)
(1.1 -5.30046e-16 0)
(1.1 -8.59033e-16 0)
(1.1 2.71784e-16 0)
(1.1 1.32923e-15 0)
(1.1 4.79143e-16 0)
(1.1 -1.94162e-15 0)
(1.1 -1.21515e-15 0)
(1.1 -1.50818e-15 0)
(1.1 -1.27823e-15 0)
(1.1 1.74448e-17 0)
(1.1 1.23179e-15 0)
(1.1 -2.3676e-17 0)
(1.1 -1.02102e-15 0)
(1.1 -2.19776e-15 0)
(1.10123 1.11912e-15 0)
(1.10074 4.6606e-15 0)
(1.10032 -9.05244e-15 0)
(1.10007 1.80379e-15 0)
(1.10001 2.79872e-15 0)
(1.1 -1.70261e-15 0)
(1.1 6.5193e-16 0)
(1.1 1.38768e-16 0)
(1.1 -1.41136e-15 0)
(1.1 -1.05859e-15 0)
(1.1 -2.54897e-15 0)
(1.1 -1.88368e-16 0)
(1.1 -6.51411e-16 0)
(1.1 -7.7485e-16 0)
(1.1 -5.0869e-16 0)
(1.1 6.51999e-16 0)
(1.1 2.37055e-15 0)
(1.1 7.66033e-16 0)
(1.1 -2.01665e-15 0)
(1.1 -2.02604e-15 0)
(1.1 -6.11677e-16 0)
(1.1 -1.17644e-15 0)
(1.1 -9.52952e-16 0)
(1.1 2.5661e-16 0)
(1.1 -1.2937e-16 0)
(1.1 -9.07738e-16 0)
(1.1 -2.33302e-15 0)
(1.10123 5.17586e-15 0)
(1.10074 3.99327e-15 0)
(1.10032 -8.76592e-15 0)
(1.10007 -1.22528e-15 0)
(1.10001 2.64497e-15 0)
(1.1 -3.25992e-15 0)
(1.1 3.74684e-17 0)
(1.1 8.17557e-17 0)
(1.1 -8.04092e-16 0)
(1.1 -4.99092e-16 0)
(1.1 -2.44252e-15 0)
(1.1 -1.17005e-15 0)
(1.1 -1.17874e-15 0)
(1.1 -1.01406e-15 0)
(1.1 4.87364e-16 0)
(1.1 4.97869e-16 0)
(1.1 2.39693e-15 0)
(1.1 8.56942e-16 0)
(1.1 -1.52378e-15 0)
(1.1 -1.08459e-15 0)
(1.1 -1.11757e-15 0)
(1.1 -8.02614e-16 0)
(1.1 -1.91826e-15 0)
(1.1 -1.72263e-16 0)
(1.1 7.82904e-16 0)
(1.1 -1.21957e-15 0)
(1.1 -1.28924e-15 0)
(1.10123 7.14632e-15 0)
(1.10074 3.79731e-15 0)
(1.10032 -7.86322e-15 0)
(1.10007 -1.95727e-15 0)
(1.10001 2.5294e-15 0)
(1.1 -3.12116e-15 0)
(1.1 -8.29962e-16 0)
(1.1 -1.35194e-16 0)
(1.1 -7.93914e-17 0)
(1.1 -4.64236e-16 0)
(1.1 -1.68311e-15 0)
(1.1 -1.52487e-15 0)
(1.1 -9.78475e-16 0)
(1.1 -2.68311e-16 0)
(1.1 8.53957e-16 0)
(1.1 8.49355e-16 0)
(1.1 3.50503e-15 0)
(1.1 7.78845e-16 0)
(1.1 -6.50879e-16 0)
(1.1 -5.44489e-16 0)
(1.1 -1.11094e-15 0)
(1.1 -5.64388e-16 0)
(1.1 -2.11963e-15 0)
(1.1 -4.14833e-17 0)
(1.1 6.47887e-16 0)
(1.1 -2.06261e-15 0)
(1.1 -1.37018e-15 0)
(1.10123 8.24317e-15 0)
(1.10074 2.4289e-15 0)
(1.10032 -7.70271e-15 0)
(1.10007 -1.30753e-15 0)
(1.10001 1.61793e-15 0)
(1.1 -2.52934e-15 0)
(1.1 -1.04465e-15 0)
(1.1 -3.4809e-16 0)
(1.1 -1.77933e-16 0)
(1.1 -5.70554e-16 0)
(1.1 -1.51339e-15 0)
(1.1 -1.46489e-15 0)
(1.1 -6.31243e-16 0)
(1.1 -1.30133e-16 0)
(1.1 1.4119e-15 0)
(1.1 1.08879e-15 0)
(1.1 3.10826e-15 0)
(1.1 1.1198e-15 0)
(1.1 -8.27067e-16 0)
(1.1 4.42674e-17 0)
(1.1 -8.6151e-16 0)
(1.1 -1.69255e-16 0)
(1.1 -9.16827e-16 0)
(1.1 -8.30293e-16 0)
(1.1 -3.09023e-16 0)
(1.1 -1.27726e-15 0)
(1.1 -1.41456e-15 0)
(1.10123 6.28428e-15 0)
(1.10074 1.24647e-15 0)
(1.10032 -4.68133e-15 0)
(1.10007 -1.87608e-15 0)
(1.10001 1.79772e-16 0)
(1.1 -1.63338e-15 0)
(1.1 -1.06065e-15 0)
(1.1 -6.46825e-16 0)
(1.1 -1.94447e-16 0)
(1.1 -6.1748e-16 0)
(1.1 -1.58694e-15 0)
(1.1 -9.99346e-16 0)
(1.1 1.72969e-16 0)
(1.1 -4.38667e-16 0)
(1.1 7.38457e-16 0)
(1.1 -3.3605e-16 0)
(1.1 2.20918e-15 0)
(1.1 6.54055e-16 0)
(1.1 -1.24259e-15 0)
(1.1 -3.76786e-16 0)
(1.1 -7.78383e-16 0)
(1.1 1.44879e-16 0)
(1.1 -3.92454e-16 0)
(1.1 -1.22574e-15 0)
(1.1 -4.98423e-16 0)
(1.1 -3.16132e-16 0)
(1.1 -8.71375e-16 0)
(1.10123 3.10817e-15 0)
(1.10074 1.16738e-15 0)
(1.10032 -1.78048e-15 0)
(1.10007 -6.30727e-16 0)
(1.10001 -2.83332e-15 0)
(1.1 2.22218e-16 0)
(1.1 -1.20218e-15 0)
(1.1 -7.51316e-16 0)
(1.1 -1.55306e-16 0)
(1.1 -8.17474e-16 0)
(1.1 -8.86442e-16 0)
(1.1 -3.69879e-17 0)
(1.1 8.26341e-16 0)
(1.1 -3.6914e-16 0)
(1.1 5.86156e-16 0)
(1.1 2.52874e-16 0)
(1.1 6.37996e-16 0)
(1.1 -2.74102e-16 0)
(1.1 -1.16158e-15 0)
(1.1 -1.40977e-15 0)
(1.1 -4.22866e-16 0)
(1.1 -3.47165e-16 0)
(1.1 -1.40732e-16 0)
(1.1 -3.08396e-16 0)
(1.1 -9.39625e-16 0)
(1.1 -9.22862e-16 0)
(1.1 -1.07164e-15 0)
(1.10123 -6.06624e-16 0)
(1.10074 8.22454e-16 0)
(1.10032 -5.57893e-16 0)
(1.10007 1.57163e-15 0)
(1.10001 -6.15286e-15 0)
(1.1 2.14768e-15 0)
(1.1 -1.03489e-15 0)
(1.1 -1.82451e-16 0)
(1.1 5.16644e-16 0)
(1.1 -9.59271e-16 0)
(1.1 -4.47527e-16 0)
(1.1 9.07344e-16 0)
(1.1 2.59409e-16 0)
(1.1 -1.25025e-16 0)
(1.1 1.77235e-15 0)
(1.1 1.64314e-16 0)
(1.1 -9.08238e-16 0)
(1.1 -7.98077e-16 0)
(1.1 -2.06847e-15 0)
(1.1 -8.95236e-16 0)
(1.1 -1.70888e-16 0)
(1.1 -3.76861e-16 0)
(1.1 -5.27657e-16 0)
(1.1 -1.92081e-16 0)
(1.1 -1.20102e-15 0)
(1.1 -1.83891e-15 0)
(1.1 -8.75665e-16 0)
(1.10123 -4.48067e-15 0)
(1.10074 2.66033e-15 0)
(1.10032 -1.15642e-15 0)
(1.10007 1.14354e-15 0)
(1.10001 -5.14869e-15 0)
(1.1 1.43148e-15 0)
(1.1 -4.17643e-16 0)
(1.1 -1.83702e-16 0)
(1.1 2.80587e-16 0)
(1.1 -7.6299e-16 0)
(1.1 -3.5579e-16 0)
(1.1 5.20743e-16 0)
(1.1 -4.83221e-16 0)
(1.1 1.56238e-16 0)
(1.1 1.23389e-15 0)
(1.1 6.70923e-16 0)
(1.1 -1.81897e-15 0)
(1.1 -1.06953e-15 0)
(1.1 -1.05891e-15 0)
(1.1 3.46742e-16 0)
(1.1 -1.08625e-15 0)
(1.1 -1.77203e-16 0)
(1.1 -1.06269e-15 0)
(1.1 -8.88013e-16 0)
(1.1 -8.84119e-16 0)
(1.1 -1.38026e-15 0)
(1.1 -1.74821e-16 0)
(1.10123 -6.73014e-15 0)
(1.10074 5.18388e-15 0)
(1.10032 -3.5276e-15 0)
(1.10007 3.0576e-15 0)
(1.10001 -6.16973e-15 0)
(1.1 -4.03507e-16 0)
(1.1 4.71772e-16 0)
(1.1 -2.79433e-16 0)
(1.1 -5.81402e-16 0)
(1.1 -1.22424e-15 0)
(1.1 -6.99993e-16 0)
(1.1 1.95327e-16 0)
(1.1 -1.51976e-16 0)
(1.1 9.18254e-16 0)
(1.1 2.42414e-15 0)
(1.1 1.69373e-15 0)
(1.1 -1.77564e-15 0)
(1.1 -2.17718e-15 0)
(1.1 -1.07539e-15 0)
(1.1 3.00714e-16 0)
(1.1 -1.98083e-15 0)
(1.1 -6.52973e-16 0)
(1.1 -1.209e-15 0)
(1.1 -3.24529e-16 0)
(1.1 -8.48729e-16 0)
(1.1 -1.21604e-15 0)
(1.1 3.03951e-16 0)
(1.10123 -8.925e-15 0)
(1.10074 6.58676e-15 0)
(1.10032 -3.25898e-15 0)
(1.10007 3.20301e-15 0)
(1.10001 -4.44965e-15 0)
(1.1 -6.72486e-16 0)
(1.1 9.46547e-16 0)
(1.1 -8.22422e-16 0)
(1.1 -4.65627e-16 0)
(1.1 -7.28214e-16 0)
(1.1 -1.14343e-15 0)
(1.1 2.8232e-17 0)
(1.1 -2.84398e-17 0)
(1.1 1.89436e-16 0)
(1.1 1.50973e-15 0)
(1.1 1.16281e-15 0)
(1.1 -7.96127e-16 0)
(1.1 -2.01318e-15 0)
(1.1 -1.64756e-15 0)
(1.1 -2.4761e-16 0)
(1.1 -9.83616e-16 0)
(1.1 -7.89718e-16 0)
(1.1 -1.42536e-15 0)
(1.1 -7.74332e-16 0)
(1.1 -9.18188e-16 0)
(1.1 -7.94172e-16 0)
(1.1 5.04462e-16 0)
(1.10123 -1.00719e-14 0)
(1.10074 6.89702e-15 0)
(1.10032 -2.01356e-15 0)
(1.10007 1.65849e-15 0)
(1.10001 -2.18763e-15 0)
(1.1 -1.20063e-15 0)
(1.1 7.8976e-16 0)
(1.1 -7.7365e-16 0)
(1.1 -7.23195e-16 0)
(1.1 2.5781e-17 0)
(1.1 -8.23251e-16 0)
(1.1 -1.47786e-15 0)
(1.1 1.31099e-15 0)
(1.1 -6.42477e-16 0)
(1.1 5.65317e-17 0)
(1.1 6.163e-16 0)
(1.1 -5.35208e-16 0)
(1.1 -3.78846e-16 0)
(1.1 -1.04598e-15 0)
(1.1 -2.39322e-17 0)
(1.1 -8.80142e-17 0)
(1.1 -4.21806e-17 0)
(1.1 -9.54091e-16 0)
(1.1 -1.02557e-15 0)
(1.1 -2.4115e-16 0)
(1.1 2.71864e-16 0)
(1.1 1.34288e-15 0)
(1.10123 -7.80972e-15 0)
(1.10074 5.83267e-15 0)
(1.10032 -3.86152e-16 0)
(1.10007 6.16262e-16 0)
(1.10001 7.98494e-16 0)
(1.1 -2.51307e-15 0)
(1.1 2.64137e-16 0)
(1.1 -5.30462e-16 0)
(1.1 -5.41326e-16 0)
(1.1 2.16432e-16 0)
(1.1 -6.59378e-16 0)
(1.1 -1.79144e-15 0)
(1.1 2.21678e-15 0)
(1.1 -8.99407e-16 0)
(1.1 7.32904e-16 0)
(1.1 -2.14714e-16 0)
(1.1 3.84815e-16 0)
(1.1 -2.59048e-16 0)
(1.1 2.67973e-16 0)
(1.1 7.49305e-17 0)
(1.1 -3.90928e-17 0)
(1.1 3.4901e-16 0)
(1.1 -6.79907e-16 0)
(1.1 -1.34741e-16 0)
(1.1 -6.33739e-16 0)
(1.1 5.96309e-16 0)
(1.1 9.82745e-16 0)
(1.10123 -4.71532e-15 0)
(1.10074 5.10323e-15 0)
(1.10032 7.50812e-16 0)
(1.10007 -7.55102e-16 0)
(1.10001 1.99049e-15 0)
(1.1 -2.45908e-15 0)
(1.1 -2.18678e-16 0)
(1.1 -4.8727e-16 0)
(1.1 9.88733e-17 0)
(1.1 3.7297e-16 0)
(1.1 -6.12332e-16 0)
(1.1 -1.74538e-15 0)
(1.1 2.29071e-15 0)
(1.1 -1.03941e-15 0)
(1.1 3.4954e-16 0)
(1.1 -9.88424e-17 0)
(1.1 6.37503e-16 0)
(1.1 3.95241e-16 0)
(1.1 1.64935e-15 0)
(1.1 4.49757e-17 0)
(1.1 6.65688e-17 0)
(1.1 8.74381e-16 0)
(1.1 6.59532e-17 0)
(1.1 6.09141e-16 0)
(1.1 -6.19214e-16 0)
(1.1 2.30885e-16 0)
(1.1 -7.44555e-17 0)
(1.10123 -1.8046e-15 0)
(1.10074 4.96681e-15 0)
(1.10032 1.64447e-15 0)
(1.10007 -9.23946e-16 0)
(1.10001 1.37829e-15 0)
(1.1 -2.24291e-15 0)
(1.1 -1.35134e-16 0)
(1.1 -9.52771e-16 0)
(1.1 -9.59836e-16 0)
(1.1 -3.50827e-16 0)
(1.1 -3.85151e-16 0)
(1.1 -1.45281e-15 0)
(1.1 2.06923e-15 0)
(1.1 -1.29472e-15 0)
(1.1 -1.15662e-15 0)
(1.1 -1.23857e-15 0)
(1.1 -7.16009e-16 0)
(1.1 1.02999e-15 0)
(1.1 2.89735e-15 0)
(1.1 -1.96075e-16 0)
(1.1 8.40477e-17 0)
(1.1 -1.05824e-16 0)
(1.1 -9.06557e-17 0)
(1.1 3.87423e-16 0)
(1.1 -2.24633e-16 0)
(1.1 -6.68273e-17 0)
(1.1 8.78893e-16 0)
(1.10123 4.82602e-16 0)
(1.10074 4.52731e-15 0)
(1.10032 1.79719e-15 0)
(1.10007 -3.54544e-16 0)
(1.10001 -6.67714e-16 0)
(1.1 -1.34679e-15 0)
(1.1 6.32395e-16 0)
(1.1 -1.78622e-15 0)
(1.1 -1.46723e-15 0)
(1.1 -9.60564e-16 0)
(1.1 -7.69429e-16 0)
(1.1 -2.33355e-16 0)
(1.1 1.93437e-15 0)
(1.1 -1.63461e-16 0)
(1.1 -8.12818e-16 0)
(1.1 -1.0139e-15 0)
(1.1 -3.90397e-16 0)
(1.1 1.92247e-15 0)
(1.1 2.1175e-15 0)
(1.1 2.99486e-16 0)
(1.1 -5.67668e-17 0)
(1.1 -2.84334e-16 0)
(1.1 -2.70064e-18 0)
(1.1 2.8651e-16 0)
(1.1 -6.91868e-16 0)
(1.1 -1.36294e-16 0)
(1.1 3.36078e-16 0)
(1.10123 2.36524e-15 0)
(1.10074 4.76625e-15 0)
(1.10032 8.62267e-16 0)
(1.10007 -2.55371e-16 0)
(1.10001 -2.57131e-15 0)
(1.1 8.6768e-16 0)
(1.1 3.7917e-16 0)
(1.1 -2.4225e-15 0)
(1.1 -1.55879e-15 0)
(1.1 -8.27187e-16 0)
(1.1 -1.54937e-15 0)
(1.1 9.70751e-16 0)
(1.1 1.04145e-15 0)
(1.1 5.2545e-16 0)
(1.1 -5.33087e-16 0)
(1.1 -6.02474e-16 0)
(1.1 7.31564e-17 0)
(1.1 1.64715e-15 0)
(1.1 7.08323e-16 0)
(1.1 -2.03557e-16 0)
(1.1 1.47109e-15 0)
(1.1 3.02238e-16 0)
(1.1 3.06706e-16 0)
(1.1 -3.01667e-16 0)
(1.1 -1.42352e-15 0)
(1.1 -6.99285e-16 0)
(1.1 -4.8409e-16 0)
(1.10123 2.94373e-15 0)
(1.10074 6.35506e-15 0)
(1.10032 -5.17153e-17 0)
(1.10007 6.49856e-16 0)
(1.10001 -3.08212e-15 0)
(1.1 2.80666e-15 0)
(1.1 -8.55204e-16 0)
(1.1 -1.43112e-15 0)
(1.1 -1.83548e-15 0)
(1.1 -1.39107e-16 0)
(1.1 -1.29389e-15 0)
(1.1 5.40727e-16 0)
(1.1 5.90376e-16 0)
(1.1 7.82916e-16 0)
(1.1 -1.05432e-16 0)
(1.1 2.33984e-16 0)
(1.1 -6.53342e-17 0)
(1.1 8.207e-16 0)
(1.1 8.94898e-16 0)
(1.1 1.4145e-16 0)
(1.1 1.29154e-15 0)
(1.1 9.50372e-16 0)
(1.1 -2.60105e-16 0)
(1.1 -3.73702e-16 0)
(1.1 -1.53026e-15 0)
(1.1 -7.38922e-16 0)
(1.1 -1.24422e-15 0)
(1.10123 2.27828e-15 0)
(1.10074 7.08945e-15 0)
(1.10032 -1.93285e-15 0)
(1.10007 6.30575e-16 0)
(1.10001 -2.27253e-15 0)
(1.1 2.94629e-15 0)
(1.1 -1.70371e-15 0)
(1.1 -9.04734e-16 0)
(1.1 -1.31199e-15 0)
(1.1 7.06055e-16 0)
(1.1 -9.09385e-16 0)
(1.1 7.06677e-16 0)
(1.1 6.05059e-16 0)
(1.1 2.36965e-16 0)
(1.1 5.32173e-16 0)
(1.1 1.48459e-15 0)
(1.1 -3.0436e-16 0)
(1.1 2.84198e-16 0)
(1.1 9.49054e-16 0)
(1.1 -2.27075e-16 0)
(1.1 8.70305e-16 0)
(1.1 7.15753e-16 0)
(1.1 -3.11444e-16 0)
(1.1 -2.69575e-16 0)
(1.1 -8.11165e-16 0)
(1.1 -6.13446e-17 0)
(1.1 -1.61764e-15 0)
(1.10123 -4.43192e-16 0)
(1.10074 6.65217e-15 0)
(1.10032 -2.60116e-15 0)
(1.10007 -5.63324e-16 0)
(1.10001 4.25552e-16 0)
(1.1 3.54561e-16 0)
(1.1 -1.13172e-15 0)
(1.1 -2.50265e-16 0)
(1.1 -2.01873e-16 0)
(1.1 1.23168e-15 0)
(1.1 -5.54438e-16 0)
(1.1 6.94102e-16 0)
(1.1 2.70527e-16 0)
(1.1 -5.59915e-16 0)
(1.1 1.14038e-15 0)
(1.1 9.01671e-16 0)
(1.1 -2.54075e-16 0)
(1.1 5.44167e-16 0)
(1.1 2.85057e-16 0)
(1.1 -1.48733e-15 0)
(1.1 2.11147e-16 0)
(1.1 1.4306e-16 0)
(1.1 -4.56525e-17 0)
(1.1 -3.80711e-16 0)
(1.1 -4.99954e-17 0)
(1.1 5.2252e-16 0)
(1.1 -3.54441e-16 0)
(1.10123 -2.74816e-15 0)
(1.10074 5.73158e-15 0)
(1.10032 -3.76162e-15 0)
(1.10007 -2.7388e-15 0)
(1.10001 3.93621e-15 0)
(1.1 -2.5222e-15 0)
(1.1 4.921e-16 0)
(1.1 -8.57113e-16 0)
(1.1 1.20063e-16 0)
(1.1 1.31394e-15 0)
(1.1 -1.19948e-15 0)
(1.1 9.18927e-16 0)
(1.1 -1.95237e-16 0)
(1.1 -1.44015e-17 0)
(1.1 1.30543e-15 0)
(1.1 -4.09097e-16 0)
(1.1 -3.44378e-16 0)
(1.1 6.37517e-17 0)
(1.1 -3.97913e-16 0)
(1.1 -6.95285e-16 0)
(1.1 -2.25751e-16 0)
(1.1 -7.51962e-16 0)
(1.1 2.87365e-16 0)
(1.1 -3.09187e-16 0)
(1.1 -5.86336e-17 0)
(1.1 6.83063e-16 0)
(1.1 -7.62951e-16 0)
(1.10123 -5.01466e-15 0)
(1.10074 3.14729e-15 0)
(1.10032 -4.21008e-15 0)
(1.10007 -2.73202e-15 0)
(1.10001 6.93905e-15 0)
(1.1 -4.12837e-15 0)
(1.1 5.32097e-16 0)
(1.1 -6.9858e-16 0)
(1.1 7.82167e-17 0)
(1.1 1.47937e-15 0)
(1.1 -1.49972e-15 0)
(1.1 1.37479e-15 0)
(1.1 -1.30072e-18 0)
(1.1 5.26446e-16 0)
(1.1 1.13651e-15 0)
(1.1 -5.87717e-16 0)
(1.1 -1.28022e-15 0)
(1.1 -6.22126e-16 0)
(1.1 -1.35189e-15 0)
(1.1 -2.69671e-16 0)
(1.1 -2.26827e-16 0)
(1.1 -9.97653e-16 0)
(1.1 4.14291e-17 0)
(1.1 -7.51219e-16 0)
(1.1 -8.61889e-16 0)
(1.1 8.80015e-16 0)
(1.1 -1.19674e-15 0)
(1.10123 -4.8612e-15 0)
(1.10074 1.10997e-15 0)
(1.10032 -3.99558e-15 0)
(1.10007 -1.35018e-15 0)
(1.10001 7.7478e-15 0)
(1.1 -5.65893e-15 0)
(1.1 7.39e-18 0)
(1.1 -1.28151e-16 0)
(1.1 9.12008e-16 0)
(1.1 1.26443e-15 0)
(1.1 -1.02179e-15 0)
(1.1 1.89499e-15 0)
(1.1 -9.74239e-16 0)
(1.1 6.15083e-16 0)
(1.1 7.36569e-16 0)
(1.1 -7.43147e-16 0)
(1.1 -1.81763e-15 0)
(1.1 -8.236e-16 0)
(1.1 -6.71336e-16 0)
(1.1 -7.60367e-16 0)
(1.1 -1.05115e-16 0)
(1.1 -4.63138e-16 0)
(1.1 5.43944e-17 0)
(1.1 -7.5104e-16 0)
(1.1 -1.72457e-15 0)
(1.1 1.25233e-15 0)
(1.1 -3.3054e-16 0)
(1.10123 -4.37917e-15 0)
(1.10074 2.23815e-16 0)
(1.10032 -3.85706e-15 0)
(1.10007 5.4778e-16 0)
(1.10001 5.5362e-15 0)
(1.1 -4.63932e-15 0)
(1.1 -6.44123e-16 0)
(1.1 1.86277e-16 0)
(1.1 1.14332e-15 0)
(1.1 3.87105e-16 0)
(1.1 -1.35373e-15 0)
(1.1 1.91784e-15 0)
(1.1 -1.84697e-15 0)
(1.1 1.42101e-16 0)
(1.1 2.00635e-16 0)
(1.1 -1.68094e-16 0)
(1.1 -1.18549e-15 0)
(1.1 -3.91397e-16 0)
(1.1 -5.35033e-16 0)
(1.1 9.92134e-17 0)
(1.1 3.38129e-16 0)
(1.1 -6.18437e-17 0)
(1.1 4.78687e-16 0)
(1.1 2.07672e-16 0)
(1.1 -8.77921e-16 0)
(1.1 3.13579e-16 0)
(1.1 -1.10595e-16 0)
(1.10123 -3.17008e-15 0)
(1.10074 -1.42773e-15 0)
(1.10032 -5.28317e-15 0)
(1.10007 2.76547e-15 0)
(1.10001 3.48906e-15 0)
(1.1 -3.35092e-15 0)
(1.1 -9.99548e-16 0)
(1.1 3.11724e-16 0)
(1.1 1.0411e-15 0)
(1.1 1.32051e-16 0)
(1.1 -1.72065e-15 0)
(1.1 2.1042e-15 0)
(1.1 -1.94884e-15 0)
(1.1 2.70232e-16 0)
(1.1 -6.26023e-16 0)
(1.1 -8.38126e-16 0)
(1.1 -1.97775e-16 0)
(1.1 -2.32638e-16 0)
(1.1 -3.66572e-17 0)
(1.1 6.46167e-16 0)
(1.1 8.2476e-16 0)
(1.1 -8.2222e-17 0)
(1.1 1.338e-15 0)
(1.1 5.71316e-18 0)
(1.1 4.52427e-16 0)
(1.1 4.50874e-17 0)
(1.1 -6.01937e-16 0)
(1.10123 -9.80435e-16 0)
(1.10074 -2.86908e-15 0)
(1.10032 -6.42515e-15 0)
(1.10007 3.46987e-15 0)
(1.10001 1.68773e-15 0)
(1.1 -1.83445e-15 0)
(1.1 -3.8292e-16 0)
(1.1 6.18888e-17 0)
(1.1 9.4972e-16 0)
(1.1 1.66208e-16 0)
(1.1 -1.53567e-15 0)
(1.1 1.63327e-15 0)
(1.1 -1.42575e-15 0)
(1.1 2.94541e-16 0)
(1.1 -2.41357e-16 0)
(1.1 -1.11076e-15 0)
(1.1 9.80263e-16 0)
(1.1 2.67941e-16 0)
(1.1 7.44166e-16 0)
(1.1 -2.9571e-16 0)
(1.1 5.60573e-17 0)
(1.1 6.77508e-16 0)
(1.1 1.21389e-15 0)
(1.1 -7.32583e-16 0)
(1.1 8.67355e-16 0)
(1.1 6.46814e-17 0)
(1.1 -4.70485e-16 0)
(1.10123 2.44664e-15 0)
(1.10074 -2.53324e-15 0)
(1.10032 -6.14193e-15 0)
(1.10007 4.57323e-15 0)
(1.10001 8.12135e-16 0)
(1.1 -1.08942e-15 0)
(1.1 1.46232e-16 0)
(1.1 2.3959e-17 0)
(1.1 5.87546e-16 0)
(1.1 4.01324e-16 0)
(1.1 -7.78863e-16 0)
(1.1 7.7301e-16 0)
(1.1 -6.29534e-16 0)
(1.1 -1.80932e-16 0)
(1.1 3.57747e-17 0)
(1.1 -6.16895e-16 0)
(1.1 1.42668e-15 0)
(1.1 7.37755e-16 0)
(1.1 5.55882e-16 0)
(1.1 -1.07167e-15 0)
(1.1 -5.62873e-16 0)
(1.1 1.6326e-16 0)
(1.1 2.15407e-17 0)
(1.1 -8.05036e-16 0)
(1.1 3.27373e-16 0)
(1.1 1.9206e-16 0)
(1.1 6.31071e-16 0)
(1.10123 4.81711e-15 0)
(1.10074 -2.92936e-15 0)
(1.10032 -4.81646e-15 0)
(1.10007 2.95829e-15 0)
(1.10001 -1.41911e-15 0)
(1.1 1.48678e-15 0)
(1.1 6.99022e-16 0)
(1.1 -9.39086e-17 0)
(1.1 -2.11717e-16 0)
(1.1 5.43035e-16 0)
(1.1 2.3934e-16 0)
(1.1 8.80461e-16 0)
(1.1 -1.13712e-15 0)
(1.1 -1.51383e-17 0)
(1.1 -1.87564e-15 0)
(1.1 -4.40593e-16 0)
(1.1 6.78053e-16 0)
(1.1 -4.52133e-17 0)
(1.1 2.45343e-16 0)
(1.1 -7.68843e-16 0)
(1.1 -8.34169e-16 0)
(1.1 -1.49204e-15 0)
(1.1 -3.26375e-16 0)
(1.1 -4.30645e-16 0)
(1.1 1.18994e-17 0)
(1.1 7.64315e-16 0)
(1.1 6.0763e-16 0)
(1.10123 7.06039e-15 0)
(1.10074 -4.35671e-15 0)
(1.10032 -2.83374e-15 0)
(1.10007 1.37672e-15 0)
(1.10001 -3.29299e-15 0)
(1.1 3.25846e-15 0)
(1.1 4.35452e-16 0)
(1.1 1.68685e-16 0)
(1.1 1.05884e-16 0)
(1.1 1.0764e-15 0)
(1.1 1.04808e-15 0)
(1.1 1.54979e-16 0)
(1.1 -1.70463e-15 0)
(1.1 -1.0176e-17 0)
(1.1 -2.11664e-15 0)
(1.1 -6.49095e-16 0)
(1.1 4.27613e-17 0)
(1.1 3.33162e-16 0)
(1.1 4.22099e-16 0)
(1.1 -5.60353e-16 0)
(1.1 -1.20041e-15 0)
(1.1 -7.94629e-16 0)
(1.1 -1.91267e-16 0)
(1.1 -2.87294e-16 0)
(1.1 -1.04455e-16 0)
(1.1 4.98037e-16 0)
(1.1 8.92441e-16 0)
(1.10123 8.43177e-15 0)
(1.10074 -5.1783e-15 0)
(1.10032 2.41852e-16 0)
(1.10007 1.8209e-15 0)
(1.10001 -4.9284e-15 0)
(1.1 5.42456e-15 0)
(1.1 -6.2839e-16 0)
(1.1 6.9033e-16 0)
(1.1 9.78641e-16 0)
(1.1 1.49973e-15 0)
(1.1 1.59181e-15 0)
(1.1 -8.34183e-17 0)
(1.1 -1.21069e-15 0)
(1.1 -1.50224e-16 0)
(1.1 -1.63244e-15 0)
(1.1 -2.37539e-16 0)
(1.1 8.20143e-16 0)
(1.1 6.4778e-16 0)
(1.1 1.56275e-16 0)
(1.1 -8.24525e-16 0)
(1.1 -6.55759e-16 0)
(1.1 2.95262e-16 0)
(1.1 -1.0536e-15 0)
(1.1 -7.45225e-16 0)
(1.1 5.28358e-16 0)
(1.1 -9.65184e-17 0)
(1.1 1.59165e-15 0)
(1.10123 8.40539e-15 0)
(1.10074 -5.03144e-15 0)
(1.10032 1.34051e-15 0)
(1.10007 1.57884e-15 0)
(1.10001 -5.2116e-15 0)
(1.1 5.93207e-15 0)
(1.1 -2.5904e-16 0)
(1.1 4.90554e-16 0)
(1.1 1.70739e-15 0)
(1.1 1.12227e-15 0)
(1.1 1.90277e-15 0)
(1.1 -3.25937e-16 0)
(1.1 -9.30126e-16 0)
(1.1 3.33517e-17 0)
(1.1 -1.72425e-15 0)
(1.1 -1.13511e-16 0)
(1.1 1.32941e-15 0)
(1.1 1.27172e-16 0)
(1.1 5.43001e-16 0)
(1.1 -4.57766e-17 0)
(1.1 5.91472e-16 0)
(1.1 -3.08189e-16 0)
(1.1 -1.39641e-15 0)
(1.1 -1.22508e-15 0)
(1.1 1.82075e-15 0)
(1.1 6.60537e-16 0)
(1.1 1.18531e-15 0)
(1.10123 7.23536e-15 0)
(1.10074 -4.77083e-15 0)
(1.10032 2.73775e-15 0)
(1.10007 -4.19535e-16 0)
(1.10001 -5.55103e-15 0)
(1.1 6.4876e-15 0)
(1.1 -1.09877e-16 0)
(1.1 7.06416e-16 0)
(1.1 2.35808e-15 0)
(1.1 1.10285e-15 0)
(1.1 2.03265e-15 0)
(1.1 -6.42001e-16 0)
(1.1 -4.60497e-16 0)
(1.1 7.45318e-16 0)
(1.1 -1.28485e-15 0)
(1.1 -1.01664e-15 0)
(1.1 3.5146e-16 0)
(1.1 8.55899e-16 0)
(1.1 -3.32895e-16 0)
(1.1 2.50576e-17 0)
(1.1 8.54832e-16 0)
(1.1 -9.35749e-17 0)
(1.1 -1.3128e-15 0)
(1.1 3.6116e-17 0)
(1.1 2.4693e-15 0)
(1.1 8.03364e-16 0)
(1.1 8.53786e-16 0)
(1.10123 5.89461e-15 0)
(1.10074 -2.12763e-15 0)
(1.10032 1.88216e-15 0)
(1.10007 -2.33725e-15 0)
(1.10001 -2.35928e-15 0)
(1.1 3.73814e-15 0)
(1.1 4.21373e-16 0)
(1.1 1.30927e-15 0)
(1.1 1.36708e-15 0)
(1.1 1.02112e-15 0)
(1.1 1.74807e-15 0)
(1.1 -6.06052e-16 0)
(1.1 -1.1772e-16 0)
(1.1 6.49882e-16 0)
(1.1 -1.11043e-15 0)
(1.1 -7.19971e-16 0)
(1.1 5.82563e-16 0)
(1.1 1.59851e-15 0)
(1.1 -6.92646e-16 0)
(1.1 -3.33295e-16 0)
(1.1 -7.86114e-17 0)
(1.1 1.92741e-16 0)
(1.1 -6.73748e-16 0)
(1.1 8.89301e-16 0)
(1.1 2.2079e-15 0)
(1.1 4.87312e-16 0)
(1.1 4.05999e-16 0)
(1.10123 3.31137e-15 0)
(1.10074 -2.10837e-16 0)
(1.10032 8.67012e-16 0)
(1.10007 -3.39497e-15 0)
(1.10001 4.80369e-16 0)
(1.1 8.77979e-16 0)
(1.1 8.6473e-16 0)
(1.1 1.58989e-15 0)
(1.1 7.96531e-16 0)
(1.1 1.30259e-15 0)
(1.1 1.60094e-15 0)
(1.1 -8.10492e-16 0)
(1.1 -1.32263e-17 0)
(1.1 7.98637e-16 0)
(1.1 -1.22629e-15 0)
(1.1 -1.44391e-16 0)
(1.1 4.97823e-17 0)
(1.1 8.79535e-16 0)
(1.1 1.08581e-16 0)
(1.1 -1.18617e-15 0)
(1.1 -6.71187e-17 0)
(1.1 1.89532e-16 0)
(1.1 3.65764e-16 0)
(1.1 1.06644e-15 0)
(1.1 1.95086e-15 0)
(1.1 8.20364e-16 0)
(1.1 4.43824e-17 0)
(1.10123 9.63494e-16 0)
(1.10074 4.45471e-16 0)
(1.10032 1.88088e-15 0)
(1.10007 -4.06652e-15 0)
(1.10001 4.32963e-15 0)
(1.1 -3.24425e-15 0)
(1.1 3.02817e-16 0)
(1.1 1.34098e-15 0)
(1.1 7.14282e-16 0)
(1.1 1.30044e-15 0)
(1.1 1.73261e-15 0)
(1.1 -9.25218e-16 0)
(1.1 -4.62959e-16 0)
(1.1 4.02378e-16 0)
(1.1 -2.55664e-16 0)
(1.1 4.1284e-16 0)
(1.1 -9.04005e-16 0)
(1.1 5.23117e-16 0)
(1.1 -1.96975e-16 0)
(1.1 -2.84224e-16 0)
(1.1 -3.99405e-16 0)
(1.1 1.76802e-17 0)
(1.1 1.08279e-15 0)
(1.1 1.49642e-15 0)
(1.1 2.23944e-15 0)
(1.1 2.93763e-16 0)
(1.1 3.36052e-16 0)
(1.10123 -6.67497e-16 0)
(1.10074 7.51227e-17 0)
(1.10032 3.03466e-15 0)
(1.10007 -4.48338e-15 0)
(1.10001 5.86775e-15 0)
(1.1 -6.07484e-15 0)
(1.1 1.87417e-15 0)
(1.1 1.54131e-15 0)
(1.1 1.46011e-17 0)
(1.1 7.27646e-16 0)
(1.1 8.92701e-16 0)
(1.1 -5.46913e-16 0)
(1.1 -6.38774e-16 0)
(1.1 1.84568e-16 0)
(1.1 9.32107e-17 0)
(1.1 -7.55732e-17 0)
(1.1 -1.50682e-15 0)
(1.1 -2.4048e-16 0)
(1.1 -3.96349e-16 0)
(1.1 1.51081e-15 0)
(1.1 -1.51839e-16 0)
(1.1 8.32257e-16 0)
(1.1 1.3508e-15 0)
(1.1 2.0788e-15 0)
(1.1 2.62531e-15 0)
(1.1 3.81017e-16 0)
(1.1 1.1743e-15 0)
(1.10123 -1.33521e-15 0)
(1.10074 -1.74966e-15 0)
(1.10032 5.86445e-15 0)
(1.10007 -3.5588e-15 0)
(1.10001 5.75495e-15 0)
(1.1 -6.65098e-15 0)
(1.1 1.91029e-15 0)
(1.1 1.18923e-15 0)
(1.1 3.7454e-16 0)
(1.1 3.10048e-16 0)
(1.1 1.07535e-15 0)
(1.1 -1.35292e-16 0)
(1.1 -4.928e-16 0)
(1.1 3.08208e-16 0)
(1.1 -1.91909e-16 0)
(1.1 -1.3539e-15 0)
(1.1 -1.79156e-15 0)
(1.1 -3.82152e-16 0)
(1.1 -1.75588e-16 0)
(1.1 2.02476e-15 0)
(1.1 -2.44392e-16 0)
(1.1 1.28038e-15 0)
(1.1 1.86685e-15 0)
(1.1 3.03131e-15 0)
(1.1 2.41863e-15 0)
(1.1 1.19639e-15 0)
(1.1 9.84799e-16 0)
(1.10123 -1.36969e-15 0)
(1.10074 -3.98559e-15 0)
(1.10032 8.03892e-15 0)
(1.10007 -4.35596e-15 0)
(1.10001 5.68796e-15 0)
(1.1 -6.4796e-15 0)
(1.1 1.48523e-15 0)
(1.1 1.02407e-15 0)
(1.1 2.29923e-16 0)
(1.1 1.93313e-16 0)
(1.1 1.81341e-15 0)
(1.1 -4.77426e-16 0)
(1.1 -4.1997e-16 0)
(1.1 5.32479e-17 0)
(1.1 -4.81036e-16 0)
(1.1 -8.61304e-16 0)
(1.1 -1.07014e-15 0)
(1.1 -4.35879e-16 0)
(1.1 -3.29599e-16 0)
(1.1 1.09743e-15 0)
(1.1 -9.51921e-17 0)
(1.1 1.57143e-15 0)
(1.1 2.69943e-15 0)
(1.1 2.48389e-15 0)
(1.1 1.27176e-15 0)
(1.1 1.32523e-15 0)
(1.1 7.89793e-16 0)
(1.10123 -6.45086e-16 0)
(1.10074 -4.30921e-15 0)
(1.10032 7.97646e-15 0)
(1.10007 -1.03465e-15 0)
(1.10001 -5.04828e-16 0)
(1.1 -1.69245e-15 0)
(1.1 -8.25311e-16 0)
(1.1 1.2834e-15 0)
(1.1 -7.40421e-18 0)
(1.1 2.67689e-16 0)
(1.1 2.26744e-15 0)
(1.1 8.07038e-16 0)
(1.1 -7.16947e-16 0)
(1.1 1.91568e-16 0)
(1.1 3.84175e-16 0)
(1.1 -2.72189e-16 0)
(1.1 -2.35275e-16 0)
(1.1 -9.36944e-16 0)
(1.1 7.196e-16 0)
(1.1 4.3737e-16 0)
(1.1 4.28264e-16 0)
(1.1 1.72141e-15 0)
(1.1 2.56517e-15 0)
(1.1 6.83913e-16 0)
(1.1 4.59608e-16 0)
(1.1 1.19949e-15 0)
(1.1 5.30511e-16 0)
(1.10123 9.09734e-16 0)
(1.10074 -5.15656e-15 0)
(1.10032 6.33299e-15 0)
(1.10007 3.06831e-15 0)
(1.10001 -5.22091e-15 0)
(1.1 1.01805e-15 0)
(1.1 -6.71574e-16 0)
(1.1 8.08991e-17 0)
(1.1 3.80227e-16 0)
(1.1 4.37908e-16 0)
(1.1 1.94212e-15 0)
(1.1 1.09047e-15 0)
(1.1 -1.17921e-15 0)
(1.1 3.48812e-16 0)
(1.1 5.89788e-16 0)
(1.1 -1.27222e-15 0)
(1.1 -9.0756e-16 0)
(1.1 -6.39122e-16 0)
(1.1 3.96518e-16 0)
(1.1 1.26207e-15 0)
(1.1 8.29481e-16 0)
(1.1 1.45462e-15 0)
(1.1 1.52646e-15 0)
(1.1 1.67772e-15 0)
(1.1 -3.15002e-16 0)
(1.1 8.96846e-17 0)
(1.1 3.91417e-16 0)
(1.10123 2.44333e-15 0)
(1.10074 -4.90178e-15 0)
(1.10032 4.61608e-15 0)
(1.10007 3.67153e-15 0)
(1.10001 -5.69159e-15 0)
(1.1 2.92812e-15 0)
(1.1 5.9347e-16 0)
(1.1 -7.71496e-16 0)
(1.1 -4.5556e-16 0)
(1.1 2.01782e-16 0)
(1.1 2.07709e-15 0)
(1.1 2.01177e-18 0)
(1.1 -1.36159e-15 0)
(1.1 3.04207e-16 0)
(1.1 1.92158e-16 0)
(1.1 -1.95715e-15 0)
(1.1 -1.13092e-15 0)
(1.1 6.38679e-16 0)
(1.1 -3.59025e-16 0)
(1.1 1.91406e-15 0)
(1.1 1.47378e-15 0)
(1.1 8.23456e-16 0)
(1.1 9.20041e-16 0)
(1.1 2.51009e-15 0)
(1.1 2.85426e-16 0)
(1.1 -1.37554e-16 0)
(1.1 5.70515e-16 0)
(1.10123 1.82586e-15 0)
(1.10074 -4.89618e-15 0)
(1.10032 2.0882e-15 0)
(1.10007 5.20939e-15 0)
(1.10001 -6.17082e-15 0)
(1.1 3.82832e-15 0)
(1.1 1.49177e-15 0)
(1.1 -1.07295e-15 0)
(1.1 9.40031e-17 0)
(1.1 1.59866e-16 0)
(1.1 1.71437e-15 0)
(1.1 6.85738e-16 0)
(1.1 -9.0051e-16 0)
(1.1 -9.98133e-16 0)
(1.1 -4.22159e-16 0)
(1.1 -1.51928e-15 0)
(1.1 1.24846e-16 0)
(1.1 1.1651e-15 0)
(1.1 -3.66277e-16 0)
(1.1 1.76431e-16 0)
(1.1 1.62344e-15 0)
(1.1 9.35294e-17 0)
(1.1 6.23242e-16 0)
(1.1 1.7895e-15 0)
(1.1 8.65637e-16 0)
(1.1 -8.25865e-16 0)
(1.1 8.54264e-16 0)
(1.10123 3.06646e-15 0)
(1.10074 -4.18332e-15 0)
(1.10032 1.06837e-15 0)
(1.10007 4.0574e-15 0)
(1.10001 -6.38283e-15 0)
(1.1 3.19718e-15 0)
(1.1 1.48717e-15 0)
(1.1 -1.18324e-15 0)
(1.1 1.10924e-15 0)
(1.1 -1.19128e-16 0)
(1.1 9.09845e-16 0)
(1.1 1.54465e-15 0)
(1.1 -7.86544e-17 0)
(1.1 -1.19731e-15 0)
(1.1 -4.24705e-16 0)
(1.1 -8.74926e-16 0)
(1.1 -6.95868e-16 0)
(1.1 3.93833e-16 0)
(1.1 -7.65906e-16 0)
(1.1 6.71197e-16 0)
(1.1 1.0415e-15 0)
(1.1 -9.05223e-16 0)
(1.1 3.57149e-17 0)
(1.1 7.9668e-16 0)
(1.1 1.39779e-15 0)
(1.1 -5.21174e-16 0)
(1.1 1.32359e-16 0)
(1.10123 5.13983e-15 0)
(1.10074 -3.29196e-15 0)
(1.10032 -1.88635e-15 0)
(1.10007 5.72258e-15 0)
(1.10001 -5.90746e-15 0)
(1.1 3.08466e-15 0)
(1.1 6.83294e-16 0)
(1.1 -9.84731e-16 0)
(1.1 1.34114e-16 0)
(1.1 -1.57854e-16 0)
(1.1 5.7422e-16 0)
(1.1 2.13206e-15 0)
(1.1 3.11884e-17 0)
(1.1 -2.34276e-16 0)
(1.1 -3.72936e-16 0)
(1.1 -1.88034e-16 0)
(1.1 -8.54872e-16 0)
(1.1 -9.86486e-17 0)
(1.1 -1.18467e-15 0)
(1.1 5.5259e-16 0)
(1.1 -3.07912e-16 0)
(1.1 -1.33093e-15 0)
(1.1 -3.65648e-16 0)
(1.1 1.72591e-16 0)
(1.1 1.76443e-15 0)
(1.1 9.57586e-16 0)
(1.1 -1.58338e-17 0)
(1.10123 7.9646e-15 0)
(1.10074 -1.93421e-15 0)
(1.10032 -3.76232e-15 0)
(1.10007 3.56781e-15 0)
(1.10001 -2.58851e-15 0)
(1.1 2.49382e-15 0)
(1.1 -4.29243e-16 0)
(1.1 -3.67874e-16 0)
(1.1 -1.70448e-16 0)
(1.1 8.14765e-17 0)
(1.1 2.70774e-16 0)
(1.1 3.14923e-15 0)
(1.1 2.88994e-16 0)
(1.1 -4.53281e-17 0)
(1.1 1.05667e-16 0)
(1.1 1.42267e-16 0)
(1.1 -8.41559e-16 0)
(1.1 -6.81461e-17 0)
(1.1 1.01642e-16 0)
(1.1 -8.54761e-16 0)
(1.1 -8.48828e-16 0)
(1.1 -4.05496e-16 0)