/*--------------------------------*- C++ -*----------------------------------*\
  =========                 |
  \\      /  F ield         | OpenFOAM: The Open Source CFD Toolbox
   \\    /   O peration     | Website:  https://openfoam.org
    \\  /    A nd           | Version:  8
     \\/     M anipulation  |
\*---------------------------------------------------------------------------*/
FoamFile
{
    version     2.0;
    format      ascii;
    class       volScalarField;
    location    "1.1";
    object      rho;
}
// * * * * * * * * * * * * * * * * * * * * * * * * * * * * * * * * * * * * * //

dimensions      [1 -3 0 0 0 0 0];

internalField   nonuniform List<scalar> 
2600
(
0.801053
0.85006
0.837308
0.869591
0.984213
1.08738
1.15376
1.38222
1.97127
2.78559
0.858088
0.806706
0.804884
0.851172
0.958839
1.05127
1.11563
1.32641
1.90686
2.77772
0.831062
0.778613
0.777749
0.828618
0.925494
1.00827
1.07109
1.26756
1.84166
2.7502
0.842629
0.771322
0.764338
0.812581
0.891257
0.960657
1.02485
1.21342
1.78016
2.70598
0.855026
0.773845
0.758221
0.797412
0.862511
0.925858
0.992653
1.17867
1.74276
2.65746
0.868503
0.778498
0.755277
0.791383
0.849777
0.905405
0.975716
1.16676
1.73325
2.61273
0.874217
0.778785
0.753423
0.794917
0.849266
0.900778
0.975269
1.17185
1.74613
2.58004
0.871369
0.778375
0.75608
0.801235
0.853065
0.903444
0.982498
1.18646
1.78037
2.56888
0.866495
0.776518
0.758841
0.808573
0.858173
0.908834
0.994112
1.20556
1.81328
2.57496
0.862113
0.776019
0.761129
0.812243
0.860369
0.911518
1.00017
1.21483
1.82773
2.5791
0.862158
0.776078
0.761332
0.81232
0.860231
0.911898
1.00085
1.2122
1.82579
2.57735
0.866657
0.776824
0.759226
0.809424
0.857583
0.907493
0.993824
1.20333
1.81205
2.57341
0.871554
0.778737
0.756871
0.802105
0.852585
0.903009
0.982374
1.18623
1.78124
2.56911
0.874376
0.779055
0.754333
0.796139
0.848275
0.899505
0.974706
1.1737
1.74801
2.5811
0.868624
0.778887
0.756403
0.79258
0.848587
0.904338
0.975466
1.17006
1.73474
2.6122
0.855122
0.774159
0.759358
0.798443
0.86128
0.925092
0.992768
1.18066
1.74284
2.65544
0.842703
0.771693
0.76535
0.813447
0.889836
0.960007
1.02609
1.21414
1.77933
2.70599
0.831227
0.779201
0.778493
0.829642
0.92428
1.00752
1.07223
1.26787
1.8424
2.75093
0.858292
0.807309
0.805793
0.852587
0.958359
1.05021
1.11611
1.32849
1.90855
2.7769
0.80109
0.850946
0.838512
0.870973
0.983852
1.08565
1.15418
1.38518
1.97204
2.78403
1.34954
0.906496
0.874423
0.896032
0.999464
1.11363
1.19017
1.43864
2.04029
2.78645
1.96292
1.03542
0.892907
0.917063
1.01009
1.13067
1.22242
1.4906
2.12194
2.79733
2.36174
1.21137
0.912848
0.93797
1.01844
1.13872
1.24733
1.53931
2.2086
2.82186
2.63358
1.41506
0.948563
0.971913
1.02818
1.13658
1.26854
1.59241
2.30191
2.85971
2.81216
1.60431
1.01589
0.998571
1.03164
1.12424
1.27265
1.6507
2.397
2.90137
2.95314
1.77305
1.12518
1.00877
1.03201
1.10207
1.26509
1.70907
2.4851
2.93543
3.0653
1.92072
1.24863
1.02739
1.04083
1.09991
1.26223
1.76651
2.56532
2.95548
3.16981
2.04894
1.37038
1.07463
1.05623
1.09943
1.26601
1.83
2.61957
2.95043
3.2607
2.17319
1.47775
1.1414
1.07057
1.10821
1.27473
1.89021
2.67268
2.93574
3.3486
2.28975
1.59206
1.21955
1.09148
1.12411
1.27946
1.93434
2.70408
2.91448
3.43153
2.39848
1.70058
1.30221
1.11233
1.14033
1.28
1.95828
2.70764
2.88706
3.52359
2.50744
1.81134
1.38621
1.13356
1.15698
1.27628
1.96283
2.69933
2.85816
3.59642
2.63067
1.91513
1.46335
1.15655
1.17944
1.26439
1.94969
2.67974
2.83392
3.54943
2.75155
2.00799
1.53622
1.19796
1.19569
1.2691
1.9285
2.65828
2.8097
3.57214
2.87617
2.10513
1.60559
1.26103
1.20238
1.27197
1.88854
2.63225
2.78848
3.47066
2.95824
2.19109
1.67381
1.33203
1.2175
1.2875
1.91009
2.60347
2.76331
3.27145
3.01257
2.28087
1.7471
1.40639
1.23887
1.30707
1.90691
2.57042
2.73153
3.07467
2.97254
2.37006
1.83046
1.47776
1.26632
1.33648
1.90208
2.55176
2.69701
2.85022
2.92417
2.44761
1.91376
1.54906
1.30158
1.37496
1.90402
2.54454
2.66377
2.61422
2.90147
2.50806
1.99768
1.6138
1.33802
1.42156
1.91452
2.54179
2.63735
2.03936
2.63584
3.46935
5.9699
6.82274
5.77379
5.18333
4.92346
4.81042
4.7001
1.39675
1.41032
1.44897
2.95644
5.20973
4.98803
4.94322
4.87742
4.79964
4.67246
1.40075
1.40078
1.40083
1.45138
4.07099
5.06382
4.9208
4.84802
4.76974
4.62194
1.4007
1.40077
1.40086
1.40107
2.40533
4.75495
4.79103
4.72069
4.65261
4.53021
1.40069
1.40076
1.40084
1.40105
1.4273
3.75468
4.71318
4.65609
4.60984
4.48403
1.4007
1.40077
1.40087
1.40099
1.40123
2.13562
4.5215
4.63722
4.56519
4.43546
1.4007
1.40077
1.40088
1.40098
1.40118
1.41417
3.56982
4.65778
4.55917
4.41642
1.4007
1.40077
1.40085
1.40095
1.40106
1.4013
2.12995
4.4436
4.5402
4.39517
1.40064
1.40071
1.40079
1.40089
1.401
1.40123
1.42729
3.58314
4.53481
4.38713
1.4006
1.40066
1.40074
1.40082
1.40094
1.40106
1.40139
2.32065
4.3845
4.38643
1.40056
1.40061
1.40068
1.40076
1.40086
1.40097
1.40123
1.48845
3.68559
4.38346
1.40051
1.40056
1.40062
1.4007
1.40078
1.40089
1.401
1.40261
2.63718
4.29937
1.40046
1.40051
1.40056
1.40063
1.40071
1.40081
1.40091
1.4012
1.67057
3.85427
1.40041
1.40045
1.40049
1.40055
1.40063
1.40073
1.40084
1.40105
1.4143
3.04317
1.40037
1.4004
1.40045
1.4005
1.40058
1.40067
1.40079
1.40091
1.40163
2.26392
1.40033
1.40036
1.4004
1.40046
1.40052
1.40061
1.40073
1.40084
1.40112
1.57906
1.4003
1.40033
1.40037
1.40042
1.40048
1.40056
1.40066
1.40077
1.40103
1.39132
1.40027
1.4003
1.40033
1.40038
1.40043
1.40051
1.4006
1.40071
1.40096
1.39576
1.40023
1.40025
1.40029
1.40033
1.40038
1.40044
1.40052
1.40063
1.40084
1.39962
1.40019
1.40021
1.40024
1.40028
1.40032
1.40038
1.40045
1.40054
1.4007
1.40074
1.40001
1.40001
1.40001
1.40001
1.40001
1.40001
1.40001
1.40001
1.4
1.40045
1.40001
1.40001
1.40001
1.40001
1.40001
1.40001
1.40001
1.40001
1.4
1.40047
1.40001
1.40001
1.40001
1.40001
1.40001
1.40001
1.40001
1.40001
1.4
1.40043
1.40001
1.40001
1.40001
1.40001
1.40001
1.40001
1.40001
1.40001
1.4
1.40042
1.40001
1.40001
1.40001
1.40001
1.40001
1.40001
1.40001
1.40001
1.4
1.40041
1.40001
1.40001
1.40001
1.40001
1.40001
1.40001
1.40001
1.40001
1.4
1.40041
1.40001
1.40001
1.40001
1.40001
1.40001
1.40001
1.40001
1.40001
1.4
1.40041
1.40001
1.40001
1.40001
1.40001
1.40001
1.40001
1.40001
1.40001
1.4
1.40042
1.40001
1.40001
1.40001
1.40001
1.40001
1.40001
1.40001
1.40001
1.4
1.40039
1.40001
1.40001
1.40001
1.40001
1.40001
1.40001
1.40001
1.40001
1.4
1.40036
1.40001
1.40001
1.40001
1.40001
1.40001
1.40001
1.40001
1.40001
1.4
1.40034
1.40001
1.40001
1.40001
1.40001
1.40001
1.40001
1.40001
1.40001
1.40001
1.40031
1.40001
1.40001
1.40001
1.40001
1.40001
1.40001
1.40001
1.40001
1.40001
1.40028
1.40001
1.40001
1.40001
1.40001
1.40001
1.40001
1.40001
1.40001
1.40001
1.40025
1.40001
1.40001
1.40001
1.40001
1.40001
1.40001
1.40001
1.40001
1.40001
1.40023
1.40001
1.40001
1.40001
1.40001
1.40001
1.40001
1.40001
1.40001
1.40001
1.4002
1.40001
1.40001
1.40001
1.40001
1.40001
1.40001
1.40001
1.40001
1.40001
1.40018
1.40001
1.40001
1.40001
1.40001
1.40001
1.40001
1.40001
1.40001
1.40001
1.40016
1.40001
1.40001
1.40001
1.40001
1.40001
1.40001
1.40001
1.40001
1.40001
1.40014
1.40001
1.40001
1.40001
1.40001
1.40001
1.40001
1.40001
1.40001
1.40001
1.40011
1.40001
1.40001
1.40001
1.40001
1.40001
1.40001
1.40001
1.40001
1.40001
1.40011
1.40001
1.40001
1.40001
1.40001
1.40001
1.40001
1.40001
1.40001
1.40001
1.40014
1.40001
1.40001
1.40001
1.40001
1.40001
1.40001
1.40001
1.40001
1.40001
1.40016
1.40001
1.40001
1.40001
1.40001
1.40001
1.40001
1.40001
1.40001
1.40001
1.40018
1.40001
1.40001
1.40001
1.40001
1.40001
1.40001
1.40001
1.40001
1.40001
1.4002
1.40001
1.40001
1.40001
1.40001
1.40001
1.40001
1.40001
1.40001
1.40001
1.40023
1.40001
1.40001
1.40001
1.40001
1.40001
1.40001
1.40001
1.40001
1.40001
1.40025
1.40001
1.40001
1.40001
1.40001
1.40001
1.40001
1.40001
1.40001
1.40001
1.40028
1.40001
1.40001
1.40001
1.40001
1.40001
1.40001
1.40001
1.40001
1.40001
1.40031
1.40001
1.40001
1.40001
1.40001
1.40001
1.40001
1.40001
1.40001
1.4
1.40034
1.40001
1.40001
1.40001
1.40001
1.40001
1.40001
1.40001
1.40001
1.4
1.40036
1.40001
1.40001
1.40001
1.40001
1.40001
1.40001
1.40001
1.40001
1.4
1.40039
1.40001
1.40001
1.40001
1.40001
1.40001
1.40001
1.40001
1.40001
1.4
1.40042
1.40001
1.40001
1.40001
1.40001
1.40001
1.40001
1.40001
1.40001
1.4
1.40041
1.40001
1.40001
1.40001
1.40001
1.40001
1.40001
1.40001
1.40001
1.4
1.40041
1.40001
1.40001
1.40001
1.40001
1.40001
1.40001
1.40001
1.40001
1.4
1.40041
1.40001
1.40001
1.40001
1.40001
1.40001
1.40001
1.40001
1.40001
1.4
1.40042
1.40001
1.40001
1.40001
1.40001
1.40001
1.40001
1.40001
1.40001
1.4
1.40043
1.40001
1.40001
1.40001
1.40001
1.40001
1.40001
1.40001
1.40001
1.4
1.40047
1.40001
1.40001
1.40001
1.40001
1.40001
1.40001
1.40001
1.40001
1.4
1.40045
1.40019
1.40021
1.40024
1.40028
1.40032
1.40038
1.40045
1.40054
1.4007
1.40074
1.40023
1.40025
1.40029
1.40033
1.40038
1.40044
1.40052
1.40063
1.40084
1.39962
1.40027
1.4003
1.40033
1.40038
1.40043
1.40051
1.4006
1.40071
1.40096
1.39576
1.4003
1.40033
1.40037
1.40042
1.40048
1.40056
1.40066
1.40077
1.40103
1.39133
1.40033
1.40036
1.4004
1.40046
1.40052
1.40061
1.40073
1.40084
1.40112
1.57899
1.40037
1.4004
1.40045
1.4005
1.40058
1.40067
1.40079
1.40091
1.40163
2.26383
1.40041
1.40045
1.40049
1.40055
1.40063
1.40073
1.40084
1.40105
1.4143
3.04312
1.40046
1.40051
1.40056
1.40063
1.40071
1.40081
1.40091
1.4012
1.67054
3.85422
1.40051
1.40056
1.40062
1.4007
1.40078
1.40089
1.401
1.40261
2.63715
4.29935
1.40056
1.40061
1.40068
1.40076
1.40086
1.40097
1.40123
1.48847
3.68558
4.38345
1.4006
1.40066
1.40074
1.40083
1.40094
1.40106
1.4014
2.32074
4.38449
4.3864
1.40064
1.40071
1.40079
1.40089
1.401
1.40123
1.42732
3.58326
4.53481
4.3871
1.4007
1.40077
1.40085
1.40095
1.40106
1.4013
2.13022
4.44365
4.54017
4.39514
1.4007
1.40077
1.40088
1.40098
1.40118
1.4142
3.57002
4.65778
4.55915
4.41638
1.4007
1.40077
1.40087
1.40099
1.40123
2.13598
4.5215
4.63717
4.56515
4.43541
1.40069
1.40076
1.40084
1.40105
1.42735
3.75489
4.71314
4.65604
4.6098
4.48397
1.4007
1.40077
1.40086
1.40107
2.40572
4.755
4.79094
4.72064
4.65254
4.53013
1.40075
1.40078
1.40083
1.45144
4.07118
5.06382
4.9208
4.84799
4.76967
4.62184
1.39675
1.41033
1.44896
2.95683
5.20963
4.98802
4.94329
4.87741
4.79959
4.67238
2.03936
2.63584
3.46935
5.9703
6.82247
5.77364
5.18338
4.92349
4.81042
4.70008
2.61408
2.90139
2.50799
1.99751
1.6137
1.33803
1.42148
1.91416
2.54164
2.63748
2.85009
2.9241
2.44752
1.91358
1.54901
1.3018
1.3751
1.90384
2.54522
2.66343
3.07459
2.97244
2.36995
1.8303
1.47769
1.26652
1.33669
1.90209
2.55336
2.6964
3.27142
3.01257
2.28071
1.74695
1.40624
1.23951
1.30766
1.90706
2.57224
2.73121
3.47066
2.95823
2.19098
1.67363
1.33184
1.21805
1.28826
1.91038
2.60403
2.76345
3.57215
2.8762
2.10493
1.60535
1.2608
1.2032
1.27273
1.88878
2.63203
2.78878
3.54945
2.75156
2.00785
1.5359
1.19791
1.19658
1.26986
1.92848
2.65775
2.80984
3.59643
2.63063
1.91492
1.46301
1.15692
1.18
1.26505
1.94958
2.67911
2.834
3.52358
2.50741
1.81115
1.38583
1.1342
1.15762
1.27697
1.96255
2.69848
2.8581
3.43154
2.39839
1.70049
1.3018
1.11296
1.14107
1.28068
1.95803
2.70735
2.88691
3.34855
2.28967
1.59185
1.21915
1.09201
1.12484
1.28007
1.93406
2.70431
2.91453
3.26065
2.17306
1.47764
1.14116
1.07094
1.1089
1.27526
1.88979
2.67291
2.93592
3.16974
2.04884
1.37016
1.07455
1.05641
1.10021
1.26661
1.82894
2.61917
2.95083
3.06516
1.92086
1.24809
1.02736
1.04086
1.10078
1.26297
1.76502
2.56434
2.95573
2.95313
1.77296
1.12467
1.00859
1.03205
1.10364
1.26601
1.70807
2.48407
2.93528
2.81208
1.60425
1.01534
0.99816
1.03177
1.12616
1.27334
1.64973
2.39638
2.90166
2.63353
1.4149
0.947854
0.971327
1.02841
1.13879
1.26913
1.59118
2.30111
2.86014
2.36176
1.21095
0.911979
0.937265
1.0188
1.14092
1.24781
1.53837
2.20759
2.82123
1.9629
1.03483
0.891817
0.91624
1.01059
1.13259
1.22247
1.48973
2.12144
2.79584
1.34962
0.905558
0.873127
0.894959
0.999987
1.11551
1.18964
1.43669
2.0402
2.78601
1.40001
1.4
1.4
1.40476
2.43489
4.3341
4.14687
3.62318
3.06283
2.38223
1.40001
1.4
1.39999
1.40757
2.47825
4.37282
4.17216
3.63018
3.05551
2.39609
1.40001
1.40001
1.39999
1.41179
2.55205
4.47804
4.27248
3.66079
3.05901
2.35814
1.40001
1.40001
1.39999
1.42067
2.70026
4.58675
4.33587
3.67165
3.03466
2.33693
1.40001
1.40001
1.39998
1.43973
2.79734
4.70643
4.37259
3.66506
3.01781
2.31813
1.40001
1.40001
1.39998
1.48878
2.79134
4.73092
4.35379
3.60786
2.97991
2.29344
1.40001
1.40002
1.39999
1.59712
2.75727
4.67153
4.25958
3.52891
2.92461
2.26218
1.40001
1.40003
1.40039
1.76504
2.78606
4.50612
4.11997
3.4377
2.85873
2.22705
1.40001
1.40007
1.4067
1.95675
2.83427
4.22075
3.9462
3.34605
2.78433
2.1886
1.40002
1.40024
1.46053
2.15746
2.85251
3.84236
3.73451
3.24762
2.71159
2.15832
1.40002
1.40094
1.66921
2.41926
2.80911
3.45332
3.49637
3.13649
2.63431
2.13253
1.40003
1.40434
2.00234
2.67607
2.75687
3.07126
3.25842
3.01149
2.56447
2.12341
1.40005
1.42392
2.33554
2.80139
2.68875
2.70975
3.04752
2.87946
2.49652
2.13282
1.40008
1.52502
2.60528
2.83633
2.59703
2.39313
2.84187
2.73163
2.43583
2.16027
1.40011
1.82345
2.78686
2.7908
2.46936
2.14793
2.60106
2.56393
2.39379
2.22254
1.40011
2.2032
2.85914
2.71589
2.30457
1.94511
2.33853
2.41037
2.35531
2.30043
1.41557
2.53923
2.85362
2.58668
2.1332
1.76612
2.08852
2.27443
2.33287
2.39673
1.62029
2.78094
2.84253
2.47031
1.98426
1.62069
1.86747
2.13166
2.35849
2.48829
1.96145
2.88782
2.75451
2.30937
1.84508
1.50932
1.6753
2.02327
2.44176
2.55877
2.31374
2.87656
2.60068
2.12255
1.70614
1.40651
1.52037
1.94691
2.51561
2.60727
2.31361
2.87658
2.60073
2.12273
1.70626
1.40649
1.52042
1.9473
2.51638
2.6071
1.9615
2.88782
2.75454
2.30946
1.8452
1.50935
1.67546
2.02345
2.44213
2.55895
1.62042
2.78101
2.84262
2.47045
1.98435
1.62072
1.86762
2.13176
2.35873
2.48866
1.4156
2.53936
2.85378
2.58681
2.13329
1.7662
2.08869
2.27439
2.33289
2.39697
1.40011
2.20341
2.85931
2.71601
2.30463
1.94518
2.33869
2.41029
2.35523
2.30058
1.40011
1.82369
2.78703
2.79095
2.4694
2.14808
2.60124
2.56385
2.39367
2.22257
1.40008
1.52514
2.60548
2.83651
2.59708
2.39341
2.84195
2.73153
2.4357
2.16022
1.40005
1.42395
2.33583
2.8016
2.68887
2.71021
3.04756
2.8793
2.49633
2.13273
1.40003
1.40434
2.00273
2.67634
2.75717
3.07172
3.25837
3.01128
2.56425
2.1233
1.40002
1.40094
1.66959
2.41948
2.80969
3.45365
3.4963
3.13623
2.63409
2.13243
1.40002
1.40024
1.46068
2.15747
2.85324
3.84254
3.73441
3.24735
2.71138
2.15822
1.40001
1.40007
1.40672
1.95682
2.83546
4.22096
3.94604
3.34579
2.78413
2.18849
1.40001
1.40003
1.40039
1.76529
2.78737
4.50644
4.11975
3.43744
2.85855
2.22697
1.40001
1.40002
1.39999
1.59742
2.75858
4.67183
4.25928
3.52861
2.92443
2.26209
1.40001
1.40001
1.39998
1.489
2.79265
4.7313
4.35338
3.60754
2.97974
2.29336
1.40001
1.40001
1.39998
1.43985
2.79878
4.70681
4.37262
3.66484
3.01764
2.31805
1.40001
1.40001
1.39999
1.42073
2.70182
4.58707
4.3357
3.6714
3.03448
2.33684
1.40001
1.40001
1.39999
1.41183
2.55359
4.47837
4.27237
3.66056
3.0588
2.35804
1.40001
1.4
1.39999
1.40759
2.47976
4.37317
4.17208
3.62992
3.05529
2.39604
1.40001
1.4
1.4
1.40476
2.43636
4.33443
4.14679
3.62291
3.06257
2.38208
1.40015
1.40016
1.40019
1.40021
1.40025
1.40029
1.40036
1.40042
1.40054
1.40064
1.40011
1.40012
1.40013
1.40015
1.40017
1.4002
1.40024
1.40029
1.40037
1.40043
1.40007
1.40008
1.40009
1.4001
1.40011
1.40013
1.40016
1.40019
1.40024
1.40028
1.40005
1.40006
1.40006
1.40007
1.40008
1.40009
1.40011
1.40013
1.40015
1.40018
1.40003
1.40004
1.40004
1.40005
1.40005
1.40006
1.40007
1.40009
1.4001
1.40013
1.40002
1.40003
1.40003
1.40003
1.40004
1.40004
1.40005
1.40006
1.40007
1.40009
1.40002
1.40002
1.40002
1.40002
1.40002
1.40003
1.40003
1.40004
1.40005
1.40006
1.40001
1.40001
1.40001
1.40002
1.40002
1.40002
1.40002
1.40003
1.40003
1.40004
1.40001
1.40001
1.40001
1.40001
1.40001
1.40001
1.40002
1.40002
1.40002
1.40002
1.40001
1.40001
1.40001
1.40001
1.40001
1.40001
1.40001
1.40001
1.40001
1.40002
1.40001
1.40001
1.40001
1.40001
1.40001
1.40001
1.40001
1.40001
1.40001
1.40001
1.40001
1.40001
1.40001
1.40001
1.40001
1.40001
1.40001
1.40001
1.40001
1.40001
1.40001
1.40001
1.40001
1.40001
1.40001
1.40001
1.40001
1.40001
1.40001
1.40001
1.40001
1.40001
1.40001
1.40001
1.40001
1.40001
1.40001
1.40001
1.40001
1.40001
1.40001
1.40001
1.40001
1.40001
1.40001
1.40001
1.40001
1.40001
1.40001
1.40001
1.40001
1.40001
1.40001
1.40001
1.40001
1.40001
1.40001
1.40001
1.40001
1.40001
1.40001
1.40001
1.40001
1.40001
1.40001
1.40001
1.40001
1.40001
1.40001
1.40001
1.40001
1.40001
1.40001
1.40001
1.40001
1.40001
1.40001
1.40001
1.40001
1.40001
1.40001
1.40001
1.40001
1.40001
1.40001
1.40001
1.40001
1.40001
1.40001
1.40001
1.40001
1.40001
1.40001
1.40001
1.40001
1.40001
1.40001
1.40001
1.40001
1.40001
1.40001
1.40001
1.40001
1.40001
1.40001
1.40001
1.40001
1.40001
1.40001
1.40009
1.40001
1.40001
1.40001
1.40001
1.40001
1.40001
1.40001
1.40001
1.40001
1.40006
1.40001
1.40001
1.40001
1.40001
1.40001
1.40001
1.40001
1.40001
1.40001
1.40005
1.40001
1.40001
1.40001
1.40001
1.40001
1.40001
1.40001
1.40001
1.40001
1.40003
1.40001
1.40001
1.40001
1.40001
1.40001
1.40001
1.40001
1.40001
1.40001
1.40002
1.40001
1.40001
1.40001
1.40001
1.40001
1.40001
1.40001
1.40001
1.40001
1.40002
1.40001
1.40001
1.40001
1.40001
1.40001
1.40001
1.40001
1.40001
1.40001
1.40001
1.40001
1.40001
1.40001
1.40001
1.40001
1.40001
1.40001
1.40001
1.40001
1.40001
1.40001
1.40001
1.40001
1.40001
1.40001
1.40001
1.40001
1.40001
1.40001
1.40001
1.40001
1.40001
1.40001
1.40001
1.40001
1.40001
1.40001
1.40001
1.40001
1.40001
1.40001
1.40001
1.40001
1.40001
1.40001
1.40001
1.40001
1.40001
1.40001
1.40001
1.40001
1.40001
1.40001
1.40001
1.40001
1.40001
1.40001
1.40001
1.40001
1.40001
1.40001
1.40001
1.40001
1.40001
1.40001
1.40001
1.40001
1.40001
1.40001
1.40001
1.40001
1.40001
1.40001
1.40001
1.40001
1.40001
1.40001
1.40001
1.40001
1.40001
1.40001
1.40001
1.40001
1.40001
1.40001
1.40001
1.40001
1.40001
1.40001
1.40001
1.40001
1.40001
1.40001
1.40001
1.40001
1.40001
1.40001
1.40001
1.40001
1.40001
1.40001
1.40001
1.40001
1.40001
1.40001
1.40001
1.40001
1.40001
1.40001
1.40001
1.40001
1.40001
1.40001
1.40001
1.40001
1.40001
1.40001
1.40001
1.40001
1.40001
1.40001
1.40001
1.40001
1.40001
1.40001
1.40001
1.40001
1.40001
1.40001
1.40001
1.40001
1.40001
1.40001
1.40001
1.40001
1.40001
1.40001
1.40001
1.40001
1.40001
1.40001
1.40001
1.40001
1.40001
1.40001
1.40001
1.40001
1.40001
1.40001
1.40001
1.40001
1.40001
1.40001
1.40001
1.40001
1.40001
1.40001
1.40001
1.40001
1.40001
1.40001
1.40001
1.40001
1.40001
1.40001
1.40001
1.40001
1.40001
1.40001
1.40001
1.40001
1.40001
1.40001
1.40001
1.40001
1.40001
1.40001
1.40001
1.40001
1.40001
1.40001
1.40001
1.40001
1.40001
1.40001
1.40001
1.40001
1.40001
1.40001
1.40001
1.40001
1.40001
1.40001
1.40001
1.40001
1.40001
1.40001
1.40001
1.40001
1.40001
1.40001
1.40001
1.40001
1.40001
1.40001
1.40001
1.40001
1.40001
1.40001
1.40001
1.40001
1.40001
1.40001
1.40001
1.40001
1.40001
1.40001
1.40001
1.40001
1.40001
1.40001
1.40001
1.40001
1.40001
1.40001
1.40001
1.40001
1.40001
1.40001
1.40001
1.40001
1.40001
1.40001
1.40001
1.40001
1.40001
1.40001
1.40001
1.40001
1.40001
1.40001
1.40001
1.40001
1.40001
1.40001
1.40001
1.40001
1.40001
1.40001
1.40001
1.40001
1.40001
1.40001
1.40001
1.40001
1.40001
1.40001
1.40001
1.40001
1.40001
1.40001
1.40001
1.40001
1.40001
1.40001
1.40001
1.40001
1.40001
1.40001
1.40001
1.40001
1.40001
1.40001
1.40001
1.40001
1.40001
1.40001
1.40001
1.40001
1.40001
1.40001
1.40001
1.40001
1.40001
1.40001
1.40001
1.40001
1.40001
1.40001
1.40002
1.40001
1.40001
1.40001
1.40001
1.40001
1.40001
1.40001
1.40001
1.40001
1.40002
1.40001
1.40001
1.40001
1.40001
1.40001
1.40001
1.40001
1.40001
1.40001
1.40003
1.40001
1.40001
1.40001
1.40001
1.40001
1.40001
1.40001
1.40001
1.40001
1.40005
1.40001
1.40001
1.40001
1.40001
1.40001
1.40001
1.40001
1.40001
1.40001
1.40006
1.40001
1.40001
1.40001
1.40001
1.40001
1.40001
1.40001
1.40001
1.40001
1.40009
1.40001
1.40001
1.40001
1.40001
1.40001
1.40001
1.40001
1.40001
1.40001
1.40001
1.40001
1.40001
1.40001
1.40001
1.40001
1.40001
1.40001
1.40001
1.40001
1.40001
1.40001
1.40001
1.40001
1.40001
1.40001
1.40001
1.40001
1.40001
1.40001
1.40001
1.40001
1.40001
1.40001
1.40001
1.40001
1.40001
1.40001
1.40001
1.40001
1.40001
1.40001
1.40001
1.40001
1.40001
1.40001
1.40001
1.40001
1.40001
1.40001
1.40001
1.40001
1.40001
1.40001
1.40001
1.40001
1.40001
1.40001
1.40001
1.40001
1.40001
1.40001
1.40001
1.40001
1.40001
1.40001
1.40001
1.40001
1.40001
1.40001
1.40001
1.40001
1.40001
1.40001
1.40001
1.40001
1.40001
1.40001
1.40001
1.40001
1.40001
1.40001
1.40001
1.40001
1.40001
1.40001
1.40001
1.40001
1.40001
1.40001
1.40001
1.40001
1.40001
1.40001
1.40001
1.40001
1.40001
1.40001
1.40001
1.40001
1.40001
1.40001
1.40001
1.40001
1.40001
1.40001
1.40001
1.40001
1.40001
1.40001
1.40002
1.40001
1.40001
1.40001
1.40001
1.40001
1.40001
1.40002
1.40002
1.40002
1.40002
1.40001
1.40001
1.40001
1.40002
1.40002
1.40002
1.40002
1.40003
1.40003
1.40004
1.40002
1.40002
1.40002
1.40002
1.40002
1.40003
1.40003
1.40004
1.40005
1.40006
1.40002
1.40003
1.40003
1.40003
1.40004
1.40004
1.40005
1.40006
1.40007
1.40009
1.40003
1.40004
1.40004
1.40005
1.40005
1.40006
1.40007
1.40009
1.4001
1.40013
1.40005
1.40006
1.40006
1.40007
1.40008
1.40009
1.40011
1.40013
1.40015
1.40018
1.40007
1.40008
1.40009
1.4001
1.40011
1.40013
1.40016
1.40019
1.40024
1.40028
1.40011
1.40012
1.40013
1.40015
1.40017
1.4002
1.40024
1.40029
1.40037
1.40043
1.40015
1.40016
1.40019
1.40021
1.40025
1.40029
1.40036
1.40042
1.40054
1.40064
)
;

boundaryField
{
    inlet
    {
        type            calculated;
        value           uniform 1.40001;
    }
    outlet
    {
        type            calculated;
        value           nonuniform List<scalar> 
100
(
2.607
2.55883
2.48853
2.39686
2.30054
2.22257
2.1603
2.13279
2.12338
2.13255
2.15836
2.18865
2.22718
2.26236
2.29368
2.31843
2.33728
2.35859
2.39656
2.3827
2.78724
2.79768
2.82179
2.85933
2.90086
2.93496
2.95525
2.95039
2.93583
2.91466
2.88721
2.85825
2.83389
2.8096
2.78837
2.76321
2.73146
2.69703
2.66376
2.63725
2.7867
2.77875
2.75114
2.70694
2.65849
2.61371
2.58092
2.56968
2.57566
2.57974
2.57795
2.57406
2.56988
2.582
2.61324
2.65645
2.70689
2.7519
2.778
2.78513
2.63737
2.66341
2.69642
2.73115
2.76335
2.78867
2.80974
2.83397
2.85818
2.88706
2.91472
2.93601
2.9508
2.95549
2.93481
2.90117
2.85975
2.82113
2.7962
2.78683
2.38286
2.39661
2.35869
2.33737
2.3185
2.29376
2.26244
2.22727
2.18876
2.15847
2.13265
2.12349
2.13289
2.16034
2.22254
2.30039
2.39662
2.48815
2.55865
2.60717
)
;
    }
    triangle
    {
        type            calculated;
        value           nonuniform List<scalar> 
40
(
2.03936
2.63584
3.46935
5.9699
6.82274
5.77379
5.18333
4.92346
4.81042
4.7001
0.801053
0.858088
0.831062
0.842629
0.855026
0.868503
0.874217
0.871369
0.866495
0.862113
0.862158
0.866657
0.871554
0.874376
0.868624
0.855122
0.842703
0.831227
0.858292
0.80109
2.03936
2.63584
3.46935
5.9703
6.82247
5.77364
5.18338
4.92349
4.81042
4.70008
)
;
    }
    top
    {
        type            symmetryPlane;
    }
    bottom
    {
        type            symmetryPlane;
    }
    defaultFaces
    {
        type            empty;
    }
}


// ************************************************************************* //
