/*--------------------------------*- C++ -*----------------------------------*\
  =========                 |
  \\      /  F ield         | OpenFOAM: The Open Source CFD Toolbox
   \\    /   O peration     | Website:  https://openfoam.org
    \\  /    A nd           | Version:  7
     \\/     M anipulation  |
\*---------------------------------------------------------------------------*/
FoamFile
{
    version     2.0;
    format      ascii;
    class       volScalarField;
    location    "1.1";
    object      rho;
}
// * * * * * * * * * * * * * * * * * * * * * * * * * * * * * * * * * * * * * //

dimensions      [1 -3 0 0 0 0 0];

internalField   nonuniform List<scalar> 
2600
(
0.801003
0.850236
0.837628
0.869929
0.98403
1.08681
1.15408
1.38379
1.97096
2.78438
0.858119
0.806769
0.805041
0.851527
0.958738
1.05089
1.11566
1.32737
1.90784
2.77692
0.83112
0.778678
0.777738
0.828778
0.925145
1.00819
1.07163
1.2665
1.84214
2.75121
0.842692
0.771303
0.764438
0.812684
0.89088
0.960498
1.02577
1.21254
1.779
2.70687
0.855089
0.773814
0.758416
0.797584
0.862136
0.925744
0.992937
1.17917
1.74196
2.65594
0.868606
0.778525
0.755519
0.791604
0.849331
0.905198
0.975979
1.16886
1.73345
2.61201
0.874354
0.778838
0.75363
0.795136
0.84882
0.900465
0.975471
1.17316
1.7469
2.581
0.871498
0.778457
0.756238
0.801416
0.85286
0.903357
0.982661
1.18598
1.78039
2.5692
0.866596
0.776537
0.758837
0.808691
0.857891
0.908442
0.994735
1.20291
1.81105
2.57374
0.862087
0.775972
0.761099
0.812287
0.860345
0.911637
1.00044
1.21171
1.82557
2.57808
0.862054
0.77603
0.761296
0.812309
0.860265
0.911771
1.00042
1.21525
1.82806
2.5784
0.866513
0.776725
0.759161
0.809304
0.857896
0.907808
0.993165
1.206
1.81426
2.57493
0.871366
0.778639
0.756722
0.801943
0.852823
0.903068
0.982193
1.18668
1.78116
2.56878
0.874178
0.778994
0.754111
0.795915
0.848626
0.899732
0.974553
1.17229
1.74707
2.58027
0.868453
0.778834
0.756129
0.792349
0.848992
0.904513
0.975232
1.16793
1.73446
2.613
0.855
0.774159
0.759169
0.798293
0.861704
0.925192
0.992402
1.18026
1.74359
2.65692
0.84261
0.771735
0.765287
0.81337
0.890267
0.960178
1.02521
1.2151
1.78039
2.70498
0.831141
0.779159
0.778501
0.829533
0.924707
1.00762
1.07172
1.26894
1.84187
2.7498
0.858234
0.807253
0.80573
0.852327
0.958538
1.05053
1.11597
1.32758
1.90757
2.77762
0.801139
0.85075
0.838262
0.870695
0.983985
1.08624
1.15381
1.38367
1.97229
2.78519
1.34961
0.906251
0.874096
0.895845
0.999764
1.11408
1.18968
1.4382
2.04106
2.78565
1.96293
1.03528
0.892642
0.916942
1.01049
1.1311
1.22236
1.49093
2.12224
2.79585
2.36176
1.21133
0.912611
0.937842
1.01879
1.13932
1.24733
1.53927
2.20846
2.82146
2.63355
1.41511
0.948355
0.971792
1.02845
1.13723
1.26835
1.59191
2.302
2.86024
2.81212
1.6044
1.01569
0.998514
1.03182
1.12481
1.27256
1.65034
2.39708
2.90154
2.95312
1.77311
1.12497
1.00878
1.0321
1.10251
1.26521
1.70849
2.48463
2.93521
3.06526
1.92079
1.2485
1.02744
1.04088
1.10019
1.26236
1.76539
2.56493
2.95572
3.16981
2.0489
1.37035
1.07468
1.05629
1.09965
1.26604
1.82928
2.61967
2.95083
3.2607
2.17317
1.47771
1.1414
1.07068
1.10838
1.27462
1.88998
2.67348
2.93597
3.3486
2.28975
1.59197
1.21947
1.09163
1.12429
1.27936
1.93413
2.70493
2.91457
3.43154
2.39846
1.70055
1.3021
1.1125
1.14054
1.27994
1.95813
2.70786
2.88688
3.52359
2.50744
1.81128
1.38608
1.13373
1.15718
1.27621
1.96267
2.69876
2.85799
3.59642
2.63066
1.91506
1.46324
1.15669
1.17961
1.26432
1.94966
2.67924
2.83384
3.54944
2.75155
2.00798
1.53612
1.19801
1.19587
1.2692
1.92839
2.65788
2.80975
3.57215
2.87617
2.10511
1.60555
1.26104
1.20252
1.27214
1.88882
2.63229
2.78858
3.47067
2.95825
2.19109
1.6738
1.33205
1.2176
1.28764
1.91031
2.60431
2.76312
3.27145
3.01259
2.28086
1.7471
1.4064
1.23899
1.30718
1.90695
2.57156
2.73109
3.07467
2.97255
2.37006
1.83045
1.47779
1.26636
1.33652
1.90193
2.55208
2.69655
2.85021
2.92418
2.44762
1.91374
1.5491
1.30164
1.375
1.90383
2.54422
2.66359
2.61421
2.90148
2.50807
1.99765
1.61382
1.33803
1.42156
1.91436
2.54127
2.63749
2.03936
2.63584
3.46935
5.96993
6.82272
5.77378
5.18333
4.92347
4.81042
4.7001
1.39675
1.41032
1.44897
2.95648
5.20972
4.98803
4.94323
4.87742
4.79964
4.67246
1.40075
1.40078
1.40083
1.45138
4.07101
5.06382
4.9208
4.84802
4.76974
4.62194
1.4007
1.40077
1.40086
1.40107
2.40536
4.75496
4.79103
4.72069
4.65261
4.53021
1.40069
1.40076
1.40084
1.40105
1.4273
3.7547
4.71318
4.65609
4.60984
4.48403
1.4007
1.40077
1.40087
1.40099
1.40123
2.13566
4.52151
4.63721
4.56519
4.43546
1.4007
1.40077
1.40088
1.40098
1.40118
1.41418
3.56985
4.65779
4.55917
4.41641
1.4007
1.40077
1.40085
1.40095
1.40106
1.4013
2.12999
4.44361
4.5402
4.39517
1.40064
1.40071
1.40079
1.40089
1.401
1.40123
1.42729
3.58317
4.53481
4.38712
1.4006
1.40066
1.40074
1.40082
1.40094
1.40106
1.4014
2.32068
4.38451
4.38643
1.40056
1.40061
1.40068
1.40076
1.40086
1.40097
1.40123
1.48846
3.68561
4.38346
1.40051
1.40056
1.40062
1.4007
1.40078
1.40089
1.401
1.40261
2.63722
4.29937
1.40046
1.40051
1.40056
1.40063
1.40071
1.40081
1.40091
1.4012
1.67059
3.85428
1.40041
1.40045
1.40049
1.40055
1.40063
1.40073
1.40084
1.40105
1.4143
3.04319
1.40037
1.4004
1.40045
1.4005
1.40058
1.40067
1.40079
1.40091
1.40163
2.26394
1.40033
1.40036
1.4004
1.40046
1.40052
1.40061
1.40073
1.40084
1.40112
1.57907
1.4003
1.40033
1.40037
1.40042
1.40048
1.40056
1.40066
1.40077
1.40103
1.39132
1.40027
1.4003
1.40033
1.40038
1.40043
1.40051
1.4006
1.40071
1.40096
1.39576
1.40023
1.40025
1.40029
1.40033
1.40038
1.40044
1.40052
1.40063
1.40084
1.39962
1.40019
1.40021
1.40024
1.40028
1.40032
1.40038
1.40045
1.40054
1.4007
1.40074
1.40001
1.40001
1.40001
1.40001
1.40001
1.40001
1.40001
1.40001
1.4
1.40045
1.40001
1.40001
1.40001
1.40001
1.40001
1.40001
1.40001
1.40001
1.4
1.40047
1.40001
1.40001
1.40001
1.40001
1.40001
1.40001
1.40001
1.40001
1.4
1.40043
1.40001
1.40001
1.40001
1.40001
1.40001
1.40001
1.40001
1.40001
1.4
1.40042
1.40001
1.40001
1.40001
1.40001
1.40001
1.40001
1.40001
1.40001
1.4
1.40041
1.40001
1.40001
1.40001
1.40001
1.40001
1.40001
1.40001
1.40001
1.4
1.40041
1.40001
1.40001
1.40001
1.40001
1.40001
1.40001
1.40001
1.40001
1.4
1.40041
1.40001
1.40001
1.40001
1.40001
1.40001
1.40001
1.40001
1.40001
1.4
1.40042
1.40001
1.40001
1.40001
1.40001
1.40001
1.40001
1.40001
1.40001
1.4
1.40039
1.40001
1.40001
1.40001
1.40001
1.40001
1.40001
1.40001
1.40001
1.4
1.40036
1.40001
1.40001
1.40001
1.40001
1.40001
1.40001
1.40001
1.40001
1.4
1.40034
1.40001
1.40001
1.40001
1.40001
1.40001
1.40001
1.40001
1.40001
1.40001
1.40031
1.40001
1.40001
1.40001
1.40001
1.40001
1.40001
1.40001
1.40001
1.40001
1.40028
1.40001
1.40001
1.40001
1.40001
1.40001
1.40001
1.40001
1.40001
1.40001
1.40025
1.40001
1.40001
1.40001
1.40001
1.40001
1.40001
1.40001
1.40001
1.40001
1.40023
1.40001
1.40001
1.40001
1.40001
1.40001
1.40001
1.40001
1.40001
1.40001
1.4002
1.40001
1.40001
1.40001
1.40001
1.40001
1.40001
1.40001
1.40001
1.40001
1.40018
1.40001
1.40001
1.40001
1.40001
1.40001
1.40001
1.40001
1.40001
1.40001
1.40016
1.40001
1.40001
1.40001
1.40001
1.40001
1.40001
1.40001
1.40001
1.40001
1.40014
1.40001
1.40001
1.40001
1.40001
1.40001
1.40001
1.40001
1.40001
1.40001
1.40011
1.40001
1.40001
1.40001
1.40001
1.40001
1.40001
1.40001
1.40001
1.40001
1.40011
1.40001
1.40001
1.40001
1.40001
1.40001
1.40001
1.40001
1.40001
1.40001
1.40014
1.40001
1.40001
1.40001
1.40001
1.40001
1.40001
1.40001
1.40001
1.40001
1.40016
1.40001
1.40001
1.40001
1.40001
1.40001
1.40001
1.40001
1.40001
1.40001
1.40018
1.40001
1.40001
1.40001
1.40001
1.40001
1.40001
1.40001
1.40001
1.40001
1.4002
1.40001
1.40001
1.40001
1.40001
1.40001
1.40001
1.40001
1.40001
1.40001
1.40023
1.40001
1.40001
1.40001
1.40001
1.40001
1.40001
1.40001
1.40001
1.40001
1.40025
1.40001
1.40001
1.40001
1.40001
1.40001
1.40001
1.40001
1.40001
1.40001
1.40028
1.40001
1.40001
1.40001
1.40001
1.40001
1.40001
1.40001
1.40001
1.40001
1.40031
1.40001
1.40001
1.40001
1.40001
1.40001
1.40001
1.40001
1.40001
1.4
1.40034
1.40001
1.40001
1.40001
1.40001
1.40001
1.40001
1.40001
1.40001
1.4
1.40036
1.40001
1.40001
1.40001
1.40001
1.40001
1.40001
1.40001
1.40001
1.4
1.40039
1.40001
1.40001
1.40001
1.40001
1.40001
1.40001
1.40001
1.40001
1.4
1.40042
1.40001
1.40001
1.40001
1.40001
1.40001
1.40001
1.40001
1.40001
1.4
1.40041
1.40001
1.40001
1.40001
1.40001
1.40001
1.40001
1.40001
1.40001
1.4
1.40041
1.40001
1.40001
1.40001
1.40001
1.40001
1.40001
1.40001
1.40001
1.4
1.40041
1.40001
1.40001
1.40001
1.40001
1.40001
1.40001
1.40001
1.40001
1.4
1.40042
1.40001
1.40001
1.40001
1.40001
1.40001
1.40001
1.40001
1.40001
1.4
1.40043
1.40001
1.40001
1.40001
1.40001
1.40001
1.40001
1.40001
1.40001
1.4
1.40047
1.40001
1.40001
1.40001
1.40001
1.40001
1.40001
1.40001
1.40001
1.4
1.40045
1.40019
1.40021
1.40024
1.40028
1.40032
1.40038
1.40045
1.40054
1.4007
1.40074
1.40023
1.40025
1.40029
1.40033
1.40038
1.40044
1.40052
1.40063
1.40084
1.39962
1.40027
1.4003
1.40033
1.40038
1.40043
1.40051
1.4006
1.40071
1.40096
1.39576
1.4003
1.40033
1.40037
1.40042
1.40048
1.40056
1.40066
1.40077
1.40103
1.39133
1.40033
1.40036
1.4004
1.40046
1.40052
1.40061
1.40073
1.40084
1.40112
1.57901
1.40037
1.4004
1.40045
1.4005
1.40058
1.40067
1.40079
1.40091
1.40163
2.26386
1.40041
1.40045
1.40049
1.40055
1.40063
1.40073
1.40084
1.40105
1.4143
3.04315
1.40046
1.40051
1.40056
1.40063
1.40071
1.40081
1.40091
1.4012
1.67058
3.85425
1.40051
1.40056
1.40062
1.4007
1.40078
1.40089
1.401
1.40261
2.63722
4.29936
1.40056
1.40061
1.40068
1.40076
1.40086
1.40097
1.40123
1.48849
3.68564
4.38345
1.4006
1.40066
1.40074
1.40083
1.40094
1.40106
1.4014
2.32083
4.38451
4.3864
1.40064
1.40071
1.40079
1.40089
1.401
1.40123
1.42733
3.58333
4.53481
4.3871
1.4007
1.40077
1.40085
1.40095
1.40106
1.4013
2.13032
4.44369
4.54017
4.39514
1.4007
1.40077
1.40088
1.40098
1.40118
1.41421
3.5701
4.65779
4.55914
4.41637
1.4007
1.40077
1.40087
1.40099
1.40123
2.1361
4.52153
4.63716
4.56515
4.4354
1.40069
1.40076
1.40084
1.40105
1.42736
3.75495
4.71314
4.65603
4.60979
4.48396
1.4007
1.40077
1.40086
1.40107
2.40584
4.75502
4.79092
4.72063
4.65252
4.53011
1.40075
1.40078
1.40083
1.45146
4.07124
5.06383
4.9208
4.84799
4.76965
4.62181
1.39675
1.41033
1.44896
2.95693
5.20961
4.98802
4.94332
4.87742
4.79958
4.67236
2.03936
2.63584
3.46935
5.97041
6.8224
5.7736
5.1834
4.9235
4.81042
4.70008
2.61411
2.90139
2.50799
1.99752
1.61368
1.33801
1.42148
1.91443
2.54208
2.63731
2.85012
2.92409
2.44752
1.91359
1.54897
1.30175
1.37508
1.90416
2.54526
2.66356
3.07461
2.97244
2.36995
1.83031
1.47766
1.26648
1.33667
1.90236
2.55264
2.69679
3.27142
3.01255
2.28072
1.74695
1.40623
1.23941
1.30757
1.90715
2.57089
2.73147
3.47066
2.95823
2.19098
1.67366
1.33183
1.21795
1.28817
1.91034
2.60337
2.76345
3.57216
2.87619
2.10495
1.6054
1.26079
1.20306
1.27257
1.88874
2.6322
2.78858
3.54945
2.75156
2.00785
1.53601
1.19786
1.1964
1.2698
1.92875
2.6582
2.80972
3.59643
2.63064
1.91498
1.46313
1.15679
1.17984
1.26518
1.94968
2.67943
2.83389
3.52358
2.50743
1.8112
1.38595
1.13403
1.15744
1.2771
1.96275
2.69876
2.85803
3.43153
2.39843
1.70051
1.30191
1.1128
1.14088
1.28081
1.95828
2.70693
2.88685
3.34856
2.28968
1.59192
1.21923
1.09187
1.12466
1.28024
1.93441
2.70351
2.91431
3.26065
2.17308
1.47766
1.14117
1.07084
1.10873
1.27543
1.8902
2.67229
2.93557
3.16973
2.04885
1.37019
1.07453
1.05636
1.09998
1.26664
1.82979
2.61899
2.9503
3.06519
1.92079
1.24818
1.02733
1.04082
1.10053
1.26292
1.76621
2.56465
2.95535
2.95315
1.77289
1.12485
1.00859
1.03197
1.10321
1.26597
1.7087
2.48442
2.93533
2.81211
1.60415
1.01552
0.998206
1.03162
1.12563
1.27348
1.65011
2.39612
2.90139
2.63354
1.41482
0.948059
0.971448
1.02823
1.13818
1.26932
1.59168
2.3009
2.85955
2.36174
1.21095
0.912209
0.937411
1.01858
1.14033
1.24775
1.53841
2.20764
2.82152
1.96289
1.03494
0.892081
0.916379
1.01025
1.13218
1.22258
1.48941
2.12103
2.79714
1.34955
0.905765
0.873489
0.895174
0.999636
1.11515
1.19024
1.43716
2.03928
2.78667
1.40001
1.4
1.4
1.40476
2.43502
4.33413
4.14687
3.62316
3.06282
2.38222
1.40001
1.4
1.39999
1.40757
2.47838
4.37285
4.17215
3.63015
3.0555
2.39609
1.40001
1.40001
1.39999
1.41179
2.55218
4.47806
4.27247
3.66077
3.05898
2.35814
1.40001
1.40001
1.39999
1.42067
2.70039
4.58677
4.33586
3.67163
3.03464
2.33692
1.40001
1.40001
1.39998
1.43974
2.79746
4.70646
4.37258
3.66503
3.0178
2.31812
1.40001
1.40001
1.39998
1.4888
2.79145
4.73096
4.35375
3.60783
2.9799
2.29343
1.40001
1.40002
1.39999
1.59714
2.75739
4.67156
4.25956
3.52888
2.9246
2.26217
1.40001
1.40003
1.40039
1.76506
2.78618
4.50615
4.11996
3.43768
2.85872
2.22705
1.40001
1.40007
1.4067
1.95676
2.83438
4.22078
3.9462
3.34603
2.78431
2.18859
1.40002
1.40024
1.46054
2.15746
2.85258
3.84238
3.73451
3.2476
2.71157
2.15831
1.40002
1.40094
1.66924
2.41928
2.80916
3.45335
3.49637
3.13647
2.63429
2.13252
1.40003
1.40434
2.00238
2.67609
2.75689
3.07131
3.25841
3.01147
2.56444
2.12338
1.40005
1.42393
2.33557
2.80141
2.68876
2.70979
3.04752
2.87944
2.49649
2.13279
1.40008
1.52504
2.60531
2.83635
2.59703
2.39316
2.84186
2.73161
2.43578
2.16022
1.40011
1.82348
2.78688
2.79081
2.46935
2.14794
2.60108
2.56392
2.39376
2.22246
1.40011
2.20323
2.85916
2.7159
2.30457
1.94511
2.33853
2.41036
2.35528
2.30038
1.41558
2.53925
2.85364
2.5867
2.1332
1.76613
2.08853
2.27441
2.33285
2.39671
1.62031
2.78096
2.84254
2.47034
1.98427
1.62068
1.86748
2.13167
2.35855
2.48846
1.96147
2.88782
2.75452
2.30938
1.8451
1.50931
1.67531
2.02323
2.44194
2.5589
2.31373
2.87656
2.60068
2.12258
1.70614
1.40649
1.52036
1.94703
2.51621
2.60715
2.31362
2.87659
2.60074
2.12268
1.70625
1.40649
1.52042
1.94734
2.51598
2.60716
1.96149
2.88782
2.75452
2.30944
1.84517
1.50934
1.67542
2.02359
2.44214
2.55874
1.62041
2.78101
2.84261
2.47041
1.98434
1.62072
1.86758
2.13175
2.35884
2.48849
1.4156
2.53936
2.85377
2.58679
2.13327
1.76618
2.08866
2.27441
2.33298
2.39699
1.40011
2.20341
2.85929
2.71599
2.30462
1.94517
2.33867
2.4103
2.35529
2.30066
1.40011
1.82369
2.78702
2.79094
2.46939
2.14805
2.60121
2.56384
2.39371
2.22267
1.40008
1.52514
2.60548
2.8365
2.59707
2.39338
2.84194
2.73153
2.43575
2.16029
1.40005
1.42395
2.33583
2.80158
2.68886
2.71016
3.04755
2.8793
2.49635
2.13276
1.40003
1.40434
2.00272
2.67633
2.75714
3.07166
3.25836
3.01129
2.56427
2.12332
1.40002
1.40094
1.66958
2.41948
2.80964
3.4536
3.49628
3.13623
2.63409
2.13243
1.40002
1.40024
1.46068
2.15748
2.85318
3.8425
3.73439
3.24736
2.71139
2.15822
1.40001
1.40007
1.40672
1.95682
2.83538
4.22091
3.94602
3.3458
2.78414
2.18849
1.40001
1.40003
1.40039
1.76528
2.78728
4.5064
4.11975
3.43745
2.85856
2.22696
1.40001
1.40002
1.39999
1.59741
2.75849
4.6718
4.25929
3.52863
2.92444
2.2621
1.40001
1.40001
1.39998
1.48899
2.79255
4.73127
4.35341
3.60756
2.97975
2.29336
1.40001
1.40001
1.39998
1.43984
2.79869
4.7068
4.37265
3.66487
3.01766
2.31806
1.40001
1.40001
1.39999
1.42073
2.70172
4.58707
4.33573
3.67144
3.0345
2.33685
1.40001
1.40001
1.39999
1.41182
2.55349
4.47837
4.2724
3.66058
3.05883
2.35805
1.40001
1.4
1.39999
1.40759
2.47967
4.37317
4.1721
3.62995
3.05531
2.39604
1.40001
1.4
1.4
1.40476
2.43627
4.33443
4.14682
3.62294
3.0626
2.38209
1.40015
1.40016
1.40019
1.40021
1.40025
1.40029
1.40036
1.40042
1.40054
1.40064
1.40011
1.40012
1.40013
1.40015
1.40017
1.4002
1.40024
1.40029
1.40037
1.40043
1.40007
1.40008
1.40009
1.4001
1.40011
1.40013
1.40016
1.40019
1.40024
1.40028
1.40005
1.40006
1.40006
1.40007
1.40008
1.40009
1.40011
1.40013
1.40015
1.40018
1.40003
1.40004
1.40004
1.40005
1.40005
1.40006
1.40007
1.40009
1.4001
1.40013
1.40002
1.40003
1.40003
1.40003
1.40004
1.40004
1.40005
1.40006
1.40007
1.40009
1.40002
1.40002
1.40002
1.40002
1.40002
1.40003
1.40003
1.40004
1.40005
1.40006
1.40001
1.40001
1.40001
1.40002
1.40002
1.40002
1.40002
1.40003
1.40003
1.40004
1.40001
1.40001
1.40001
1.40001
1.40001
1.40001
1.40002
1.40002
1.40002
1.40002
1.40001
1.40001
1.40001
1.40001
1.40001
1.40001
1.40001
1.40001
1.40001
1.40002
1.40001
1.40001
1.40001
1.40001
1.40001
1.40001
1.40001
1.40001
1.40001
1.40001
1.40001
1.40001
1.40001
1.40001
1.40001
1.40001
1.40001
1.40001
1.40001
1.40001
1.40001
1.40001
1.40001
1.40001
1.40001
1.40001
1.40001
1.40001
1.40001
1.40001
1.40001
1.40001
1.40001
1.40001
1.40001
1.40001
1.40001
1.40001
1.40001
1.40001
1.40001
1.40001
1.40001
1.40001
1.40001
1.40001
1.40001
1.40001
1.40001
1.40001
1.40001
1.40001
1.40001
1.40001
1.40001
1.40001
1.40001
1.40001
1.40001
1.40001
1.40001
1.40001
1.40001
1.40001
1.40001
1.40001
1.40001
1.40001
1.40001
1.40001
1.40001
1.40001
1.40001
1.40001
1.40001
1.40001
1.40001
1.40001
1.40001
1.40001
1.40001
1.40001
1.40001
1.40001
1.40001
1.40001
1.40001
1.40001
1.40001
1.40001
1.40001
1.40001
1.40001
1.40001
1.40001
1.40001
1.40001
1.40001
1.40001
1.40001
1.40001
1.40001
1.40001
1.40001
1.40001
1.40001
1.40001
1.40001
1.40001
1.40009
1.40001
1.40001
1.40001
1.40001
1.40001
1.40001
1.40001
1.40001
1.40001
1.40006
1.40001
1.40001
1.40001
1.40001
1.40001
1.40001
1.40001
1.40001
1.40001
1.40005
1.40001
1.40001
1.40001
1.40001
1.40001
1.40001
1.40001
1.40001
1.40001
1.40003
1.40001
1.40001
1.40001
1.40001
1.40001
1.40001
1.40001
1.40001
1.40001
1.40002
1.40001
1.40001
1.40001
1.40001
1.40001
1.40001
1.40001
1.40001
1.40001
1.40002
1.40001
1.40001
1.40001
1.40001
1.40001
1.40001
1.40001
1.40001
1.40001
1.40001
1.40001
1.40001
1.40001
1.40001
1.40001
1.40001
1.40001
1.40001
1.40001
1.40001
1.40001
1.40001
1.40001
1.40001
1.40001
1.40001
1.40001
1.40001
1.40001
1.40001
1.40001
1.40001
1.40001
1.40001
1.40001
1.40001
1.40001
1.40001
1.40001
1.40001
1.40001
1.40001
1.40001
1.40001
1.40001
1.40001
1.40001
1.40001
1.40001
1.40001
1.40001
1.40001
1.40001
1.40001
1.40001
1.40001
1.40001
1.40001
1.40001
1.40001
1.40001
1.40001
1.40001
1.40001
1.40001
1.40001
1.40001
1.40001
1.40001
1.40001
1.40001
1.40001
1.40001
1.40001
1.40001
1.40001
1.40001
1.40001
1.40001
1.40001
1.40001
1.40001
1.40001
1.40001
1.40001
1.40001
1.40001
1.40001
1.40001
1.40001
1.40001
1.40001
1.40001
1.40001
1.40001
1.40001
1.40001
1.40001
1.40001
1.40001
1.40001
1.40001
1.40001
1.40001
1.40001
1.40001
1.40001
1.40001
1.40001
1.40001
1.40001
1.40001
1.40001
1.40001
1.40001
1.40001
1.40001
1.40001
1.40001
1.40001
1.40001
1.40001
1.40001
1.40001
1.40001
1.40001
1.40001
1.40001
1.40001
1.40001
1.40001
1.40001
1.40001
1.40001
1.40001
1.40001
1.40001
1.40001
1.40001
1.40001
1.40001
1.40001
1.40001
1.40001
1.40001
1.40001
1.40001
1.40001
1.40001
1.40001
1.40001
1.40001
1.40001
1.40001
1.40001
1.40001
1.40001
1.40001
1.40001
1.40001
1.40001
1.40001
1.40001
1.40001
1.40001
1.40001
1.40001
1.40001
1.40001
1.40001
1.40001
1.40001
1.40001
1.40001
1.40001
1.40001
1.40001
1.40001
1.40001
1.40001
1.40001
1.40001
1.40001
1.40001
1.40001
1.40001
1.40001
1.40001
1.40001
1.40001
1.40001
1.40001
1.40001
1.40001
1.40001
1.40001
1.40001
1.40001
1.40001
1.40001
1.40001
1.40001
1.40001
1.40001
1.40001
1.40001
1.40001
1.40001
1.40001
1.40001
1.40001
1.40001
1.40001
1.40001
1.40001
1.40001
1.40001
1.40001
1.40001
1.40001
1.40001
1.40001
1.40001
1.40001
1.40001
1.40001
1.40001
1.40001
1.40001
1.40001
1.40001
1.40001
1.40001
1.40001
1.40001
1.40001
1.40001
1.40001
1.40001
1.40001
1.40001
1.40001
1.40001
1.40001
1.40001
1.40001
1.40001
1.40001
1.40001
1.40001
1.40001
1.40001
1.40001
1.40001
1.40001
1.40001
1.40001
1.40001
1.40001
1.40001
1.40001
1.40001
1.40001
1.40001
1.40001
1.40001
1.40001
1.40001
1.40001
1.40001
1.40001
1.40001
1.40001
1.40001
1.40001
1.40001
1.40001
1.40001
1.40001
1.40001
1.40001
1.40001
1.40001
1.40001
1.40001
1.40001
1.40001
1.40001
1.40001
1.40002
1.40001
1.40001
1.40001
1.40001
1.40001
1.40001
1.40001
1.40001
1.40001
1.40002
1.40001
1.40001
1.40001
1.40001
1.40001
1.40001
1.40001
1.40001
1.40001
1.40003
1.40001
1.40001
1.40001
1.40001
1.40001
1.40001
1.40001
1.40001
1.40001
1.40005
1.40001
1.40001
1.40001
1.40001
1.40001
1.40001
1.40001
1.40001
1.40001
1.40006
1.40001
1.40001
1.40001
1.40001
1.40001
1.40001
1.40001
1.40001
1.40001
1.40009
1.40001
1.40001
1.40001
1.40001
1.40001
1.40001
1.40001
1.40001
1.40001
1.40001
1.40001
1.40001
1.40001
1.40001
1.40001
1.40001
1.40001
1.40001
1.40001
1.40001
1.40001
1.40001
1.40001
1.40001
1.40001
1.40001
1.40001
1.40001
1.40001
1.40001
1.40001
1.40001
1.40001
1.40001
1.40001
1.40001
1.40001
1.40001
1.40001
1.40001
1.40001
1.40001
1.40001
1.40001
1.40001
1.40001
1.40001
1.40001
1.40001
1.40001
1.40001
1.40001
1.40001
1.40001
1.40001
1.40001
1.40001
1.40001
1.40001
1.40001
1.40001
1.40001
1.40001
1.40001
1.40001
1.40001
1.40001
1.40001
1.40001
1.40001
1.40001
1.40001
1.40001
1.40001
1.40001
1.40001
1.40001
1.40001
1.40001
1.40001
1.40001
1.40001
1.40001
1.40001
1.40001
1.40001
1.40001
1.40001
1.40001
1.40001
1.40001
1.40001
1.40001
1.40001
1.40001
1.40001
1.40001
1.40001
1.40001
1.40001
1.40001
1.40001
1.40001
1.40001
1.40001
1.40001
1.40001
1.40001
1.40001
1.40002
1.40001
1.40001
1.40001
1.40001
1.40001
1.40001
1.40002
1.40002
1.40002
1.40002
1.40001
1.40001
1.40001
1.40002
1.40002
1.40002
1.40002
1.40003
1.40003
1.40004
1.40002
1.40002
1.40002
1.40002
1.40002
1.40003
1.40003
1.40004
1.40005
1.40006
1.40002
1.40003
1.40003
1.40003
1.40004
1.40004
1.40005
1.40006
1.40007
1.40009
1.40003
1.40004
1.40004
1.40005
1.40005
1.40006
1.40007
1.40009
1.4001
1.40013
1.40005
1.40006
1.40006
1.40007
1.40008
1.40009
1.40011
1.40013
1.40015
1.40018
1.40007
1.40008
1.40009
1.4001
1.40011
1.40013
1.40016
1.40019
1.40024
1.40028
1.40011
1.40012
1.40013
1.40015
1.40017
1.4002
1.40024
1.40029
1.40037
1.40043
1.40015
1.40016
1.40019
1.40021
1.40025
1.40029
1.40036
1.40042
1.40054
1.40064
)
;

boundaryField
{
    inlet
    {
        type            calculated;
        value           uniform 1.40001;
    }
    outlet
    {
        type            calculated;
        value           nonuniform List<scalar> 
100
(
2.60706
2.55862
2.48835
2.39687
2.30062
2.22266
2.16037
2.13283
2.12341
2.13255
2.15836
2.18866
2.22718
2.26236
2.29368
2.31843
2.33729
2.3586
2.39657
2.38272
2.78647
2.7962
2.82136
2.85985
2.90105
2.93473
2.95548
2.95079
2.93606
2.91476
2.88704
2.85807
2.83382
2.80965
2.78847
2.76303
2.73103
2.69657
2.66358
2.63739
2.78546
2.77802
2.75219
2.70778
2.65693
2.61305
2.58191
2.56997
2.57436
2.57867
2.57906
2.57564
2.56957
2.58114
2.61399
2.65797
2.70593
2.75072
2.77865
2.78631
2.63721
2.66355
2.69681
2.73141
2.76335
2.78847
2.80962
2.83387
2.85811
2.88701
2.91449
2.93566
2.95027
2.95511
2.93486
2.90088
2.85917
2.82144
2.7975
2.78746
2.38285
2.39661
2.35868
2.33736
2.31849
2.29375
2.26243
2.22726
2.18875
2.15846
2.13264
2.12346
2.13285
2.16029
2.22246
2.30034
2.3966
2.48832
2.55878
2.60704
)
;
    }
    triangle
    {
        type            calculated;
        value           nonuniform List<scalar> 
40
(
2.03936
2.63584
3.46935
5.96993
6.82272
5.77378
5.18333
4.92347
4.81042
4.7001
0.801003
0.858119
0.83112
0.842692
0.855089
0.868606
0.874354
0.871498
0.866596
0.862087
0.862054
0.866513
0.871366
0.874178
0.868453
0.855
0.84261
0.831141
0.858234
0.801139
2.03936
2.63584
3.46935
5.97041
6.8224
5.7736
5.1834
4.9235
4.81042
4.70008
)
;
    }
    top
    {
        type            symmetryPlane;
    }
    bottom
    {
        type            symmetryPlane;
    }
    defaultFaces
    {
        type            empty;
    }
}


// ************************************************************************* //
