/*--------------------------------*- C++ -*----------------------------------*\
  =========                 |
  \\      /  F ield         | OpenFOAM: The Open Source CFD Toolbox
   \\    /   O peration     | Website:  https://openfoam.org
    \\  /    A nd           | Version:  8
     \\/     M anipulation  |
\*---------------------------------------------------------------------------*/
FoamFile
{
    version     2.0;
    format      ascii;
    class       volScalarField;
    location    "1.1";
    object      T;
}
// * * * * * * * * * * * * * * * * * * * * * * * * * * * * * * * * * * * * * //

dimensions      [0 0 0 1 0 0 0];

internalField   nonuniform List<scalar> 
2600
(
1.54412
1.57801
1.50311
1.45447
1.51062
1.57019
1.60295
1.71508
1.99586
1.99326
1.66069
1.63357
1.5637
1.52621
1.5766
1.63528
1.67107
1.78299
2.04971
2.03539
1.68712
1.65767
1.61294
1.60618
1.6551
1.71284
1.75108
1.86139
2.11812
2.08193
1.67782
1.64667
1.64288
1.68389
1.74067
1.79344
1.83465
1.93876
2.19016
2.13456
1.65342
1.62115
1.64785
1.74058
1.81076
1.86495
1.90676
1.99606
2.24186
2.19158
1.63243
1.59599
1.64711
1.77138
1.85298
1.90486
1.94327
2.0191
2.25791
2.24634
1.6174
1.5797
1.64633
1.78257
1.8675
1.9161
1.95231
2.02049
2.2447
2.28859
1.60699
1.57328
1.64849
1.7829
1.86608
1.90991
1.94309
2.00615
2.21066
2.31025
1.60157
1.57032
1.65034
1.78237
1.85964
1.8972
1.92535
1.98306
2.17281
2.31625
1.59834
1.56978
1.65209
1.78187
1.85491
1.88935
1.91524
1.97001
2.15548
2.31559
1.59838
1.56981
1.65226
1.78189
1.85475
1.88989
1.91583
1.9681
2.15422
2.31499
1.60173
1.57054
1.65057
1.78265
1.85907
1.89657
1.92533
1.98109
2.17112
2.31561
1.60727
1.57357
1.64885
1.78283
1.86546
1.90971
1.94296
2.00526
2.20969
2.31023
1.61776
1.57994
1.64676
1.78293
1.86623
1.91475
1.95143
2.02064
2.2448
2.28886
1.6328
1.59633
1.64798
1.7721
1.8516
1.9029
1.94171
2.02022
2.25835
2.2462
1.65369
1.62138
1.64906
1.74211
1.80967
1.86187
1.90397
1.99613
2.24223
2.19139
1.67778
1.64688
1.64472
1.68612
1.73989
1.78966
1.83182
1.9376
2.19067
2.13534
1.68696
1.65793
1.61528
1.60839
1.65466
1.70911
1.74819
1.86006
2.11932
2.08293
1.66064
1.63379
1.56589
1.52807
1.57649
1.6319
1.66829
1.78288
2.05086
2.03561
1.54405
1.57833
1.50468
1.45576
1.51037
1.56697
1.60076
1.71545
1.99626
1.99301
1.70268
1.52163
1.43815
1.39561
1.44651
1.50611
1.53944
1.65211
1.94792
1.95111
1.73193
1.47702
1.37745
1.34392
1.38593
1.44511
1.48085
1.59191
1.90312
1.90868
1.74562
1.45691
1.33604
1.30743
1.33856
1.39252
1.42986
1.54038
1.86136
1.86708
1.77126
1.46764
1.31604
1.28731
1.30593
1.34614
1.38805
1.49872
1.82041
1.8252
1.80141
1.49523
1.31272
1.27217
1.28051
1.30538
1.34749
1.4662
1.77933
1.78412
1.83343
1.53411
1.32511
1.26314
1.25745
1.26687
1.30969
1.44253
1.73992
1.7475
1.85934
1.57215
1.34902
1.26134
1.23836
1.24311
1.28272
1.42938
1.70853
1.71896
1.88123
1.60397
1.37652
1.26688
1.22734
1.22488
1.26513
1.42633
1.68548
1.69637
1.89602
1.63159
1.40263
1.27503
1.22356
1.21327
1.25467
1.42835
1.67675
1.68295
1.90638
1.65442
1.43236
1.28719
1.22526
1.20803
1.24683
1.43214
1.67461
1.67693
1.91568
1.67278
1.45988
1.30451
1.2285
1.20595
1.23967
1.43679
1.67333
1.67452
1.92123
1.69129
1.48796
1.32597
1.23361
1.20551
1.23262
1.43944
1.67445
1.67373
1.92153
1.71467
1.51473
1.34798
1.24127
1.20791
1.22535
1.44076
1.67745
1.67639
1.91221
1.74168
1.5397
1.37072
1.25574
1.20859
1.227
1.44219
1.68109
1.6802
1.89857
1.76356
1.56504
1.39413
1.2731
1.21205
1.22977
1.4343
1.68297
1.68435
1.86247
1.76704
1.58244
1.41662
1.29211
1.22009
1.23852
1.44974
1.68366
1.6873
1.83868
1.77536
1.59897
1.4387
1.31363
1.22991
1.24872
1.45798
1.68161
1.68845
1.81263
1.77095
1.61661
1.46205
1.33518
1.24189
1.26265
1.46252
1.68187
1.68806
1.77022
1.76363
1.63694
1.48688
1.35839
1.25751
1.2803
1.46851
1.68374
1.68587
1.70077
1.76212
1.6601
1.51588
1.38154
1.27425
1.30148
1.47722
1.68492
1.68358
1.20305
1.35038
1.5225
1.99256
2.29683
2.20833
2.13236
2.09257
2.09894
2.11496
0.998932
1.00517
1.02634
1.595
2.15238
2.14149
2.12344
2.10389
2.10862
2.1206
1.00027
1.00028
1.00029
1.02843
2.24144
2.2387
2.18296
2.15119
2.13999
2.1418
1.00025
1.00027
1.0003
1.00036
1.53139
2.22777
2.22225
2.194
2.16939
2.15792
1.00024
1.00026
1.00028
1.00034
1.01287
2.08117
2.24066
2.21708
2.1944
2.16788
1.00022
1.00025
1.00027
1.0003
1.00036
1.35571
2.14226
2.20673
2.19078
2.16208
1.00021
1.00023
1.00026
1.00029
1.00035
1.00655
1.9554
2.20472
2.18517
2.15301
1.0002
1.00022
1.00024
1.00027
1.0003
1.00037
1.33113
2.09503
2.17019
2.13907
1.00018
1.0002
1.00022
1.00025
1.00028
1.00035
1.0121
1.93877
2.16222
2.1267
1.00017
1.00019
1.00021
1.00023
1.00027
1.0003
1.0004
1.40578
2.0835
2.11081
1.00016
1.00017
1.00019
1.00022
1.00024
1.00027
1.00035
1.03713
1.95965
2.1056
1.00015
1.00016
1.00018
1.0002
1.00022
1.00025
1.00028
1.0008
1.54695
2.06259
1.00013
1.00014
1.00016
1.00018
1.0002
1.00023
1.00026
1.00034
1.10798
1.97136
1.00012
1.00013
1.00014
1.00016
1.00018
1.00021
1.00024
1.0003
1.00481
1.81182
1.0001
1.00011
1.00013
1.00014
1.00016
1.00019
1.00022
1.00026
1.00046
1.42029
1.00009
1.0001
1.00011
1.00013
1.00015
1.00017
1.00021
1.00024
1.00032
1.06053
1.00008
1.00009
1.0001
1.00012
1.00013
1.00016
1.00019
1.00022
1.00029
0.997849
1.00007
1.00008
1.00009
1.00011
1.00012
1.00014
1.00017
1.0002
1.00027
0.99883
1.00006
1.00007
1.00008
1.00009
1.00011
1.00013
1.00015
1.00018
1.00024
0.999887
1.00005
1.00006
1.00007
1.00008
1.00009
1.00011
1.00013
1.00015
1.0002
1.00021
1
1
1
1
1
1
1
1
1
1.00015
1
1
1
1
1
1
1
1
1
1.00017
1
1
1
1
1
1
1
1
1
1.00016
1
1
1
1
1
1
1
1
1
1.00015
1
1
1
1
1
1
1
1
1
1.00014
1
1
1
1
1
1
1
1
1
1.00014
1
1
1
1
1
1
1
1
1
1.00013
1
1
1
1
1
1
1
1
1
1.00012
1
1
1
1
1
1
1
1
1
1.00011
1
1
1
1
1
1
1
1
1
1.0001
1
1
1
1
1
1
1
1
1
1.0001
1
1
1
1
1
1
1
1
1
1.00009
1
1
1
1
1
1
1
1
1
1.00008
1
1
1
1
1
1
1
1
1
1.00007
1
1
1
1
1
1
1
1
1
1.00006
1
1
1
1
1
1
1
1
1
1.00006
1
1
1
1
1
1
1
1
1
1.00005
1
1
1
1
1
1
1
1
1
1.00004
1
1
1
1
1
1
1
1
1
1.00004
1
1
1
1
1
1
1
1
1
1.00003
1
1
1
1
1
1
1
1
1
1.00003
1
1
1
1
1
1
1
1
1
1.00004
1
1
1
1
1
1
1
1
1
1.00004
1
1
1
1
1
1
1
1
1
1.00005
1
1
1
1
1
1
1
1
1
1.00006
1
1
1
1
1
1
1
1
1
1.00006
1
1
1
1
1
1
1
1
1
1.00007
1
1
1
1
1
1
1
1
1
1.00008
1
1
1
1
1
1
1
1
1
1.00009
1
1
1
1
1
1
1
1
1
1.0001
1
1
1
1
1
1
1
1
1
1.0001
1
1
1
1
1
1
1
1
1
1.00011
1
1
1
1
1
1
1
1
1
1.00012
1
1
1
1
1
1
1
1
1
1.00013
1
1
1
1
1
1
1
1
1
1.00014
1
1
1
1
1
1
1
1
1
1.00014
1
1
1
1
1
1
1
1
1
1.00015
1
1
1
1
1
1
1
1
1
1.00016
1
1
1
1
1
1
1
1
1
1.00017
1
1
1
1
1
1
1
1
1
1.00015
1.00005
1.00006
1.00007
1.00008
1.00009
1.00011
1.00013
1.00015
1.0002
1.00021
1.00006
1.00007
1.00008
1.00009
1.00011
1.00013
1.00015
1.00018
1.00024
0.999886
1.00007
1.00008
1.00009
1.00011
1.00012
1.00014
1.00017
1.0002
1.00027
0.99883
1.00008
1.00009
1.0001
1.00012
1.00013
1.00016
1.00019
1.00022
1.00029
0.997851
1.00009
1.0001
1.00011
1.00013
1.00015
1.00017
1.00021
1.00024
1.00032
1.0605
1.0001
1.00011
1.00013
1.00014
1.00016
1.00019
1.00022
1.00026
1.00046
1.42023
1.00012
1.00013
1.00014
1.00016
1.00018
1.00021
1.00024
1.0003
1.00481
1.81179
1.00013
1.00014
1.00016
1.00018
1.0002
1.00023
1.00026
1.00034
1.10797
1.97134
1.00015
1.00016
1.00018
1.0002
1.00022
1.00025
1.00028
1.0008
1.54694
2.06258
1.00016
1.00017
1.00019
1.00022
1.00025
1.00027
1.00035
1.03714
1.95964
2.10558
1.00017
1.00019
1.00021
1.00023
1.00027
1.0003
1.0004
1.40582
2.0835
2.11079
1.00018
1.0002
1.00022
1.00025
1.00028
1.00035
1.01212
1.9388
2.16221
2.12669
1.0002
1.00022
1.00024
1.00027
1.0003
1.00037
1.33124
2.09504
2.17017
2.13905
1.00021
1.00023
1.00026
1.00029
1.00035
1.00656
1.95547
2.20472
2.18515
2.15299
1.00022
1.00025
1.00027
1.0003
1.00036
1.35581
2.14225
2.20671
2.19077
2.16206
1.00024
1.00026
1.00028
1.00034
1.01289
2.08121
2.24064
2.21706
2.19439
2.16786
1.00025
1.00027
1.0003
1.00036
1.53156
2.22778
2.22224
2.19399
2.16939
2.1579
1.00027
1.00028
1.00029
1.02847
2.24147
2.2387
2.18294
2.15118
2.14
2.14179
0.998932
1.00517
1.02633
1.59516
2.1524
2.14151
2.12343
2.10389
2.10863
2.12061
1.20305
1.35038
1.52249
1.99266
2.29686
2.20834
2.13235
2.09258
2.09897
2.11499
1.70071
1.76208
1.66007
1.51583
1.3815
1.27422
1.3014
1.47704
1.68486
1.6835
1.77018
1.76359
1.63691
1.48683
1.35837
1.25756
1.2803
1.46836
1.68387
1.68565
1.8126
1.77092
1.61657
1.46201
1.33516
1.24193
1.26269
1.46239
1.68233
1.6878
1.83866
1.77535
1.59891
1.43866
1.3136
1.23012
1.24889
1.45792
1.68212
1.68829
1.86246
1.76702
1.58239
1.41656
1.29212
1.22026
1.23875
1.44971
1.68379
1.68723
1.89857
1.76355
1.56498
1.39405
1.27312
1.21234
1.23001
1.43426
1.68292
1.68434
1.91221
1.74168
1.53964
1.3706
1.25582
1.20892
1.22725
1.44207
1.68091
1.68018
1.92152
1.71466
1.51464
1.34786
1.24144
1.20814
1.22556
1.44064
1.67724
1.67637
1.92121
1.69127
1.48786
1.32584
1.23387
1.20579
1.23286
1.43928
1.67424
1.67372
1.91568
1.67275
1.4598
1.30443
1.22872
1.20627
1.23992
1.43662
1.67329
1.6745
1.90637
1.65439
1.43223
1.28717
1.22542
1.20841
1.24708
1.43201
1.6747
1.67696
1.89601
1.63153
1.40256
1.27507
1.22364
1.21373
1.25495
1.42825
1.67681
1.683
1.88122
1.60389
1.37648
1.26681
1.22735
1.22548
1.26552
1.42618
1.68538
1.69642
1.85932
1.57213
1.3489
1.26112
1.23842
1.24366
1.28329
1.42921
1.70826
1.71894
1.83345
1.53402
1.32497
1.26279
1.25762
1.26778
1.31047
1.44251
1.73965
1.74735
1.8014
1.49514
1.31251
1.27182
1.28063
1.30658
1.34833
1.46627
1.77924
1.78412
1.77126
1.46749
1.31575
1.28702
1.30611
1.34779
1.38908
1.49878
1.8203
1.82529
1.74561
1.45664
1.33563
1.30713
1.33889
1.39456
1.43115
1.54066
1.86117
1.86693
1.73187
1.47685
1.37679
1.34351
1.38639
1.44742
1.48229
1.59237
1.90309
1.90832
1.70265
1.52148
1.43706
1.39487
1.44698
1.5089
1.54102
1.65221
1.94797
1.95095
1
1
0.999999
1.0014
1.57512
2.09029
2.02841
1.89649
1.75648
1.54668
1
1
0.999996
1.00219
1.55501
2.07031
2.01253
1.88632
1.75001
1.54976
1
1
0.999996
1.00336
1.50261
2.02434
1.98317
1.86409
1.73691
1.5389
1
1
0.999994
1.00585
1.46124
1.97097
1.94127
1.83266
1.71326
1.53123
1
1
0.999993
1.01127
1.42224
1.93985
1.90942
1.80533
1.69439
1.52439
1
1
0.999992
1.02583
1.38263
1.91021
1.88302
1.78102
1.67851
1.51781
1
1
0.999995
1.06196
1.36403
1.87983
1.85364
1.76252
1.66697
1.51301
1
1.00001
1.00011
1.12813
1.38066
1.84539
1.82365
1.74622
1.65849
1.51088
1
1.00002
1.00183
1.20612
1.41552
1.80381
1.79523
1.73313
1.65084
1.50983
1
1.00007
1.01598
1.26652
1.44796
1.75288
1.77401
1.7219
1.64442
1.51196
1.00001
1.00027
1.07039
1.33012
1.47938
1.70038
1.76023
1.71056
1.63569
1.5152
1.00001
1.00123
1.17038
1.42536
1.51277
1.64424
1.73781
1.69839
1.62761
1.52116
1.00001
1.0066
1.28573
1.51102
1.52778
1.5766
1.71144
1.68239
1.61874
1.53116
1.00002
1.03415
1.38173
1.56118
1.52912
1.53042
1.68182
1.66057
1.6096
1.54543
1.00003
1.12209
1.47622
1.58212
1.52991
1.49467
1.64497
1.63339
1.60387
1.56889
1.00001
1.26811
1.58331
1.58833
1.52361
1.46176
1.59837
1.60629
1.60006
1.59775
1.00365
1.41971
1.64069
1.60148
1.50497
1.42194
1.54011
1.58144
1.60142
1.63273
1.05574
1.54033
1.67112
1.60679
1.48598
1.38249
1.47381
1.55234
1.61262
1.6625
1.20905
1.67967
1.67916
1.59715
1.45995
1.34555
1.40476
1.52503
1.64288
1.67829
1.50327
1.74969
1.68432
1.55654
1.41585
1.30433
1.34284
1.49515
1.6734
1.68174
1.50331
1.74973
1.68435
1.55659
1.41589
1.30436
1.34292
1.49534
1.67374
1.68176
1.20911
1.67971
1.67919
1.59718
1.45999
1.34559
1.40488
1.52517
1.64314
1.67837
1.05577
1.54036
1.67117
1.60685
1.48602
1.38253
1.47393
1.55247
1.61282
1.66265
1.00365
1.41976
1.64076
1.60154
1.50501
1.422
1.54023
1.58153
1.60153
1.63288
1.00001
1.2682
1.58339
1.58839
1.52365
1.46182
1.59849
1.60637
1.60016
1.59788
1.00003
1.12217
1.4763
1.58219
1.52995
1.49476
1.64509
1.63348
1.60396
1.56898
1.00002
1.03418
1.3818
1.56127
1.52918
1.53053
1.68194
1.66066
1.60969
1.54548
1.00001
1.0066
1.28584
1.51114
1.52787
1.57679
1.71155
1.68248
1.61881
1.53119
1.00001
1.00123
1.17051
1.4255
1.51291
1.64446
1.73792
1.69848
1.62767
1.52118
1.00001
1.00027
1.07049
1.3302
1.47956
1.70061
1.76033
1.71064
1.63575
1.51522
1
1.00007
1.01602
1.26652
1.44816
1.75307
1.77411
1.72197
1.64447
1.51198
1
1.00002
1.00184
1.20618
1.41583
1.80398
1.79534
1.73319
1.65087
1.50985
1
1.00001
1.00011
1.12826
1.38104
1.84558
1.82374
1.74625
1.65851
1.5109
1
1
0.999995
1.06208
1.36445
1.88003
1.8537
1.76252
1.66698
1.51303
1
1
0.999991
1.02589
1.38306
1.91041
1.88304
1.78099
1.67851
1.51782
1
1
0.999993
1.01131
1.42274
1.94002
1.90948
1.80531
1.69439
1.5244
1
1
0.999994
1.00587
1.46185
1.9711
1.94127
1.83263
1.71325
1.53123
1
1
0.999996
1.00337
1.50331
2.02444
1.98316
1.86405
1.73689
1.53888
1
1
0.999996
1.00219
1.55578
2.07041
2.01251
1.88628
1.74998
1.54975
1
1
0.999999
1.0014
1.5759
2.09037
2.02839
1.89644
1.75644
1.54664
1.00004
1.00005
1.00005
1.00006
1.00007
1.00008
1.0001
1.00012
1.00015
1.00018
1.00003
1.00003
1.00004
1.00004
1.00005
1.00006
1.00007
1.00008
1.0001
1.00012
1.00002
1.00002
1.00002
1.00003
1.00003
1.00004
1.00004
1.00005
1.00007
1.00008
1.00001
1.00001
1.00002
1.00002
1.00002
1.00002
1.00003
1.00003
1.00004
1.00005
1.00001
1.00001
1.00001
1.00001
1.00001
1.00002
1.00002
1.00002
1.00003
1.00004
1.00001
1.00001
1.00001
1.00001
1.00001
1.00001
1.00001
1.00002
1.00002
1.00002
1
1
1
1
1.00001
1.00001
1.00001
1.00001
1.00001
1.00001
1
1
1
1
1
1
1
1.00001
1.00001
1.00001
1
1
1
1
1
1
1
1
1
1.00001
1
1
1
1
1
1
1
1
1
1
1
1
1
1
1
1
1
1
1
1
1
1
1
1
1
1
1
1
1
1
1
1
1
1
1
1
1
1
1
1
1
1
1
1
1
1
1
1
1
1
1
1
1
1
1
1
1
1
1
1
1
1
1
1
1
1
1
1
1
1
1
1
1
1
1
1
1
1
1
1
1
1
1
1
1
1
1
1
1
1
1
1
1
1
1
1
1
1
1
1
1
1
1
1
1
1
1
1
1
1
1
1
1
1
1
1
1
1
1
1.00002
1
1
1
1
1
1
1
1
1
1.00002
1
1
1
1
1
1
1
1
1
1.00001
1
1
1
1
1
1
1
1
1
1.00001
1
1
1
1
1
1
1
1
1
1
1
1
1
1
1
1
1
1
1
1
1
1
1
1
1
1
1
1
1
1
1
1
1
1
1
1
1
1
1
1
1
1
1
1
1
1
1
1
1
1
1
1
1
1
1
1
1
1
1
1
1
1
1
1
1
1
1
1
1
1
1
1
1
1
1
1
1
1
1
1
1
1
1
1
1
1
1
1
1
1
1
1
1
1
1
1
1
1
1
1
1
1
1
1
1
1
1
1
1
1
1
1
1
1
1
1
1
1
1
1
1
1
1
1
1
1
1
1
1
1
1
1
1
1
1
1
1
1
1
1
1
1
1
1
1
1
1
1
1
1
1
1
1
1
1
1
1
1
1
1
1
1
1
1
1
1
1
1
1
1
1
1
1
1
1
1
1
1
1
1
1
1
1
1
1
1
1
1
1
1
1
1
1
1
1
1
1
1
1
1
1
1
1
1
1
1
1
1
1
1
1
1
1
1
1
1
1
1
1
1
1
1
1
1
1
1
1
1
1
1
1
1
1
1
1
1
1
1
1
1
1
1
1
1
1
1
1
1
1
1
1
1
1
1
1
1
1
1
1
1
1
1
1
1
1
1
1
1
1
1
1
1
1
1
1
1
1
1
1
1
1
1
1
1
1
1
1
1
1
1
1
1
1
1
1
1
1
1
1
1
1
1
1
1
1
1
1
1
1
1
1
1
1
1
1
1
1
1
1
1
1
1
1
1
1
1
1
1
1
1.00001
1
1
1
1
1
1
1
1
1
1.00001
1
1
1
1
1
1
1
1
1
1.00002
1
1
1
1
1
1
1
1
1
1.00002
1
1
1
1
1
1
1
1
1
1
1
1
1
1
1
1
1
1
1
1
1
1
1
1
1
1
1
1
1
1
1
1
1
1
1
1
1
1
1
1
1
1
1
1
1
1
1
1
1
1
1
1
1
1
1
1
1
1
1
1
1
1
1
1
1
1
1
1
1
1
1
1
1
1
1
1
1
1
1
1
1
1
1
1
1
1
1
1
1
1
1
1
1
1
1
1
1
1
1
1
1
1
1
1
1
1
1
1
1
1
1
1
1
1
1
1
1
1
1
1.00001
1
1
1
1
1
1
1
1.00001
1.00001
1.00001
1
1
1
1
1.00001
1.00001
1.00001
1.00001
1.00001
1.00001
1.00001
1.00001
1.00001
1.00001
1.00001
1.00001
1.00001
1.00002
1.00002
1.00002
1.00001
1.00001
1.00001
1.00001
1.00001
1.00002
1.00002
1.00002
1.00003
1.00004
1.00001
1.00001
1.00002
1.00002
1.00002
1.00002
1.00003
1.00003
1.00004
1.00005
1.00002
1.00002
1.00002
1.00003
1.00003
1.00004
1.00004
1.00005
1.00007
1.00008
1.00003
1.00003
1.00004
1.00004
1.00005
1.00006
1.00007
1.00008
1.0001
1.00012
1.00004
1.00005
1.00005
1.00006
1.00007
1.00008
1.0001
1.00012
1.00015
1.00018
)
;

boundaryField
{
    inlet
    {
        type            fixedValue;
        value           uniform 1;
    }
    outlet
    {
        type            inletOutlet;
        inletValue      uniform 1;
        value           nonuniform List<scalar> 
100
(
1.68182
1.67845
1.66275
1.63295
1.59791
1.56898
1.54543
1.53114
1.52112
1.51514
1.51187
1.50973
1.51075
1.51285
1.51761
1.52415
1.53094
1.53853
1.54941
1.54624
1.95056
1.90844
1.86713
1.82545
1.78443
1.74779
1.7191
1.69639
1.6829
1.67683
1.67443
1.67369
1.6764
1.68026
1.68441
1.68736
1.68849
1.68805
1.68587
1.68365
1.99247
2.03464
2.08122
2.1338
2.19074
2.24549
2.28781
2.30954
2.31563
2.31501
2.31446
2.31503
2.30954
2.28806
2.24531
2.19056
2.13463
2.0822
2.0348
1.99222
1.68357
1.68567
1.68779
1.68833
1.68728
1.6844
1.68024
1.67639
1.67367
1.67441
1.67686
1.68294
1.69644
1.71908
1.74763
1.78442
1.82555
1.867
1.90808
1.95038
1.54627
1.54942
1.53854
1.53094
1.52415
1.5176
1.51283
1.51073
1.50972
1.51185
1.51512
1.5211
1.53111
1.54537
1.56889
1.59778
1.63281
1.66259
1.67837
1.68181
)
;
    }
    triangle
    {
        type            zeroGradient;
    }
    top
    {
        type            symmetryPlane;
    }
    bottom
    {
        type            symmetryPlane;
    }
    defaultFaces
    {
        type            empty;
    }
}


// ************************************************************************* //
