/*--------------------------------*- C++ -*----------------------------------*\
  =========                 |
  \\      /  F ield         | OpenFOAM: The Open Source CFD Toolbox
   \\    /   O peration     | Website:  https://openfoam.org
    \\  /    A nd           | Version:  8
     \\/     M anipulation  |
\*---------------------------------------------------------------------------*/
FoamFile
{
    version     2.0;
    format      ascii;
    class       volVectorField;
    location    "1.1";
    object      U;
}
// * * * * * * * * * * * * * * * * * * * * * * * * * * * * * * * * * * * * * //

dimensions      [0 1 -1 0 0 0 0];

internalField   nonuniform List<vector> 
2600
(
(2.07179 0.624239 0)
(2.42458 0.208211 0)
(2.59952 0.285015 0)
(2.67655 0.272897 0)
(2.61337 0.111206 0)
(2.54211 0.0739755 0)
(2.45141 0.0187807 0)
(2.22656 0.0200381 0)
(1.68266 0.261357 0)
(1.50991 0.190187 0)
(1.46284 0.0956216 0)
(1.9068 0.155537 0)
(2.3096 0.254876 0)
(2.58295 0.245471 0)
(2.56386 0.0884801 0)
(2.49033 0.0606734 0)
(2.39563 0.01105 0)
(2.18705 0.0215619 0)
(1.68669 0.254319 0)
(1.493 0.162819 0)
(0.690921 0.0887532 0)
(1.23583 0.1405 0)
(1.83872 0.209001 0)
(2.36504 0.220322 0)
(2.4273 0.0794276 0)
(2.36651 0.0473672 0)
(2.28277 0.0126616 0)
(2.1021 0.025482 0)
(1.6803 0.24806 0)
(1.48127 0.143975 0)
(0.188596 -0.0242606 0)
(0.639509 0.061684 0)
(1.27004 0.132876 0)
(1.97772 0.16724 0)
(2.14205 0.0579572 0)
(2.11392 0.0339203 0)
(2.0616 0.00844199 0)
(1.92492 0.0229931 0)
(1.63665 0.218846 0)
(1.46492 0.127578 0)
(-0.0080174 -0.0336319 0)
(0.248591 0.0206265 0)
(0.733135 0.0564041 0)
(1.44165 0.107079 0)
(1.68139 0.0575809 0)
(1.7003 0.0379186 0)
(1.69858 0.0218765 0)
(1.6252 0.0289746 0)
(1.50049 0.206456 0)
(1.41829 0.114408 0)
(-0.0887103 -0.0318108 0)
(0.0360816 -0.0265338 0)
(0.307195 -0.00382572 0)
(0.850376 0.062941 0)
(1.10766 0.035361 0)
(1.17128 0.0157981 0)
(1.22632 0.00321333 0)
(1.23541 0.0215215 0)
(1.26845 0.152672 0)
(1.31475 0.0912237 0)
(-0.133051 -0.0254708 0)
(-0.0888407 -0.0416601 0)
(0.000121983 -0.032935 0)
(0.333866 0.0316602 0)
(0.558006 0.0410593 0)
(0.649803 0.0282617 0)
(0.761519 0.0261229 0)
(0.853097 0.021472 0)
(0.97064 0.137713 0)
(1.13991 0.0765642 0)
(-0.162088 -0.0205145 0)
(-0.16858 -0.0426244 0)
(-0.196086 -0.0337087 0)
(-0.0243205 0.0136919 0)
(0.151093 0.0220272 0)
(0.261193 0.0106107 0)
(0.416611 0.00793274 0)
(0.566076 0.00823223 0)
(0.695507 0.0790928 0)
(0.934662 0.050681 0)
(-0.177846 -0.0119557 0)
(-0.219774 -0.0344368 0)
(-0.295247 -0.023352 0)
(-0.205988 0.00959407 0)
(-0.0654543 0.0189034 0)
(0.0551713 0.0116194 0)
(0.233366 0.0114993 0)
(0.410305 0.00605815 0)
(0.508317 0.0578161 0)
(0.774243 0.0371851 0)
(-0.181781 -0.0056162 0)
(-0.244095 -0.0136114 0)
(-0.328879 -0.0093015 0)
(-0.258812 0.00684701 0)
(-0.130403 0.0102311 0)
(-0.00523471 0.00378986 0)
(0.178726 0.00322761 0)
(0.361847 0.00208867 0)
(0.432292 0.0225551 0)
(0.705184 0.0157768 0)
(-0.181729 0.0040139 0)
(-0.244257 0.0120213 0)
(-0.329135 0.00789558 0)
(-0.258959 -0.00195767 0)
(-0.130353 -0.00336594 0)
(-0.004659 -0.00447294 0)
(0.179284 -0.00839425 0)
(0.36218 -0.00473037 0)
(0.431782 -0.0210233 0)
(0.705225 -0.0157946 0)
(-0.177791 0.0106459 0)
(-0.220401 0.033279 0)
(-0.29633 0.0224594 0)
(-0.207656 -0.00587971 0)
(-0.0651116 -0.0118152 0)
(0.0591678 -0.00836115 0)
(0.236964 -0.0142105 0)
(0.410054 -0.011613 0)
(0.506328 -0.0576267 0)
(0.773755 -0.0364078 0)
(-0.162109 0.0196465 0)
(-0.169619 0.0416058 0)
(-0.19843 0.0321978 0)
(-0.0296676 -0.00927745 0)
(0.15131 -0.0164417 0)
(0.271151 -0.0106995 0)
(0.425849 -0.0123719 0)
(0.565915 -0.0142442 0)
(0.691673 -0.0781278 0)
(0.93379 -0.0498649 0)
(-0.133074 0.0245698 0)
(-0.0902074 0.041129 0)
(-0.00404832 0.0330313 0)
(0.323579 -0.0276511 0)
(0.557443 -0.0364714 0)
(0.665711 -0.0280145 0)
(0.776655 -0.0287407 0)
(0.854386 -0.0200842 0)
(0.966285 -0.134987 0)
(1.13892 -0.0754193 0)
(-0.0887667 0.0308863 0)
(0.0343669 0.0258019 0)
(0.301426 0.00381997 0)
(0.836193 -0.0599533 0)
(1.10602 -0.0315526 0)
(1.18998 -0.0173292 0)
(1.24359 -0.00790999 0)
(1.23778 -0.0235121 0)
(1.26517 -0.151374 0)
(1.31422 -0.0912947 0)
(-0.00808751 0.0325063 0)
(0.246406 -0.0212453 0)
(0.726694 -0.0544819 0)
(1.42715 -0.103531 0)
(1.6795 -0.0558568 0)
(1.71723 -0.039875 0)
(1.71304 -0.0230648 0)
(1.62755 -0.0276593 0)
(1.49864 -0.20589 0)
(1.41864 -0.115127 0)
(0.188632 0.0231645 0)
(0.636678 -0.0611398 0)
(1.26336 -0.131739 0)
(1.96699 -0.164318 0)
(2.14114 -0.0577812 0)
(2.12615 -0.0377386 0)
(2.07065 -0.00976231 0)
(1.92654 -0.0250506 0)
(1.63643 -0.218804 0)
(1.46562 -0.126859 0)
(0.691277 -0.0895437 0)
(1.23219 -0.140701 0)
(1.83347 -0.206383 0)
(2.35953 -0.216903 0)
(2.42784 -0.0797007 0)
(2.37407 -0.0507915 0)
(2.28689 -0.0136361 0)
(2.10231 -0.0269999 0)
(1.68094 -0.246445 0)
(1.48223 -0.142922 0)
(1.46329 -0.0963683 0)
(1.90346 -0.154538 0)
(2.30624 -0.252932 0)
(2.5807 -0.242467 0)
(2.56528 -0.0880396 0)
(2.49498 -0.0643936 0)
(2.39696 -0.0129315 0)
(2.18595 -0.0211796 0)
(1.68716 -0.252466 0)
(1.49315 -0.163671 0)
(2.07241 -0.624583 0)
(2.42225 -0.207471 0)
(2.59777 -0.282619 0)
(2.67574 -0.270325 0)
(2.61517 -0.111139 0)
(2.54551 -0.0780833 0)
(2.45149 -0.0201893 0)
(2.22491 -0.0186494 0)
(1.68297 -0.260542 0)
(1.51043 -0.19095 0)
(2.27678 0.0315396 0)
(2.7239 -0.246616 0)
(2.72553 -0.267958 0)
(2.71053 -0.259409 0)
(2.63504 -0.144339 0)
(2.57114 -0.0938651 0)
(2.48699 -0.0261941 0)
(2.25412 -0.015173 0)
(1.68815 -0.259976 0)
(1.54874 -0.21816 0)
(2.24305 0.236157 0)
(2.77819 -0.208038 0)
(2.75558 -0.264083 0)
(2.72018 -0.270997 0)
(2.64871 -0.182791 0)
(2.59599 -0.117696 0)
(2.51996 -0.0373238 0)
(2.29016 -0.0114386 0)
(1.70908 -0.261586 0)
(1.60772 -0.242933 0)
(2.12139 0.453932 0)
(2.66916 -0.117611 0)
(2.75009 -0.216588 0)
(2.72014 -0.259977 0)
(2.66401 -0.212658 0)
(2.62779 -0.135466 0)
(2.55079 -0.0475956 0)
(2.33513 -0.00726254 0)
(1.74975 -0.26347 0)
(1.68377 -0.26222 0)
(2.07382 0.539989 0)
(2.56276 0.0148033 0)
(2.74669 -0.191217 0)
(2.72104 -0.260069 0)
(2.68384 -0.226362 0)
(2.65133 -0.167715 0)
(2.57573 -0.0508061 0)
(2.38451 -0.00512961 0)
(1.80932 -0.268755 0)
(1.77594 -0.275966 0)
(2.01226 0.622021 0)
(2.49336 0.100468 0)
(2.71318 -0.0919374 0)
(2.72431 -0.25619 0)
(2.69985 -0.243997 0)
(2.67271 -0.196786 0)
(2.59307 -0.0757827 0)
(2.42529 -0.0141426 0)
(1.88283 -0.277003 0)
(1.8776 -0.288472 0)
(1.9756 0.671835 0)
(2.42899 0.209201 0)
(2.68583 -0.0551579 0)
(2.73326 -0.261231 0)
(2.71512 -0.255836 0)
(2.68991 -0.222117 0)
(2.59896 -0.105377 0)
(2.44553 -0.0384773 0)
(1.96136 -0.291708 0)
(1.97596 -0.297608 0)
(1.94354 0.712473 0)
(2.39252 0.275719 0)
(2.6421 0.0391504 0)
(2.73734 -0.230436 0)
(2.7259 -0.256497 0)
(2.70484 -0.242034 0)
(2.61868 -0.130745 0)
(2.44291 -0.0748533 0)
(2.03312 -0.301165 0)
(2.05239 -0.304035 0)
(1.91408 0.741777 0)
(2.3417 0.362904 0)
(2.61282 0.0802812 0)
(2.74038 -0.220137 0)
(2.73045 -0.259443 0)
(2.72016 -0.250836 0)
(2.63775 -0.145114 0)
(2.42641 -0.101321 0)
(2.08253 -0.328351 0)
(2.09525 -0.317414 0)
(1.895 0.762226 0)
(2.31281 0.414645 0)
(2.56999 0.164443 0)
(2.72394 -0.165025 0)
(2.73504 -0.235924 0)
(2.72796 -0.249074 0)
(2.65545 -0.155 0)
(2.39824 -0.13189 0)
(2.113 -0.330418 0)
(2.11758 -0.324984 0)
(1.87379 0.78614 0)
(2.27397 0.47657 0)
(2.54055 0.214899 0)
(2.70704 -0.139886 0)
(2.74173 -0.21312 0)
(2.7319 -0.239069 0)
(2.67081 -0.170862 0)
(2.36727 -0.167516 0)
(2.12895 -0.34538 0)
(2.13266 -0.332945 0)
(1.86401 0.802174 0)
(2.25391 0.515415 0)
(2.51035 0.265987 0)
(2.67845 -0.068853 0)
(2.74463 -0.181842 0)
(2.73235 -0.231811 0)
(2.67811 -0.191925 0)
(2.34967 -0.203858 0)
(2.13708 -0.367017 0)
(2.13731 -0.338212 0)
(1.85017 0.823936 0)
(2.21546 0.564763 0)
(2.47648 0.314927 0)
(2.66261 -0.0322646 0)
(2.74489 -0.151544 0)
(2.72625 -0.227918 0)
(2.6819 -0.213864 0)
(2.33225 -0.250946 0)
(2.14109 -0.386326 0)
(2.13343 -0.339541 0)
(1.8502 0.835993 0)
(2.19472 0.592741 0)
(2.45405 0.345069 0)
(2.63363 0.042492 0)
(2.73572 -0.114554 0)
(2.71479 -0.22082 0)
(2.68254 -0.235194 0)
(2.31634 -0.296166 0)
(2.14966 -0.401637 0)
(2.12829 -0.339232 0)
(1.85623 0.845395 0)
(2.14445 0.635034 0)
(2.40952 0.39843 0)
(2.61611 0.0883175 0)
(2.72708 -0.0733303 0)
(2.70808 -0.227049 0)
(2.68179 -0.250143 0)
(2.33128 -0.352947 0)
(2.17319 -0.417224 0)
(2.12444 -0.336315 0)
(1.90347 0.825993 0)
(2.12263 0.660624 0)
(2.37938 0.437127 0)
(2.58409 0.157317 0)
(2.70299 -0.037804 0)
(2.71299 -0.21614 0)
(2.67006 -0.258694 0)
(2.32741 -0.400789 0)
(2.18804 -0.434477 0)
(2.12164 -0.329755 0)
(1.95994 0.794283 0)
(2.1148 0.684177 0)
(2.35283 0.484219 0)
(2.5698 0.198354 0)
(2.67604 0.00302731 0)
(2.71049 -0.20283 0)
(2.66097 -0.264878 0)
(2.34649 -0.445194 0)
(2.20223 -0.453728 0)
(2.1154 -0.328306 0)
(2.00463 0.764848 0)
(2.09763 0.715817 0)
(2.32316 0.537607 0)
(2.53542 0.260457 0)
(2.65141 0.0458867 0)
(2.70312 -0.183368 0)
(2.64962 -0.267071 0)
(2.35137 -0.49179 0)
(2.19067 -0.467058 0)
(2.10831 -0.323734 0)
(2.06241 0.717631 0)
(2.09618 0.736567 0)
(2.30293 0.579965 0)
(2.51829 0.292211 0)
(2.63366 0.0837556 0)
(2.69152 -0.153011 0)
(2.6359 -0.260649 0)
(2.35304 -0.533267 0)
(2.17177 -0.477061 0)
(2.09932 -0.32659 0)
(2.14811 0.663793 0)
(2.09728 0.753008 0)
(2.27342 0.615479 0)
(2.48509 0.343432 0)
(2.61354 0.130657 0)
(2.68138 -0.123852 0)
(2.62119 -0.262356 0)
(2.3544 -0.568951 0)
(2.15366 -0.478811 0)
(2.09036 -0.327006 0)
(2.23064 0.641072 0)
(2.10151 0.762128 0)
(2.24763 0.643722 0)
(2.4611 0.372598 0)
(2.59951 0.163534 0)
(2.66805 -0.0945233 0)
(2.60171 -0.249589 0)
(2.34843 -0.597122 0)
(2.13636 -0.479485 0)
(2.08242 -0.328491 0)
(2.8282 0.0676861 0)
(2.65805 0.215996 0)
(2.62442 0.226129 0)
(1.92316 0.588333 0)
(1.47051 0.767372 0)
(1.53161 0.837795 0)
(1.55795 0.912106 0)
(1.56284 0.922834 0)
(1.55334 0.914045 0)
(1.54583 0.905734 0)
(3.00216 -0.00303441 0)
(2.99109 0.00871656 0)
(2.978 0.0211313 0)
(2.14909 0.696116 0)
(1.24934 1.01907 0)
(1.36284 0.952355 0)
(1.44949 0.951436 0)
(1.49408 0.929493 0)
(1.51304 0.915697 0)
(1.51832 0.908632 0)
(2.99921 0.000109283 0)
(2.99915 0.000106247 0)
(2.9992 0.00015641 0)
(3.0035 0.00508511 0)
(1.54153 0.813946 0)
(1.37605 0.871592 0)
(1.43992 0.870988 0)
(1.47324 0.869027 0)
(1.48998 0.879478 0)
(1.50495 0.889346 0)
(2.99928 0.000124439 0)
(2.99922 0.00016194 0)
(2.99915 0.000186302 0)
(2.99902 0.000268609 0)
(2.53824 0.459877 0)
(1.36325 0.853022 0)
(1.38092 0.861873 0)
(1.42071 0.868304 0)
(1.44975 0.870886 0)
(1.48206 0.88555 0)
(2.99933 0.000174155 0)
(2.99928 0.000202674 0)
(2.99923 0.000231964 0)
(2.99912 0.000300625 0)
(3.00343 0.00486747 0)
(1.62719 0.762521 0)
(1.37455 0.829081 0)
(1.41376 0.839165 0)
(1.43193 0.860446 0)
(1.47232 0.876302 0)
(2.99941 0.000181359 0)
(2.99936 0.000212457 0)
(2.9993 0.000259454 0)
(2.99922 0.000284398 0)
(2.99907 0.000408707 0)
(2.80139 0.368951 0)
(1.47346 0.808495 0)
(1.40342 0.836906 0)
(1.43338 0.849317 0)
(1.47668 0.868993 0)
(2.99946 0.000209501 0)
(2.99941 0.00024168 0)
(2.99933 0.00028129 0)
(2.99926 0.000325524 0)
(2.99918 0.000442755 0)
(3.00284 0.00375592 0)
(1.72848 0.751469 0)
(1.41993 0.836886 0)
(1.44841 0.849659 0)
(1.49022 0.869544 0)
(2.99947 0.000239868 0)
(2.99943 0.00025807 0)
(2.99937 0.000322046 0)
(2.99931 0.000378356 0)
(2.99925 0.000422886 0)
(2.99913 0.000545726 0)
(2.80473 0.357059 0)
(1.54139 0.834118 0)
(1.45663 0.863109 0)
(1.50386 0.87474 0)
(2.99953 0.000257122 0)
(2.9995 0.000285896 0)
(2.99945 0.000338959 0)
(2.9994 0.000393715 0)
(2.99934 0.000444672 0)
(2.99922 0.000571071 0)
(3.00908 0.010056 0)
(1.75164 0.785111 0)
(1.4757 0.868666 0)
(1.5215 0.879512 0)
(2.9996 0.000259224 0)
(2.99957 0.000278316 0)
(2.99952 0.000322638 0)
(2.99948 0.00035157 0)
(2.99941 0.000435776 0)
(2.99935 0.00046844 0)
(2.99919 0.000734542 0)
(2.68832 0.461917 0)
(1.58483 0.86545 0)
(1.53814 0.892342 0)
(2.99965 0.000243552 0)
(2.99962 0.000270588 0)
(2.99958 0.000291555 0)
(2.99953 0.000356813 0)
(2.99949 0.000377224 0)
(2.99942 0.000460899 0)
(2.99929 0.000576455 0)
(3.02857 0.0293032 0)
(1.78101 0.81337 0)
(1.55685 0.898501 0)
(2.99969 0.00023445 0)
(2.99967 0.000244626 0)
(2.99963 0.000282479 0)
(2.99959 0.000302084 0)
(2.99955 0.000357382 0)
(2.99948 0.000419183 0)
(2.99943 0.000471794 0)
(2.99935 0.00219496 0)
(2.45626 0.607595 0)
(1.61975 0.903813 0)
(2.99974 0.000196399 0)
(2.99971 0.000221762 0)
(2.99968 0.000253287 0)
(2.99965 0.000278148 0)
(2.9996 0.000340533 0)
(2.99955 0.000391052 0)
(2.99949 0.000468131 0)
(2.99937 0.000627156 0)
(3.02666 0.101428 0)
(1.78857 0.834323 0)
(2.99977 0.000193211 0)
(2.99975 0.000209496 0)
(2.99972 0.000240892 0)
(2.99969 0.000271579 0)
(2.99965 0.000308325 0)
(2.9996 0.000371788 0)
(2.99954 0.000429736 0)
(2.99948 0.000568807 0)
(2.99926 0.011473 0)
(1.97663 0.778721 0)
(2.9998 0.000192877 0)
(2.99978 0.000209798 0)
(2.99976 0.000239513 0)
(2.99973 0.000272275 0)
(2.99969 0.000317851 0)
(2.99964 0.000362597 0)
(2.99958 0.00042937 0)
(2.99953 0.0004952 0)
(2.9993 0.000946282 0)
(2.68676 0.513153 0)
(2.99983 0.000185335 0)
(2.99981 0.000203821 0)
(2.99979 0.000221959 0)
(2.99976 0.000264208 0)
(2.99973 0.000291852 0)
(2.99969 0.000344997 0)
(2.99964 0.000403519 0)
(2.99959 0.000479744 0)
(2.99947 0.000649322 0)
(3.10099 0.0398331 0)
(2.99985 0.000179956 0)
(2.99984 0.000195678 0)
(2.99982 0.00023024 0)
(2.9998 0.00024369 0)
(2.99977 0.00029851 0)
(2.99974 0.000332652 0)
(2.99969 0.000398467 0)
(2.99964 0.000471429 0)
(2.99953 0.000621426 0)
(3.01247 -0.0113736 0)
(2.99989 0.000148987 0)
(2.99988 0.000161461 0)
(2.99986 0.000194304 0)
(2.99984 0.000212306 0)
(2.99982 0.000254677 0)
(2.99979 0.000289605 0)
(2.99974 0.000358247 0)
(2.9997 0.000409581 0)
(2.9996 0.000552539 0)
(3.00188 -0.00251213 0)
(2.9999 0.000149694 0)
(2.9999 0.000156075 0)
(2.99988 0.000183995 0)
(2.99987 0.000198329 0)
(2.99985 0.000241286 0)
(2.99983 0.000259789 0)
(2.99979 0.000330825 0)
(2.99975 0.000365179 0)
(2.99967 0.000522134 0)
(2.99969 -0.000369908 0)
(2.99993 0.000116202 0)
(2.99992 0.00012688 0)
(2.99991 0.000152767 0)
(2.9999 0.000161309 0)
(2.99987 0.000204667 0)
(2.99986 0.00021506 0)
(2.99982 0.000285884 0)
(2.9998 0.00030652 0)
(2.99975 0.000470776 0)
(2.99968 0.00041995 0)
(3 -3.27071e-14 0)
(3 8.4306e-14 0)
(3 1.63199e-13 0)
(3 1.2542e-13 0)
(3 -3.78453e-14 0)
(3 -8.46404e-14 0)
(3 6.52499e-14 0)
(3 1.49019e-12 0)
(3 -1.38836e-09 0)
(2.99966 -2.00634e-05 0)
(3 2.64832e-14 0)
(3 5.6723e-14 0)
(3 9.97915e-14 0)
(3 1.33439e-13 0)
(3 -7.32477e-14 0)
(3 -1.79257e-13 0)
(3 5.95396e-14 0)
(3 4.80183e-12 0)
(3 -3.76582e-09 0)
(2.99955 1.6624e-06 0)
(3 1.93584e-14 0)
(3 1.91092e-14 0)
(3 7.02837e-15 0)
(3 1.34574e-13 0)
(3 -4.16531e-14 0)
(3 -1.46727e-13 0)
(3 1.03967e-13 0)
(3 7.52345e-12 0)
(3 -5.65116e-09 0)
(2.99954 2.88386e-05 0)
(3 6.43345e-14 0)
(3 2.41813e-14 0)
(3 9.7579e-14 0)
(3 1.55851e-13 0)
(3 -7.63482e-14 0)
(3 -2.57326e-13 0)
(3 7.27925e-14 0)
(3 1.04237e-11 0)
(3 -7.10392e-09 0)
(2.99956 5.53037e-05 0)
(3 6.16269e-14 0)
(3 -1.44446e-14 0)
(3 8.75284e-14 0)
(3 6.52718e-14 0)
(3 -1.77138e-13 0)
(3 -2.15546e-13 0)
(3 -9.37215e-14 0)
(3 1.30642e-11 0)
(3 -7.99267e-09 0)
(2.99959 7.44515e-05 0)
(3 -3.76787e-14 0)
(3 1.08292e-14 0)
(3 3.43344e-14 0)
(3 -1.1905e-13 0)
(3 -1.24172e-13 0)
(3 -1.24392e-13 0)
(3 7.30628e-14 0)
(3 1.61988e-11 0)
(3 -9.21066e-09 0)
(2.99963 8.52832e-05 0)
(3 -3.34103e-14 0)
(3 1.03387e-14 0)
(3 -5.5861e-14 0)
(3 -1.10854e-13 0)
(3 1.09839e-13 0)
(3 -5.98498e-16 0)
(3 1.92454e-13 0)
(3 1.94127e-11 0)
(3 -9.61826e-09 0)
(2.99967 9.31792e-05 0)
(3 -4.66225e-14 0)
(3 -1.11732e-13 0)
(3 -2.16203e-13 0)
(3 -6.13788e-14 0)
(3 1.19749e-13 0)
(3 1.70517e-13 0)
(3 2.04057e-13 0)
(3 2.20641e-11 0)
(3 -9.75754e-09 0)
(2.99969 0.000105625 0)
(3 4.79846e-14 0)
(3 -2.61875e-15 0)
(3 -1.14245e-13 0)
(3 -8.51551e-14 0)
(3 2.10804e-14 0)
(3 3.04546e-14 0)
(3 1.92538e-13 0)
(3 2.47996e-11 0)
(3 -9.61316e-09 0)
(2.99971 0.000128361 0)
(3 9.96311e-14 0)
(3 8.02479e-14 0)
(3 1.38125e-13 0)
(3 -5.19065e-15 0)
(3 4.56859e-14 0)
(3 -7.72585e-14 0)
(3 1.34193e-13 0)
(3 2.67137e-11 0)
(3 -9.5362e-09 0)
(2.99975 0.000145024 0)
(3 -7.56534e-15 0)
(3 7.67111e-14 0)
(3 1.28606e-13 0)
(3 6.66941e-14 0)
(3 -6.25764e-15 0)
(3 -2.12525e-13 0)
(3 3.13758e-14 0)
(3 2.87432e-11 0)
(3 -9.42988e-09 0)
(2.99979 0.000138729 0)
(3 -6.21359e-14 0)
(3 1.33901e-14 0)
(3 2.30904e-14 0)
(3 -6.26783e-15 0)
(3 -8.45469e-14 0)
(3 -1.67328e-13 0)
(3 -6.44264e-14 0)
(3 3.074e-11 0)
(3 -9.40167e-09 0)
(2.99981 0.000131619 0)
(3 -1.03689e-15 0)
(3 -7.14035e-14 0)
(3 -1.68824e-13 0)
(3 -1.96815e-13 0)
(3 -1.84166e-13 0)
(3 -1.29379e-13 0)
(3 3.84777e-15 0)
(3 3.27159e-11 0)
(3 -9.44585e-09 0)
(2.99984 0.00012109 0)
(3 -6.5259e-14 0)
(3 -8.18308e-14 0)
(3 -2.81247e-13 0)
(3 -2.26695e-13 0)
(3 -2.61981e-13 0)
(3 -1.22003e-13 0)
(3 7.04922e-14 0)
(3 3.43386e-11 0)
(3 -9.51924e-09 0)
(2.99986 0.000113559 0)
(3 -1.25601e-13 0)
(3 -1.01074e-13 0)
(3 -2.8604e-13 0)
(3 -1.93866e-13 0)
(3 -7.13572e-14 0)
(3 -1.30771e-13 0)
(3 1.63267e-13 0)
(3 3.59641e-11 0)
(3 -9.61213e-09 0)
(2.99988 0.000103253 0)
(3 -3.34284e-14 0)
(3 -9.03527e-14 0)
(3 -1.24641e-13 0)
(3 -1.50245e-13 0)
(3 -2.57267e-14 0)
(3 2.08189e-14 0)
(3 1.60993e-13 0)
(3 3.75277e-11 0)
(3 -9.67835e-09 0)
(2.9999 9.73064e-05 0)
(3 -2.98958e-14 0)
(3 -1.75135e-14 0)
(3 8.43191e-14 0)
(3 -1.72136e-13 0)
(3 -1.028e-13 0)
(3 9.34864e-14 0)
(3 1.11758e-13 0)
(3 3.86597e-11 0)
(3 -9.7258e-09 0)
(2.99992 9.31099e-05 0)
(3 6.7939e-14 0)
(3 9.66596e-14 0)
(3 -3.55159e-14 0)
(3 -1.08515e-13 0)
(3 -1.06831e-13 0)
(3 9.62544e-14 0)
(3 -8.13121e-14 0)
(3 3.97825e-11 0)
(3 -9.72715e-09 0)
(2.99993 8.56006e-05 0)
(3 1.76339e-13 0)
(3 6.90218e-14 0)
(3 -1.18798e-14 0)
(3 2.38082e-13 0)
(3 1.0972e-13 0)
(3 9.08004e-14 0)
(3 -1.06753e-13 0)
(3 4.0938e-11 0)
(3 -9.69756e-09 0)
(2.99995 7.74348e-05 0)
(3 1.91106e-14 0)
(3 4.19929e-14 0)
(3 9.35796e-14 0)
(3 3.95224e-13 0)
(3 9.70581e-14 0)
(3 3.41583e-14 0)
(3 -6.42769e-14 0)
(3 4.19072e-11 0)
(3 -9.62391e-09 0)
(2.99996 6.65403e-05 0)
(3 -8.0042e-14 0)
(3 -1.53887e-13 0)
(3 -1.39166e-13 0)
(3 -2.60248e-13 0)
(3 -2.01828e-13 0)
(3 -1.72518e-13 0)
(3 3.10637e-13 0)
(3 -4.12816e-11 0)
(3 9.63296e-09 0)
(2.99996 -6.65526e-05 0)
(3 -1.15005e-13 0)
(3 -1.44563e-13 0)
(3 -8.7704e-14 0)
(3 -8.73444e-14 0)
(3 -9.73274e-14 0)
(3 -2.80633e-16 0)
(3 1.99084e-13 0)
(3 -4.07917e-11 0)
(3 9.70394e-09 0)
(2.99995 -7.74432e-05 0)
(3 1.69898e-14 0)
(3 1.78e-14 0)
(3 1.36971e-14 0)
(3 8.19059e-14 0)
(3 -2.98517e-14 0)
(3 1.35715e-13 0)
(3 1.68411e-14 0)
(3 -4.01407e-11 0)
(3 9.75191e-09 0)
(2.99993 -8.56161e-05 0)
(3 7.75761e-14 0)
(3 4.57805e-14 0)
(3 4.05146e-14 0)
(3 2.18254e-13 0)
(3 2.00038e-13 0)
(3 2.91706e-13 0)
(3 5.60365e-14 0)
(3 -3.8665e-11 0)
(3 9.74574e-09 0)
(2.99992 -9.31113e-05 0)
(3 5.54088e-14 0)
(3 -1.11287e-14 0)
(3 -6.35962e-15 0)
(3 9.70887e-14 0)
(3 2.88168e-13 0)
(3 2.21137e-13 0)
(3 -3.2216e-14 0)
(3 -3.70562e-11 0)
(3 9.71254e-09 0)
(2.9999 -9.73191e-05 0)
(3 3.15236e-14 0)
(3 5.73243e-14 0)
(3 1.12233e-13 0)
(3 2.41419e-14 0)
(3 1.07132e-13 0)
(3 1.35779e-13 0)
(3 -1.46832e-13 0)
(3 -3.5673e-11 0)
(3 9.62912e-09 0)
(2.99988 -0.000103264 0)
(3 3.42024e-14 0)
(3 3.51367e-14 0)
(3 2.1001e-13 0)
(3 2.18732e-13 0)
(3 1.97865e-13 0)
(3 1.96389e-13 0)
(3 4.53206e-15 0)
(3 -3.43977e-11 0)
(3 9.54167e-09 0)
(2.99986 -0.000113584 0)
(3 2.34096e-14 0)
(3 5.20046e-14 0)
(3 1.21967e-13 0)
(3 4.19317e-14 0)
(3 1.63994e-13 0)
(3 1.59436e-13 0)
(3 9.78996e-14 0)
(3 -3.23194e-11 0)
(3 9.4466e-09 0)
(2.99984 -0.000121114 0)
(3 1.01554e-14 0)
(3 3.21614e-14 0)
(3 -1.87023e-13 0)
(3 -2.79065e-13 0)
(3 -4.27686e-14 0)
(3 -5.69954e-15 0)
(3 -1.13919e-13 0)
(3 -3.05417e-11 0)
(3 9.41415e-09 0)
(2.99981 -0.00013165 0)
(3 -1.43883e-14 0)
(3 -6.45011e-14 0)
(3 -4.31515e-13 0)
(3 -2.63435e-13 0)
(3 -6.8961e-14 0)
(3 1.38003e-14 0)
(3 -4.02712e-14 0)
(3 -2.91542e-11 0)
(3 9.42941e-09 0)
(2.99979 -0.000138756 0)
(3 -2.072e-14 0)
(3 -4.36287e-14 0)
(3 -8.11605e-14 0)
(3 -4.33976e-14 0)
(3 -1.45432e-13 0)
(3 3.26577e-14 0)
(3 2.18459e-14 0)
(3 -2.70356e-11 0)
(3 9.55685e-09 0)
(2.99975 -0.000145027 0)
(3 3.15352e-14 0)
(3 -5.5716e-14 0)
(3 5.98627e-14 0)
(3 3.4947e-14 0)
(3 -2.4372e-13 0)
(3 -8.3439e-14 0)
(3 -2.32986e-13 0)
(3 -2.45646e-11 0)
(3 9.61637e-09 0)
(2.99971 -0.000128365 0)
(3 4.19834e-14 0)
(3 6.37062e-14 0)
(3 9.90038e-14 0)
(3 8.93768e-14 0)
(3 -1.13384e-14 0)
(3 -2.12329e-14 0)
(3 -3.72536e-13 0)
(3 -2.19683e-11 0)
(3 9.76975e-09 0)
(2.99969 -0.000105618 0)
(3 4.68453e-14 0)
(3 1.20386e-13 0)
(3 1.62052e-13 0)
(3 -1.55365e-14 0)
(3 -3.51506e-14 0)
(3 -1.02683e-13 0)
(3 -3.80033e-13 0)
(3 -1.95918e-11 0)
(3 9.6214e-09 0)
(2.99967 -9.3178e-05 0)
(3 -4.90545e-14 0)
(3 -5.88064e-14 0)
(3 -2.16748e-15 0)
(3 -1.92259e-14 0)
(3 -9.85657e-14 0)
(3 -2.55523e-13 0)
(3 -3.58867e-13 0)
(3 -1.63165e-11 0)
(3 9.20968e-09 0)
(2.99963 -8.52036e-05 0)
(3 -1.8321e-13 0)
(3 -1.42803e-13 0)
(3 3.37138e-14 0)
(3 -1.27347e-14 0)
(3 -1.37521e-13 0)
(3 -3.85123e-13 0)
(3 -4.21655e-13 0)
(3 -1.33004e-11 0)
(3 7.9739e-09 0)
(2.99959 -7.44352e-05 0)
(3 -7.71531e-14 0)
(3 2.50334e-14 0)
(3 1.80297e-14 0)
(3 -1.32609e-13 0)
(3 -1.599e-13 0)
(3 -1.62132e-13 0)
(3 -2.42897e-13 0)
(3 -1.07452e-11 0)
(3 7.08695e-09 0)
(2.99956 -5.52511e-05 0)
(3 1.13215e-13 0)
(3 1.07467e-13 0)
(3 -5.67983e-14 0)
(3 -1.79342e-13 0)
(3 -4.02165e-14 0)
(3 7.51669e-14 0)
(3 -9.7269e-15 0)
(3 -7.56537e-12 0)
(3 5.6392e-09 0)
(2.99954 -2.87754e-05 0)
(3 8.33522e-14 0)
(3 8.98624e-14 0)
(3 -1.21179e-13 0)
(3 -1.60792e-13 0)
(3 -1.40005e-13 0)
(3 -1.49526e-14 0)
(3 -5.45598e-14 0)
(3 -4.48941e-12 0)
(3 3.76205e-09 0)
(2.99955 -1.6192e-06 0)
(3 -5.64702e-14 0)
(3 7.54201e-14 0)
(3 -6.71198e-14 0)
(3 -3.44916e-14 0)
(3 -1.8049e-13 0)
(3 3.54343e-14 0)
(3 -1.17759e-13 0)
(3 -1.38214e-12 0)
(3 1.37701e-09 0)
(2.99966 2.01233e-05 0)
(2.99993 -0.000116214 0)
(2.99992 -0.000126901 0)
(2.99991 -0.000152787 0)
(2.9999 -0.000161328 0)
(2.99987 -0.000204699 0)
(2.99986 -0.000215095 0)
(2.99982 -0.000285921 0)
(2.9998 -0.00030656 0)
(2.99975 -0.000470779 0)
(2.99968 -0.000420033 0)
(2.9999 -0.000149716 0)
(2.9999 -0.000156093 0)
(2.99988 -0.000184012 0)
(2.99987 -0.000198366 0)
(2.99985 -0.000241322 0)
(2.99983 -0.00025982 0)
(2.99979 -0.000330858 0)
(2.99975 -0.000365213 0)
(2.99967 -0.000522187 0)
(2.99969 0.000370104 0)
(2.99989 -0.000148998 0)
(2.99988 -0.000161477 0)
(2.99986 -0.000194334 0)
(2.99984 -0.000212318 0)
(2.99982 -0.00025469 0)
(2.99979 -0.000289632 0)
(2.99974 -0.000358278 0)
(2.9997 -0.000409628 0)
(2.9996 -0.000552616 0)
(3.00188 0.00251183 0)
(2.99985 -0.000179958 0)
(2.99984 -0.00019569 0)
(2.99982 -0.00023025 0)
(2.9998 -0.000243696 0)
(2.99977 -0.000298537 0)
(2.99974 -0.000332672 0)
(2.99969 -0.000398488 0)
(2.99964 -0.000471475 0)
(2.99953 -0.0006215 0)
(3.01246 0.0113676 0)
(2.99983 -0.000185355 0)
(2.99981 -0.000203843 0)
(2.99979 -0.000221978 0)
(2.99976 -0.000264245 0)
(2.99973 -0.000291911 0)
(2.99969 -0.000345029 0)
(2.99964 -0.000403565 0)
(2.99959 -0.000479794 0)
(2.99947 -0.000649395 0)
(3.10098 -0.0397972 0)
(2.9998 -0.0001929 0)
(2.99978 -0.000209817 0)
(2.99976 -0.000239537 0)
(2.99973 -0.000272318 0)
(2.99969 -0.000317871 0)
(2.99964 -0.000362629 0)
(2.99958 -0.000429409 0)
(2.99953 -0.000495244 0)
(2.9993 -0.000946277 0)
(2.68684 -0.513105 0)
(2.99977 -0.000193252 0)
(2.99975 -0.000209531 0)
(2.99972 -0.000240957 0)
(2.99969 -0.000271638 0)
(2.99965 -0.000308346 0)
(2.9996 -0.000371817 0)
(2.99954 -0.000429772 0)
(2.99948 -0.000568845 0)
(2.99926 -0.0114725 0)
(1.97667 -0.778723 0)
(2.99974 -0.000196439 0)
(2.99971 -0.000221833 0)
(2.99968 -0.000253366 0)
(2.99965 -0.000278188 0)
(2.9996 -0.000340554 0)
(2.99955 -0.000391078 0)
(2.99949 -0.00046817 0)
(2.99937 -0.000627209 0)
(3.02666 -0.101416 0)
(1.78859 -0.834333 0)
(2.99969 -0.000234501 0)
(2.99967 -0.000244684 0)
(2.99963 -0.000282522 0)
(2.99959 -0.000302096 0)
(2.99955 -0.000357433 0)
(2.99948 -0.000419214 0)
(2.99943 -0.000471867 0)
(2.99935 -0.00219526 0)
(2.45628 -0.607579 0)
(1.61978 -0.903826 0)
(2.99965 -0.000243607 0)
(2.99962 -0.000270657 0)
(2.99958 -0.000291573 0)
(2.99953 -0.00035688 0)
(2.99949 -0.000377253 0)
(2.99942 -0.000460944 0)
(2.99929 -0.000576539 0)
(3.02857 -0.0293091 0)
(1.78102 -0.813378 0)
(1.55687 -0.898517 0)
(2.9996 -0.000259257 0)
(2.99957 -0.000278335 0)
(2.99952 -0.000322667 0)
(2.99948 -0.000351613 0)
(2.99941 -0.000435822 0)
(2.99935 -0.000468504 0)
(2.99919 -0.000734787 0)
(2.68825 -0.461955 0)
(1.58484 -0.865459 0)
(1.53816 -0.892356 0)
(2.99953 -0.000257093 0)
(2.9995 -0.000285855 0)
(2.99945 -0.000338953 0)
(2.9994 -0.000393721 0)
(2.99934 -0.000444689 0)
(2.99922 -0.000571143 0)
(3.0091 -0.0100631 0)
(1.75162 -0.785139 0)
(1.47572 -0.86867 0)
(1.52152 -0.879519 0)
(2.99947 -0.000239852 0)
(2.99943 -0.000258058 0)
(2.99937 -0.000322047 0)
(2.99931 -0.000378298 0)
(2.99925 -0.000422901 0)
(2.99913 -0.000545789 0)
(2.80458 -0.357195 0)
(1.54138 -0.834154 0)
(1.45665 -0.863117 0)
(1.50389 -0.874747 0)
(2.99946 -0.000209483 0)
(2.99941 -0.000241668 0)
(2.99933 -0.000281288 0)
(2.99926 -0.000325506 0)
(2.99917 -0.000442705 0)
(3.00286 -0.00375735 0)
(1.72844 -0.751479 0)
(1.41995 -0.836898 0)
(1.44843 -0.849669 0)
(1.49024 -0.869549 0)
(2.99941 -0.00018131 0)
(2.99936 -0.000212406 0)
(2.9993 -0.000259394 0)
(2.99922 -0.000284351 0)
(2.99907 -0.000408684 0)
(2.80124 -0.369125 0)
(1.47336 -0.808514 0)
(1.40342 -0.836916 0)
(1.43339 -0.849325 0)
(1.4767 -0.868998 0)
(2.99933 -0.000174146 0)
(2.99928 -0.000202662 0)
(2.99923 -0.000231962 0)
(2.99912 -0.000300603 0)
(3.00344 -0.00487478 0)
(1.62718 -0.76251 0)
(1.37459 -0.82906 0)
(1.41376 -0.83917 0)
(1.43194 -0.860453 0)
(1.47234 -0.876305 0)
(2.99928 -0.000124331 0)
(2.99922 -0.000161866 0)
(2.99915 -0.000186179 0)
(2.99902 -0.000268546 0)
(2.53795 -0.460012 0)
(1.36322 -0.853045 0)
(1.38092 -0.86186 0)
(1.42071 -0.868306 0)
(1.44975 -0.870887 0)
(1.48207 -0.885542 0)
(2.99921 -0.000109195 0)
(2.99915 -0.00010612 0)
(2.9992 -0.000156376 0)
(3.0035 -0.0050992 0)
(1.54152 -0.81397 0)
(1.37606 -0.871584 0)
(1.43992 -0.87099 0)
(1.47323 -0.869034 0)
(1.48998 -0.879483 0)
(1.50494 -0.889342 0)
(3.00216 0.00303466 0)
(2.99109 -0.00871914 0)
(2.978 -0.0211272 0)
(2.1488 -0.696239 0)
(1.24934 -1.01905 0)
(1.36285 -0.952333 0)
(1.44948 -0.951434 0)
(1.49407 -0.929501 0)
(1.51303 -0.915706 0)
(1.51832 -0.908635 0)
(2.8282 -0.0676852 0)
(2.65804 -0.216 0)
(2.62447 -0.226124 0)
(1.92296 -0.588294 0)
(1.4705 -0.767372 0)
(1.5316 -0.837792 0)
(1.55793 -0.912093 0)
(1.56282 -0.922827 0)
(1.55333 -0.914037 0)
(1.54583 -0.905724 0)
(2.23067 -0.641104 0)
(2.10153 -0.762139 0)
(2.24766 -0.643725 0)
(2.46121 -0.372539 0)
(2.59947 -0.163605 0)
(2.66792 0.0942834 0)
(2.60178 0.24915 0)
(2.34859 0.597091 0)
(2.13661 0.479809 0)
(2.08232 0.328531 0)
(2.14815 -0.663797 0)
(2.09729 -0.753068 0)
(2.27344 -0.615516 0)
(2.48514 -0.34348 0)
(2.61354 -0.130626 0)
(2.68135 0.123957 0)
(2.62124 0.26214 0)
(2.35451 0.568806 0)
(2.1539 0.478533 0)
(2.09032 0.327292 0)
(2.06244 -0.717633 0)
(2.0962 -0.736602 0)
(2.30298 -0.579979 0)
(2.51846 -0.292107 0)
(2.6336 -0.0838613 0)
(2.69113 0.152258 0)
(2.63587 0.25997 0)
(2.35315 0.533045 0)
(2.1722 0.476156 0)
(2.09926 0.32717 0)
(2.00466 -0.764834 0)
(2.09766 -0.71582 0)
(2.32316 -0.5377 0)
(2.53555 -0.260457 0)
(2.65136 -0.0458777 0)
(2.70314 0.183523 0)
(2.64957 0.266602 0)
(2.35173 0.491463 0)
(2.19127 0.46572 0)
(2.10824 0.324115 0)
(1.95995 -0.79427 0)
(2.11481 -0.684188 0)
(2.35306 -0.484097 0)
(2.57003 -0.198241 0)
(2.67589 -0.00310698 0)
(2.71008 0.201528 0)
(2.66085 0.263922 0)
(2.34674 0.444786 0)
(2.20279 0.452842 0)
(2.11531 0.328505 0)
(1.90349 -0.825981 0)
(2.12267 -0.660591 0)
(2.37941 -0.437234 0)
(2.58427 -0.157256 0)
(2.70275 0.0377595 0)
(2.71326 0.215883 0)
(2.67019 0.257691 0)
(2.32759 0.400402 0)
(2.1882 0.434047 0)
(2.12153 0.329712 0)
(1.85625 -0.845392 0)
(2.14447 -0.635024 0)
(2.40984 -0.398137 0)
(2.61631 -0.0881712 0)
(2.72693 0.0729967 0)
(2.70762 0.225845 0)
(2.68192 0.249143 0)
(2.33164 0.352755 0)
(2.17348 0.417139 0)
(2.12428 0.336414 0)
(1.85023 -0.835992 0)
(2.19473 -0.592747 0)
(2.45399 -0.345171 0)
(2.6338 -0.042245 0)
(2.73567 0.114394 0)
(2.71434 0.219876 0)
(2.68251 0.234354 0)
(2.31721 0.296152 0)
(2.15043 0.401741 0)
(2.12822 0.339342 0)
(1.8502 -0.823949 0)
(2.21553 -0.564708 0)
(2.47665 -0.314623 0)
(2.66268 0.0324293 0)
(2.74464 0.151256 0)
(2.72593 0.226832 0)
(2.68175 0.213009 0)
(2.33293 0.250707 0)
(2.14162 0.386234 0)
(2.13347 0.339608 0)
(1.86409 -0.802128 0)
(2.25386 -0.515486 0)
(2.51042 -0.265923 0)
(2.67853 0.0690594 0)
(2.74424 0.181517 0)
(2.73194 0.230801 0)
(2.67792 0.191057 0)
(2.35013 0.203507 0)
(2.13716 0.367009 0)
(2.13743 0.338278 0)
(1.87377 -0.786174 0)
(2.2741 -0.476454 0)
(2.54079 -0.214736 0)
(2.70705 0.139913 0)
(2.74126 0.212829 0)
(2.73142 0.238163 0)
(2.67069 0.170009 0)
(2.36773 0.167059 0)
(2.12934 0.344615 0)
(2.13289 0.332987 0)
(1.8951 -0.762151 0)
(2.31276 -0.414779 0)
(2.57033 -0.16409 0)
(2.72392 0.165361 0)
(2.73457 0.235704 0)
(2.72747 0.248224 0)
(2.65544 0.154188 0)
(2.39875 0.131483 0)
(2.11313 0.329929 0)
(2.11778 0.324901 0)
(1.91406 -0.741785 0)
(2.34185 -0.362774 0)
(2.61304 -0.0801364 0)
(2.74023 0.22038 0)
(2.73002 0.259236 0)
(2.71952 0.249749 0)
(2.63784 0.144253 0)
(2.42707 0.101263 0)
(2.08287 0.328363 0)
(2.09539 0.317218 0)
(1.94358 -0.712428 0)
(2.39259 -0.275613 0)
(2.64235 -0.039288 0)
(2.73711 0.230873 0)
(2.72558 0.25633 0)
(2.70411 0.240957 0)
(2.61876 0.129611 0)
(2.44338 0.0755013 0)
(2.03372 0.301426 0)
(2.05263 0.303869 0)
(1.97564 -0.67173 0)
(2.42893 -0.209446 0)
(2.68626 0.0554129 0)
(2.73295 0.261816 0)
(2.71469 0.255848 0)
(2.68902 0.220209 0)
(2.59901 0.104025 0)
(2.44597 0.0385267 0)
(1.962 0.291994 0)
(1.97628 0.297706 0)
(2.01214 -0.622023 0)
(2.49351 -0.100376 0)
(2.7136 0.0921651 0)
(2.72403 0.256903 0)
(2.69919 0.244085 0)
(2.67141 0.194505 0)
(2.5931 0.0743641 0)
(2.42586 0.0140983 0)
(1.88337 0.276855 0)
(1.87796 0.288369 0)
(2.07393 -0.539831 0)
(2.56274 -0.0151904 0)
(2.74707 0.192161 0)
(2.72104 0.261047 0)