/*--------------------------------*- C++ -*----------------------------------*\
  =========                 |
  \\      /  F ield         | OpenFOAM: The Open Source CFD Toolbox
   \\    /   O peration     | Website:  https://openfoam.org
    \\  /    A nd           | Version:  7
     \\/     M anipulation  |
\*---------------------------------------------------------------------------*/
FoamFile
{
    version     2.0;
    format      ascii;
    class       volScalarField;
    location    "0.2";
    object      T;
}
// * * * * * * * * * * * * * * * * * * * * * * * * * * * * * * * * * * * * * //

dimensions      [0 0 0 1 0 0 0];

internalField   nonuniform List<scalar> 
3225
(
1
1
1
1
1
1
1
1
1
1
1.00032
1.01484
1.08479
1.14566
1.16812
1.16972
1.16842
1.16542
1.16261
1.16062
1.15937
1.15906
1.15834
1.15628
1.15363
1.15125
1.14934
1
1
1
1
1
1
1
1
1
1.00009
1.008
1.0726
1.14159
1.16103
1.16745
1.16799
1.16732
1.16558
1.16301
1.16087
1.15918
1.15795
1.15686
1.15531
1.15333
1.15134
1.14938
1
1
1
1
1
1
1
1
1.00002
1.00322
1.0491
1.13601
1.16471
1.16644
1.16614
1.16555
1.16532
1.16488
1.16341
1.16145
1.15941
1.15743
1.15563
1.1543
1.15312
1.15146
1.14933
1
1
1
1
1
1
1
1
1.00127
1.03046
1.11254
1.16395
1.1705
1.1696
1.16681
1.16494
1.16378
1.16337
1.16289
1.16161
1.15963
1.15737
1.15527
1.15364
1.15263
1.15125
1.14905
1
1
1
1
1
1
1
1.00053
1.01977
1.09585
1.15169
1.17089
1.17145
1.17031
1.1679
1.16554
1.1636
1.16229
1.16162
1.16099
1.15949
1.15745
1.15536
1.15345
1.15196
1.15055
1.14854
1
1
1
1
1
1
1.00016
1.01076
1.08258
1.14953
1.16598
1.17076
1.17047
1.16965
1.16817
1.16619
1.16406
1.16223
1.16083
1.15982
1.15883
1.15737
1.1555
1.15347
1.15147
1.14973
1.14808
1
1
1
1
1
1.00004
1.00502
1.05818
1.14279
1.16912
1.1703
1.16987
1.16907
1.16839
1.16788
1.16653
1.16463
1.16262
1.16077
1.15912
1.15793
1.15694
1.1555
1.15347
1.15128
1.14923
1.14754
1
1
1
1
1.00002
1.00256
1.04131
1.12194
1.16629
1.17257
1.17242
1.17078
1.16923
1.16795
1.1669
1.16603
1.16489
1.16309
1.16107
1.1591
1.15737
1.15616
1.15506
1.15334
1.15118
1.14904
1.14708
1
1
1
1
1.00119
1.0301
1.11219
1.1571
1.17149
1.17336
1.17287
1.1713
1.16961
1.16784
1.1664
1.16527
1.16441
1.16317
1.16126
1.15917
1.15714
1.15546
1.15426
1.15288
1.15105
1.1489
1.14676
1
1
1
1.00043
1.01771
1.09877
1.15911
1.16963
1.17216
1.17192
1.17168
1.17097
1.16959
1.16811
1.16651
1.16506
1.16377
1.16269
1.16126
1.15929
1.15722
1.15526
1.15359
1.15223
1.15064
1.14868
1.14652
1
1
1.00019
1.01045
1.07517
1.15029
1.17328
1.17302
1.17222
1.17119
1.17049
1.17017
1.16966
1.16835
1.16677
1.16509
1.16353
1.16215
1.16095
1.1594
1.15743
1.15531
1.15328
1.1516
1.1501
1.14833
1.14625
1
1.00008
1.00664
1.06347
1.13604
1.16752
1.1742
1.17403
1.17334
1.17221
1.1709
1.16976
1.16886
1.16811
1.16678
1.16521
1.16356
1.162
1.16055
1.15923
1.1575
1.15543
1.15327
1.15124
1.14956
1.14785
1.1459
1.00003
1.00356
1.04969
1.13434
1.16489
1.17136
1.17312
1.1744
1.17404
1.17303
1.17145
1.16969
1.16833
1.16734
1.16658
1.16525
1.16363
1.16188
1.16021
1.1588
1.15742
1.15555
1.15338
1.15117
1.14914
1.14736
1.14541
1.00179
1.0342
1.1187
1.1679
1.17293
1.17266
1.17247
1.17307
1.17349
1.17284
1.17147
1.16996
1.16841
1.1671
1.16607
1.16507
1.16352
1.16174
1.16002
1.15848
1.15717
1.15556
1.15346
1.15118
1.14896
1.14695
1.14497
1.02592
1.10224
1.15709
1.17481
1.17524
1.17474
1.17352
1.17283
1.1725
1.17217
1.17155
1.17022
1.16875
1.16723
1.16584
1.16462
1.1634
1.16182
1.16007
1.15837
1.15685
1.15535
1.15344
1.15122
1.14895
1.14675
1.14462
1.09732
1.15345
1.16749
1.1737
1.17526
1.17545
1.17504
1.17381
1.17265
1.17167
1.17102
1.17027
1.16898
1.16745
1.16581
1.16434
1.16314
1.16178
1.16012
1.15832
1.15655
1.15492
1.15322
1.15122
1.149
1.14667
1.14437
1.15414
1.17142
1.17189
1.1724
1.17392
1.17548
1.17559
1.17484
1.17342
1.17183
1.1706
1.16977
1.16889
1.16749
1.16588
1.16432
1.16289
1.1616
1.16006
1.15825
1.15637
1.15458
1.15288
1.15106
1.14898
1.14664
1.14422
1.17158
1.17567
1.17531
1.17347
1.17358
1.17435
1.1754
1.17511
1.17389
1.1722
1.17054
1.1693
1.16851
1.16752
1.16607
1.16442
1.16275
1.16128
1.15992
1.15829
1.1564
1.15444
1.15257
1.15071
1.14875
1.14657
1.14417
1.17436
1.17593
1.17594
1.17532
1.17435
1.17421
1.17464
1.17498
1.17393
1.17235
1.17077
1.16936
1.16824
1.16745
1.16615
1.16445
1.16269
1.16109
1.15972
1.15824
1.15641
1.15438
1.15233
1.15036
1.14842
1.14637
1.14409
1.17219
1.17446
1.17635
1.17657
1.176
1.1751
1.17458
1.17423
1.17379
1.17259
1.17109
1.16958
1.16817
1.16708
1.166
1.16447
1.16275
1.16105
1.15953
1.15804
1.15628
1.15424
1.15217
1.15014
1.14813
1.14609
1.14387
1.1728
1.17378
1.17567
1.17702
1.17687
1.17611
1.17499
1.17398
1.17325
1.17257
1.17125
1.16971
1.16816
1.16681
1.16573
1.16444
1.1628
1.16107
1.15935
1.15773
1.15601
1.15406
1.15204
1.15
1.14787
1.14572
1.14349
1.17487
1.17441
1.17512
1.17654
1.17713
1.17657
1.17553
1.17419
1.17298
1.17217
1.1712
1.16975
1.16819
1.16676
1.16551
1.1643
1.16274
1.16096
1.15915
1.15744
1.15575
1.15387
1.15186
1.14979
1.14759
1.14534
1.14306
1.17631
1.17596
1.17574
1.17615
1.177
1.17688
1.17591
1.17451
1.17301
1.17183
1.17095
1.16979
1.16832
1.16682
1.16536
1.16402
1.16256
1.16086
1.15906
1.15727
1.1555
1.15359
1.15153
1.14945
1.14728
1.14502
1.14268
1.17728
1.17725
1.17674
1.17654
1.17681
1.17697
1.1761
1.17464
1.1731
1.17176
1.17077
1.16975
1.16838
1.16682
1.16523
1.16376
1.16232
1.16072
1.15895
1.1571
1.15523
1.15326
1.15116
1.14907
1.14693
1.14472
1.14233
1.17744
1.17778
1.17737
1.17712
1.17703
1.17679
1.17594
1.17462
1.1732
1.17189
1.17077
1.16964
1.16828
1.16675
1.16517
1.16367
1.16217
1.16055
1.15876
1.15687
1.15496
1.15301
1.1509
1.14876
1.14657
1.14435
1.14196
1.17702
1.17796
1.1779
1.17769
1.17738
1.17669
1.17573
1.17454
1.17327
1.17203
1.17079
1.16952
1.16816
1.16671
1.16519
1.16365
1.16206
1.16036
1.15854
1.15665
1.15473
1.15281
1.15071
1.14852
1.14625
1.14395
1.14159
1.17726
1.17822
1.17835
1.17808
1.17758
1.17677
1.17572
1.17451
1.17324
1.17199
1.17074
1.16949
1.16814
1.16668
1.16515
1.16357
1.16194
1.16021
1.1584
1.15652
1.15458
1.15262
1.1505
1.14831
1.14599
1.14362
1.14127
1.17787
1.17854
1.17849
1.17815
1.17765
1.17692
1.17583
1.1745
1.17315
1.17189
1.17071
1.16951
1.16815
1.16664
1.16507
1.16348
1.16185
1.16014
1.15832
1.15646
1.1545
1.15248
1.15031
1.1481
1.14583
1.14341
1.14099
1.17848
1.17882
1.17861
1.1783
1.1778
1.17704
1.17591
1.17451
1.17314
1.17187
1.17071
1.16953
1.16812
1.16657
1.16499
1.16343
1.16182
1.16009
1.15822
1.15634
1.15439
1.15239
1.1502
1.14795
1.1457
1.14323
1.14073
1.17874
1.17904
1.17895
1.17862
1.17797
1.17701
1.17586
1.17456
1.17323
1.17193
1.17068
1.16945
1.16808
1.16657
1.165
1.16342
1.16178
1.16003
1.15813
1.15621
1.15426
1.15228
1.15015
1.14784
1.14555
1.1431
1.14052
1.1788
1.17927
1.17939
1.17894
1.17805
1.17692
1.17581
1.17465
1.17335
1.17197
1.17061
1.16935
1.16806
1.16663
1.16506
1.16339
1.16167
1.15993
1.15809
1.15619
1.1542
1.15217
1.15003
1.14769
1.14536
1.14296
1.14035
1.17926
1.17962
1.17966
1.17907
1.17813
1.177
1.17593
1.17474
1.17338
1.17195
1.17059
1.16937
1.1681
1.16666
1.16503
1.16331
1.16156
1.15985
1.15806
1.15619
1.15415
1.15202
1.14983
1.14749
1.14515
1.14277
1.14018
1.17996
1.17997
1.17967
1.17908
1.17831
1.17725
1.17607
1.17473
1.17333
1.17198
1.17072
1.16949
1.16814
1.16661
1.16495
1.16325
1.16154
1.15984
1.15802
1.1561
1.15402
1.15183
1.14963
1.14734
1.14497
1.14256
1.13994
1.18044
1.18011
1.17973
1.17932
1.17859
1.17747
1.17614
1.17472
1.17336
1.17212
1.17091
1.16959
1.16812
1.16653
1.16489
1.16325
1.16156
1.15982
1.15793
1.15594
1.15383
1.15167
1.14948
1.14719
1.14478
1.14228
1.13963
1.18054
1.18037
1.18017
1.1797
1.17876
1.17752
1.17619
1.17486
1.17356
1.1723
1.17101
1.16961
1.16812
1.16657
1.16494
1.1633
1.16157
1.15975
1.1578
1.15581
1.15373
1.15156
1.14934
1.14701
1.14452
1.14197
1.13931
1.18074
1.18101
1.18077
1.17992
1.17872
1.1775
1.17635
1.17514
1.17379
1.17238
1.17102
1.16967
1.16826
1.16672
1.16504
1.16331
1.16152
1.15967
1.15774
1.15577
1.1537
1.1515
1.14917
1.14677
1.14425
1.1417
1.13904
1.18139
1.18165
1.1811
1.18
1.17875
1.17767
1.17665
1.17535
1.17386
1.1724
1.17109
1.16988
1.1685
1.16687
1.16508
1.16329
1.1615
1.15969
1.15777
1.15577
1.15364
1.15137
1.14896
1.14654
1.14402
1.14146
1.1388
1.18211
1.18193
1.18112
1.18007
1.17901
1.17805
1.17685
1.17536
1.17386
1.17252
1.1714
1.17017
1.16866
1.1669
1.16507
1.16331
1.16157
1.15981
1.15787
1.15579
1.15356
1.15122
1.1488
1.14638
1.14387
1.14124
1.13852
1.18245
1.18184
1.18113
1.18034
1.17951
1.17835
1.17683
1.1753
1.17397
1.1729
1.17178
1.17032
1.16861
1.16684
1.16511
1.16346
1.16178
1.15995
1.15792
1.15576
1.15349
1.15115
1.14872
1.14626
1.14371
1.14099
1.1382
1.18252
1.18186
1.18138
1.18086
1.1799
1.17835
1.17676
1.17538
1.17437
1.17337
1.17197
1.17025
1.16849
1.16684
1.16532
1.16375
1.16197
1.16001
1.1579
1.15574
1.15349
1.15117
1.14871
1.14617
1.14354
1.14078
1.13792
1.1826
1.18222
1.1819
1.18131
1.17992
1.17829
1.17683
1.17577
1.1749
1.17361
1.17188
1.17012
1.16849
1.16708
1.16567
1.164
1.16203
1.15997
1.15785
1.15573
1.1535
1.15115
1.14865
1.14605
1.14338
1.14062
1.13773
1.183
1.18284
1.18245
1.18135
1.1798
1.17833
1.17719
1.17633
1.17519
1.17353
1.17177
1.17013
1.16875
1.16747
1.16593
1.16406
1.16199
1.15993
1.15787
1.15576
1.15349
1.15109
1.14858
1.14599
1.1433
1.14054
1.13764
1.18366
1.18352
1.18269
1.18123
1.17979
1.17865
1.17779
1.17673
1.17514
1.17342
1.1718
1.17046
1.16922
1.16776
1.16597
1.164
1.16197
1.15999
1.15793
1.15574
1.15341
1.15102
1.14855
1.14599
1.14325
1.14044
1.13751
1.18439
1.18395
1.18267
1.18121
1.18002
1.17923
1.1783
1.17676
1.17504
1.17344
1.17214
1.17097
1.16958
1.16782
1.16591
1.16401
1.16211
1.16013
1.15795
1.15567
1.15333
1.151
1.14856
1.14597
1.14316
1.14027
1.13733
1.18491
1.18405
1.18267
1.18141
1.18055
1.1798
1.17843
1.17671
1.17508
1.17374
1.17267
1.17139
1.16968
1.1678
1.16595
1.16419
1.16232
1.16023
1.15793
1.15562
1.15335
1.15107
1.14856
1.14586
1.14297
1.14006
1.13716
1.1851
1.18406
1.18289
1.1819
1.18116
1.18001
1.17838
1.17676
1.17535
1.17425
1.1731
1.17149
1.16969
1.16789
1.1662
1.16447
1.16246
1.16025
1.15794
1.15571
1.1535
1.15114
1.14848
1.14563
1.14273
1.13992
1.13709
1.1851
1.18425
1.18337
1.18256
1.18149
1.17995
1.17838
1.177
1.17587
1.17472
1.17319
1.17147
1.16978
1.16819
1.16654
1.16463
1.16248
1.16027
1.15809
1.15597
1.15366
1.15109
1.14826
1.1454
1.14259
1.13991
1.13707
1.18523
1.18468
1.18405
1.18305
1.18152
1.17995
1.17859
1.17751
1.1764
1.17488
1.17316
1.17155
1.1701
1.16856
1.16673
1.16465
1.16248
1.16045
1.15843
1.15621
1.15366
1.1509
1.14806
1.14531
1.14263
1.13994
1.13701
1.18564
1.1853
1.18459
1.18317
1.18156
1.18015
1.17908
1.17809
1.17664
1.17489
1.17326
1.17189
1.1705
1.16877
1.16673
1.16464
1.16268
1.16083
1.15873
1.15625
1.15349
1.1507
1.14801
1.14544
1.14276
1.13993
1.13684
1.18625
1.18583
1.18471
1.18318
1.18176
1.18064
1.1797
1.1784
1.17669
1.17503
1.17364
1.17235
1.17073
1.16877
1.16672
1.16484
1.16309
1.16116
1.15877
1.1561
1.15332
1.1507
1.14822
1.14567
1.14285
1.13979
1.13659
1.18682
1.186
1.18466
1.18334
1.18225
1.18128
1.18008
1.17846
1.17683
1.17544
1.1742
1.17266
1.17076
1.16878
1.16692
1.16528
1.16347
1.16123
1.15863
1.15595
1.15335
1.151
1.14853
1.14582
1.14277
1.13954
1.13632
1.18709
1.18596
1.18478
1.1838
1.18289
1.18171
1.18015
1.17856
1.17721
1.17606
1.17463
1.17275
1.17078
1.16896
1.1674
1.16572
1.16358
1.1611
1.15848
1.15601
1.15371
1.15137
1.14872
1.14575
1.14256
1.13933
1.13614
1.18712
1.18607
1.18519
1.18442
1.18336
1.18181
1.18022
1.17886
1.17782
1.17657
1.17476
1.1728
1.17095
1.16944
1.16792
1.16591
1.16349
1.16099
1.15856
1.15639
1.15413
1.15161
1.14868
1.14554
1.14237
1.13925
1.13605
1.18724
1.18643
1.18575
1.18492
1.1835
1.18189
1.18047
1.17944
1.1784
1.17674
1.17481
1.17296
1.17141
1.17002
1.16821
1.16588
1.16341
1.16107
1.15894
1.15683
1.1544
1.15157
1.14849
1.14539
1.14234
1.13926
1.13597
1.18755
1.18689
1.18621
1.18508
1.18356
1.18214
1.18103
1.18005
1.17862
1.17677
1.17494
1.17336
1.17202
1.17042
1.16823
1.16585
1.1635
1.16144
1.15941
1.15713
1.15439
1.15142
1.14837
1.14541
1.14241
1.13927
1.13585
1.18788
1.18726
1.18638
1.18509
1.18381
1.18269
1.18165
1.18037
1.17863
1.17687
1.17531
1.17398
1.17252
1.1705
1.16821
1.16596
1.16389
1.16195
1.15975
1.15715
1.15426
1.15133
1.14845
1.14558
1.14251
1.13922
1.13573
1.18812
1.1874
1.18635
1.18528
1.18431
1.18328
1.18204
1.1804
1.17871
1.17722
1.17595
1.17454
1.17266
1.17048
1.1683
1.16633
1.16443
1.16234
1.15983
1.15707
1.15422
1.15146
1.14868
1.14576
1.14253
1.13914
1.13568
1.18822
1.18735
1.18642
1.18564
1.1848
1.18365
1.18209
1.18046
1.17904
1.17787
1.17656
1.17476
1.17264
1.17055
1.16864
1.16686
1.16488
1.16248
1.15978
1.15706
1.15439
1.15176
1.14891
1.14582
1.1425
1.13911
1.13568
1.18823
1.18733
1.18657
1.18598
1.18509
1.18369
1.18211
1.18075
1.17965
1.1785
1.17685
1.17478
1.17272
1.17088
1.16919
1.16732
1.16504
1.16246
1.15981
1.15729
1.15477
1.15206
1.14902
1.14579
1.1425
1.13918
1.13568
1.18823
1.18737
1.18672
1.18617
1.18511
1.18365
1.18232
1.18123
1.18021
1.17882
1.17687
1.17486
1.17306
1.17145
1.1697
1.16753
1.16504
1.1625
1.16007
1.15772
1.15512
1.15221
1.14903
1.14583
1.14263
1.13928
1.13558
1.18835
1.1875
1.18687
1.18618
1.18503
1.18377
1.18266
1.18165
1.1805
1.17879
1.17692
1.17521
1.17368
1.17201
1.16995
1.16757
1.16511
1.16279
1.16053
1.15809
1.15528
1.15224
1.14911
1.14603
1.1428
1.13926
1.13531
1.18868
1.18777
1.18697
1.18608
1.18505
1.18402
1.18298
1.18187
1.18042
1.17876
1.17724
1.17578
1.17422
1.17229
1.17003
1.1677
1.16546
1.16329
1.16094
1.15826
1.15531
1.15232
1.14935
1.14629
1.14286
1.13909
1.13507
1.18932
1.18817
1.18705
1.18602
1.18515
1.18427
1.18318
1.18182
1.18033
1.179
1.1777
1.17623
1.17443
1.17234
1.17018
1.16814
1.16606
1.16375
1.16113
1.15829
1.15539
1.15258
1.14966
1.14644
1.14278
1.13892
1.13506
1.19027
1.18878
1.18734
1.18616
1.18535
1.18446
1.18317
1.18176
1.18051
1.17937
1.17805
1.17635
1.17438
1.17242
1.17067
1.16879
1.1666
1.16402
1.16121
1.15838
1.15566
1.15294
1.14987
1.14641
1.14265
1.13894
1.1353
1.19157
1.18973
1.18802
1.18663
1.18563
1.18449
1.18311
1.18187
1.18083
1.17969
1.17814
1.17625
1.17442
1.17286
1.17123
1.16926
1.16686
1.16415
1.16136
1.15873
1.15611
1.1532
1.14986
1.14629
1.14267
1.13921
1.1356
1.19321
1.191
1.18906
1.18742
1.18603
1.18456
1.18318
1.18207
1.1811
1.17979
1.17805
1.17631
1.1748
1.17331
1.1716
1.16939
1.16689
1.16431
1.16181
1.15929
1.15648
1.15326
1.14977
1.14629
1.14296
1.13958
1.13575
1.19482
1.19246
1.19037
1.1885
1.1867
1.18496
1.1835
1.18236
1.18117
1.17969
1.17814
1.17671
1.17527
1.17362
1.17158
1.16929
1.16696
1.16473
1.16242
1.15977
1.15665
1.15325
1.14979
1.14659
1.14338
1.1398
1.1356
1.1962
1.19392
1.19179
1.18977
1.18776
1.18583
1.18415
1.18265
1.18109
1.17962
1.1784
1.17717
1.17562
1.17364
1.17141
1.16926
1.1673
1.16522
1.16283
1.15996
1.15669
1.15333
1.15017
1.1471
1.14368
1.13972
1.13526
1.19751
1.19531
1.19319
1.19117
1.18914
1.18713
1.18512
1.18305
1.18115
1.17969
1.17865
1.17745
1.17568
1.17355
1.17148
1.16958
1.16768
1.16552
1.16289
1.15993
1.1568
1.15384
1.15081
1.14751
1.14368
1.13945
1.13497
1.19882
1.19665
1.19454
1.19271
1.19092
1.18872
1.18632
1.18382
1.18161
1.18003
1.17891
1.17743
1.17556
1.17368
1.17192
1.17003
1.16791
1.16546
1.16275
1.15998
1.15732
1.15453
1.15134
1.14764
1.14351
1.13923
1.135
1.20025
1.19808
1.19599
1.1942
1.1927
1.19046
1.18772
1.18503
1.18259
1.1807
1.17908
1.17727
1.17552
1.17399
1.1724
1.17036
1.16791
1.16527
1.16274
1.16042
1.15792
1.15503
1.15155
1.1476
1.14339
1.13931
1.13532
1.20153
1.19966
1.19752
1.19569
1.19414
1.19196
1.18922
1.1865
1.18397
1.18166
1.17938
1.17729
1.17563
1.17426
1.17262
1.1704
1.16788
1.16543
1.16318
1.1609
1.15832
1.15517
1.15149
1.14752
1.14355
1.13975
1.13573
1.20226
1.20107
1.19917
1.19723
1.19542
1.19313
1.19056
1.18802
1.18551
1.18287
1.18014
1.17776
1.17599
1.17445
1.17253
1.17033
1.16811
1.16596
1.16372
1.16123
1.1583
1.155
1.15135
1.14775
1.14412
1.1403
1.13597
1.2024
1.20194
1.20068
1.19891
1.19676
1.19425
1.1917
1.18938
1.187
1.18428
1.18141
1.17881
1.17661
1.1745
1.17237
1.17041
1.16859
1.16655
1.16411
1.16124
1.15806
1.1548
1.15159
1.14836
1.14473
1.14063
1.13594
1.20228
1.2022
1.20165
1.20027
1.19809
1.19544
1.19286
1.19055
1.18843
1.18591
1.18312
1.18027
1.17742
1.17468
1.1724
1.17066
1.16901
1.16688
1.16415
1.16108
1.15797
1.15508
1.15214
1.14889
1.14507
1.14066
1.13579
1.20216
1.20213
1.20194
1.20111
1.19934
1.19683
1.19418
1.19181
1.18987
1.18783
1.18503
1.18184
1.17847
1.17532
1.17284
1.17111
1.16933
1.16688
1.16403
1.16113
1.15835
1.15561
1.15257
1.14913
1.14506
1.14054
1.13571
1.20219
1.20199
1.20184
1.20133
1.20007
1.19805
1.19561
1.19323
1.19132
1.18955
1.18682
1.18336
1.17978
1.17645
1.17378
1.17171
1.16943
1.16679
1.1641
1.16155
1.15891
1.15602
1.15272
1.14902
1.14486
1.1405
1.13593
1.20253
1.20196
1.20164
1.20124
1.2004
1.19888
1.19683
1.19465
1.19277
1.19095
1.18822
1.18478
1.18129
1.178
1.17511
1.1724
1.16957
1.16688
1.16443
1.16201
1.15928
1.15613
1.15257
1.14878
1.14486
1.14084
1.13635
1.20327
1.20223
1.20157
1.2011
1.20049
1.19941
1.19781
1.19597
1.1942
1.19213
1.18932
1.18614
1.18293
1.17977
1.1766
1.17327
1.17007
1.16733
1.1649
1.16236
1.15936
1.156
1.15241
1.14889
1.14521
1.14124
1.13661
1.20434
1.2029
1.20181
1.20109
1.20051
1.19971
1.19852
1.19702
1.19532
1.1931
1.19033
1.18746
1.18463
1.18157
1.17813
1.17448
1.17108
1.16813
1.16543
1.16251
1.15929
1.15598
1.15264
1.14931
1.14558
1.14144
1.13661
1.20556
1.2039
1.20246
1.20137
1.20063
1.19993
1.19898
1.19772
1.19611
1.19395
1.19136
1.18874
1.1862
1.18328
1.17979
1.17607
1.17249
1.16917
1.16593
1.16266
1.15941
1.15631
1.15313
1.14969
1.14573
1.14139
1.13648
1.20682
1.20506
1.2034
1.202
1.20097
1.20016
1.19927
1.1981
1.19656
1.19458
1.19229
1.18992
1.1876
1.18496
1.18166
1.17792
1.17407
1.17025
1.16653
1.1631
1.15995
1.15691
1.15358
1.14987
1.14568
1.14127
1.13651
1.20802
1.20629
1.20448
1.20285
1.20156
1.20049
1.19949
1.19831
1.19683
1.19507
1.19308
1.19094
1.18884
1.18659
1.18355
1.17972
1.17557
1.17141
1.16749
1.16403
1.16087
1.15758
1.15388
1.14989
1.14563
1.14135
1.13671
1.20922
1.20751
1.20564
1.20383
1.20228
1.20098
1.19973
1.19849
1.19708
1.19548
1.19372
1.19183
1.18995
1.18805
1.1852
1.18128
1.17701
1.1728
1.1689
1.16541
1.16198
1.15822
1.15413
1.14999
1.14581
1.14161
1.13688
1.21036
1.20874
1.20686
1.20492
1.20314
1.20161
1.20013
1.19873
1.19736
1.19587
1.19427
1.19259
1.19094
1.18921
1.18644
1.18261
1.17849
1.17446
1.17068
1.16702
1.16311
1.15888
1.15456
1.15041
1.14623
1.14185
1.13685
1.21132
1.2099
1.20811
1.20613
1.20417
1.20239
1.20078
1.19916
1.1977
1.19627
1.19477
1.19327
1.19179
1.19006
1.18732
1.18376
1.17999
1.17626
1.17258
1.16862
1.16428
1.15979
1.15538
1.15113
1.14672
1.14197
1.13669
1.21208
1.21091
1.20929
1.20737
1.20534
1.20336
1.20155
1.19985
1.19817
1.1967
1.19526
1.19383
1.19237
1.19056
1.18799
1.18481
1.18147
1.17806
1.17441
1.17022
1.16569
1.16109
1.15656
1.15201
1.14718
1.14208
1.13673
1.21267
1.21175
1.21034
1.20856
1.20656
1.20448
1.20249
1.20065
1.19888
1.1972
1.19572
1.19425
1.19271
1.19089
1.18856
1.18578
1.18285
1.17973
1.17614
1.17192
1.16736
1.16266
1.15787
1.15291
1.14771
1.14248
1.13718
1.21312
1.21243
1.21125
1.20965
1.20774
1.20566
1.20355
1.20158
1.19969
1.19783
1.19614
1.19457
1.19294
1.19114
1.18906
1.18666
1.18406
1.18121
1.17779
1.17365
1.16907
1.16421
1.15914
1.15391
1.14858
1.14339
1.13797
1.21343
1.21295
1.21201
1.21062
1.20885
1.20682
1.20469
1.20261
1.20061
1.19859
1.1966
1.19484
1.19316
1.19142
1.18955
1.18744
1.18511
1.1825
1.17928
1.1752
1.17056
1.1656
1.16044
1.15523
1.14999
1.14468
1.13886
1.21362
1.21334
1.21262
1.21144
1.20984
1.20793
1.20583
1.2037
1.20158
1.19942
1.19721
1.19518
1.19345
1.19177
1.19003
1.18813
1.18602
1.18361
1.1805
1.17642
1.1718
1.16696
1.162
1.15702
1.1518
1.14611
1.13967
1.21373
1.2136
1.21307
1.21209
1.2107
1.20895
1.20694
1.2048
1.2026
1.20031
1.19797
1.19575
1.19386
1.1922
1.19054
1.18877
1.18682
1.1845
1.18137
1.17734
1.17293
1.16843
1.1639
1.15911
1.15367
1.14739
1.14037
1.21376
1.21374
1.21338
1.21259
1.21141
1.20986
1.20799
1.20589
1.20364
1.20127
1.19885
1.19652
1.19448
1.19272
1.19108
1.18936
1.18746
1.18511
1.18197
1.17813
1.1741
1.17009
1.16595
1.16115
1.15529
1.14854
1.14122
1.21369
1.21381
1.21357
1.21297
1.21198
1.21064
1.20893
1.20691
1.20467
1.20228
1.19981
1.19742
1.19525
1.19335
1.19162
1.18987
1.18791
1.1855
1.18245
1.17894
1.17539
1.17183
1.16786
1.16283
1.15669
1.14986
1.14255
1.21353
1.21382
1.21369
1.21324
1.21244
1.21127
1.20973
1.20783
1.20565
1.2033
1.20083
1.19839
1.19611
1.19407
1.19215
1.19028
1.18823
1.1858
1.18295
1.17984
1.17672
1.17341
1.16937
1.1642
1.15814
1.15151
1.14435
1.21338
1.21379
1.21377
1.21346
1.2128
1.21178
1.21039
1.20864
1.20657
1.20427
1.20184
1.19937
1.19701
1.19481
1.19269
1.19062
1.18851
1.18616
1.18355
1.18079
1.17792
1.17463
1.17052
1.16551
1.15976
1.1534
1.14632
1.21331
1.21377
1.21383
1.21362
1.21309
1.21219
1.21093
1.20933
1.20741
1.20519
1.20281
1.20034
1.1979
1.19557
1.19329
1.191
1.18884
1.18663
1.18424
1.18169
1.17888
1.17555
1.17157
1.16687
1.16142
1.15519
1.14808
1.21337
1.21376
1.21391
1.21376
1.21332
1.21252
1.21137
1.20991
1.20813
1.20605
1.20373
1.2013
1.19881
1.19634
1.19395
1.19159
1.18933
1.1872
1.18495
1.18247
1.17965
1.17641
1.17266
1.1682
1.16287
1.15665
1.14951
1.21364
1.21387
1.21402
1.21391
1.21353
1.2128
1.21175
1.2104
1.20877
1.20683
1.20462
1.20223
1.19972
1.19717
1.1947
1.19232
1.19004
1.18784
1.18564
1.18317
1.18041
1.17731
1.17373
1.16931
1.16397
1.15782
1.1509
1.21413
1.21418
1.21422
1.21411
1.21374
1.21306
1.21209
1.21085
1.20935
1.20756
1.20546
1.20313
1.20064
1.19807
1.19556
1.19318
1.19086
1.18854
1.1863
1.18388
1.1812
1.17819
1.1746
1.17013
1.16486
1.15903
1.15259
1.21479
1.21469
1.21458
1.21438
1.21398
1.21334
1.21245
1.21131
1.20992
1.20824
1.20626
1.20399
1.20155
1.19901
1.19649
1.19408
1.19173
1.18937
1.18699
1.1846
1.18195
1.1789
1.17522
1.1708
1.16583
1.16053
1.15462
1.21562
1.21534
1.21507
1.21475
1.2143
1.21368
1.21286
1.2118
1.21049
1.2089
1.20701
1.20482
1.20244
1.19995
1.19745
1.195
1.19262
1.19021
1.18771
1.18523
1.18254
1.1794
1.17573
1.17157
1.16711
1.16237
1.15672
1.21655
1.21609
1.21567
1.21523
1.21473
1.21411
1.21332
1.21232
1.21106
1.20953
1.20772
1.20563
1.20331
1.20088
1.1984
1.19592
1.19348
1.19103
1.18842
1.18571
1.18296
1.17984
1.17636
1.17261
1.16867
1.16422
1.15845
1.21753
1.21693
1.21638
1.21585
1.21528
1.21464
1.21385
1.21286
1.21164
1.21015
1.20841
1.2064
1.20417
1.20179
1.19934
1.19684
1.19433
1.19179
1.18909
1.18617
1.18335
1.18043
1.17725
1.17388
1.1702
1.16566
1.15952
1.21853
1.21782
1.21718
1.21656
1.21593
1.21523
1.21441
1.21342
1.21221
1.21075
1.20906
1.20713
1.20498
1.20266
1.20024
1.19774
1.19517
1.19252
1.18976
1.18685
1.18398
1.18127
1.17835
1.17514
1.17137
1.16652
1.16019
1.21955
1.21877
1.21805
1.21735
1.21664
1.21589
1.21503
1.21401
1.21279
1.21134
1.20968
1.20782
1.20575
1.20349
1.2011
1.19861
1.19601
1.19328
1.19048
1.18766
1.18494
1.18227
1.17945
1.17617
1.17213
1.16708
1.16089
1.22059
1.21975
1.21896
1.21818
1.21741
1.2166
1.2157
1.21463
1.21337
1.21192
1.21028
1.20846
1.20647
1.20428
1.20193
1.19945
1.19683
1.19408
1.19128
1.18858
1.18592
1.1832
1.18036
1.17695
1.17277
1.16776
1.16187
1.22166
1.22078
1.21992
1.21907
1.21824
1.21738
1.21642
1.2153
1.21401
1.21254
1.2109
1.20912
1.20718
1.20505
1.20272
1.20024
1.19762
1.19488
1.19213
1.18948
1.18685
1.18403
1.18105
1.17762
1.17354
1.16878
1.1632
1.22282
1.22189
1.22096
1.22005
1.21917
1.21825
1.21723
1.21605
1.2147
1.2132
1.21157
1.2098
1.20789
1.2058
1.2035
1.20102
1.19839
1.19567
1.19296
1.19029
1.18765
1.18479
1.18168
1.17834
1.17453
1.1701
1.16481
1.22416
1.22317
1.22217
1.22118
1.22022
1.21923
1.21815
1.21692
1.21555
1.21406
1.21244
1.21068
1.20876
1.20665
1.20433
1.20182
1.19919
1.19649
1.19378
1.19108
1.18839
1.18554
1.18242
1.17921
1.17571
1.17163
1.16666
1.22568
1.22463
1.22357
1.22254
1.22152
1.22047
1.21931
1.218
1.2166
1.2151
1.21349
1.21173
1.20978
1.20765
1.20532
1.2028
1.20015
1.19744
1.19471
1.19196
1.18923
1.1864
1.18338
1.18033
1.17714
1.17342
1.16887
1.22747
1.22637
1.22526
1.22416
1.22308
1.22196
1.22075
1.21946
1.21811
1.21667
1.21508
1.2133
1.21129
1.20905
1.20661
1.20404
1.20136
1.19863
1.19588
1.19312
1.19037
1.18758
1.18475
1.18186
1.17897
1.17568
1.17162
1.22983
1.22867
1.22749
1.22629
1.22509
1.22387
1.22263
1.22137
1.22006
1.21864
1.21707
1.21527
1.21325
1.211
1.20855
1.20591
1.20314
1.20031
1.19751
1.19474
1.192
1.18934
1.18678
1.18423
1.18163
1.17865
1.175
1.23287
1.23169
1.23046
1.2292
1.22792
1.22661
1.22528
1.22397
1.22263
1.2212
1.2196
1.21779
1.21576
1.2135
1.21104
1.20838
1.20557
1.20269
1.19986
1.1971
1.19441
1.19187
1.18956
1.18739
1.18505
1.18229
1.1788
1.2355
1.23424
1.23291
1.23155
1.23018
1.22884
1.22752
1.22618
1.22471
1.22304
1.22115
1.21903
1.21669
1.21418
1.21152
1.20871
1.20581
1.20294
1.20017
1.19756
1.19515
1.19304
1.19113
1.189
1.18633
1.18285
1.2374
1.23603
1.23464
1.23326
1.2319
1.23049
1.22896
1.22724
1.22531
1.22315
1.22077
1.2182
1.21548
1.21264
1.20974
1.20685
1.20405
1.20147
1.1991
1.19701
1.19507
1.19291
1.19034
1.18703
1.24043
1.23906
1.2377
1.23632
1.23486
1.23326
1.23149
1.22953
1.22734
1.22492
1.22228
1.21951
1.21666
1.21381
1.21101
1.20827
1.20567
1.20325
1.201
1.19883
1.19651
1.19392
1.19094
1.24152
1.2401
1.23858
1.23693
1.23515
1.23319
1.23101
1.22861
1.226
1.22322
1.22035
1.21746
1.2146
1.21179
1.20908
1.20665
1.2044
1.20224
1.19977
1.19708
1.19422
1.2421
1.24057
1.23893
1.23715
1.23522
1.23307
1.23068
1.22805
1.22522
1.22224
1.21918
1.21613
1.2132
1.21049
1.20815
1.20616
1.20433
1.20215
1.19966
1.19689
1.24106
1.23935
1.23747
1.23542
1.23317
1.23068
1.22797
1.22512
1.2222
1.2193
1.21651
1.21397
1.21164
1.20953
1.20748
1.20489
1.20208
1.19932
1.01812
1.08039
1.14507
1.16299
1.16514
1.16532
1.16468
1.16331
1.16181
1.16026
1.15875
1.1567
1.15422
1.15201
1.15036
)
;

boundaryField
{
    inlet
    {
        type            fixedValue;
        value           nonuniform 0();
    }
    outlet
    {
        type            inletOutlet;
        inletValue      nonuniform 0();
        value           nonuniform 0();
    }
    triangle
    {
        type            zeroGradient;
    }
    top
    {
        type            symmetryPlane;
    }
    bottom
    {
        type            symmetryPlane;
    }
    defaultFaces
    {
        type            empty;
    }
    procBoundary12to4
    {
        type            processor;
        value           nonuniform List<scalar> 
28
(
1
1
1
1
1
1
1
1
1
1
1.00001
1.00105
1.00063
1.01167
1.06079
1.12214
1.14941
1.16357
1.16688
1.16594
1.16341
1.16083
1.15884
1.15731
1.15574
1.15384
1.15189
1.00105
)
;
    }
    procBoundary12to5
    {
        type            processor;
        value           nonuniform List<scalar> 
21
(
1.14789
1.14739
1.14698
1.14661
1.14634
1.14613
1.14578
1.14531
1.14475
1.14433
1.14404
1.1437
1.14329
1.14279
1.14235
1.14204
1.14185
1.14172
1.14163
1.14147
1.14897
)
;
    }
    procBoundary12to11
    {
        type            processor;
        value           nonuniform List<scalar> 
114
(
1
1
1
1
1
1
1
1
1
1
1
1
1
1.00001
1.00107
1.01869
1.08095
1.13994
1.16325
1.16959
1.17383
1.17607
1.17608
1.17606
1.1756
1.1758
1.17662
1.17731
1.17791
1.17839
1.17867
1.17908
1.17979
1.18046
1.18072
1.18061
1.18087
1.18159
1.18251
1.18306
1.18325
1.18328
1.18358
1.18413
1.18483
1.18544
1.18574
1.18582
1.18596
1.18644
1.18708
1.18763
1.18796
1.1881
1.18822
1.1884
1.18859
1.18872
1.18886
1.189
1.18921
1.18965
1.19046
1.19164
1.19327
1.19512
1.19681
1.19819
1.19946
1.20075
1.20191
1.20252
1.20258
1.20241
1.20222
1.20227
1.20265
1.20346
1.20462
1.2059
1.20721
1.20834
1.20949
1.21062
1.21156
1.21226
1.21277
1.21314
1.21338
1.21353
1.21356
1.21345
1.21325
1.21301
1.21281
1.21272
1.21278
1.21308
1.21358
1.21425
1.21508
1.21605
1.2171
1.21819
1.2193
1.22038
1.22146
1.22257
1.22375
1.22513
1.2267
1.22855
1.23093
1.23398
)
;
    }
    procBoundary12to13
    {
        type            processor;
        value           nonuniform List<scalar> 
100
(
1.14117
1.14081
1.14036
1.13989
1.13945
1.13906
1.13872
1.1384
1.13813
1.13791
1.1377
1.13747
1.1372
1.13689
1.13658
1.13628
1.13599
1.13569
1.13537
1.13509
1.13486
1.13469
1.1345
1.13438
1.1343
1.13421
1.13406
1.13383
1.13354
1.13328
1.13309
1.13293
1.13274
1.1325
1.13227
1.13217
1.13215
1.13211
1.13194
1.1316
1.13125
1.13116
1.1313
1.13151
1.1316
1.13142
1.13103
1.1307
1.13069
1.13091
1.13117
1.13127
1.13115
1.13092
1.13079
1.13088
1.13117
1.13139
1.13141
1.13131
1.13131
1.13149
1.13163
1.13154
1.13125
1.13113
1.13138
1.1318
1.13217
1.13239
1.13253
1.13288
1.13375
1.13515
1.13682
1.13849
1.14002
1.1415
1.14324
1.14529
1.14741
1.14929
1.15069
1.15167
1.15254
1.15361
1.15498
1.15658
1.15837
1.16047
1.16309
1.16636
1.17017
1.1742
1.1783
1.18264
1.18695
1.19056
1.19345
1.19613
)
;
    }
    procBoundary12to20
    {
        type            processor;
        value           nonuniform List<scalar> 
15
(
1.23668
1.23668
1.23994
1.23871
1.23871
1.24177
1.24177
1.24424
1.24289
1.24289
1.24354
1.24354
1.24406
1.24262
1.24262
)
;
    }
}


// ************************************************************************* //
