/*--------------------------------*- C++ -*----------------------------------*\
  =========                 |
  \\      /  F ield         | OpenFOAM: The Open Source CFD Toolbox
   \\    /   O peration     | Website:  https://openfoam.org
    \\  /    A nd           | Version:  7
     \\/     M anipulation  |
\*---------------------------------------------------------------------------*/
FoamFile
{
    version     2.0;
    format      ascii;
    class       volVectorField;
    location    "0.2";
    object      U;
}
// * * * * * * * * * * * * * * * * * * * * * * * * * * * * * * * * * * * * * //

dimensions      [0 1 -1 0 0 0 0];

internalField   nonuniform List<vector> 
3225
(
(1.1 1.08073e-13 0)
(1.1 1.59544e-13 0)
(1.1 2.32689e-13 0)
(1.1 3.3628e-13 0)
(1.1 4.77472e-13 0)
(1.1 6.71711e-13 0)
(1.1 1.04347e-12 0)
(1.1 1.55695e-12 0)
(1.1 -3.43471e-11 0)
(1.1 -1.13449e-06 0)
(1.09967 -0.000698433 0)
(1.08233 -0.0289606 0)
(0.970124 -0.148808 0)
(0.853623 -0.251764 0)
(0.839947 -0.281651 0)
(0.833016 -0.286861 0)
(0.832906 -0.285537 0)
(0.836455 -0.282892 0)
(0.839113 -0.283875 0)
(0.841767 -0.284569 0)
(0.845213 -0.284317 0)
(0.850295 -0.284151 0)
(0.855787 -0.28411 0)
(0.8598 -0.284528 0)
(0.863146 -0.284386 0)
(0.867372 -0.283719 0)
(0.872446 -0.283053 0)
(1.1 9.48315e-14 0)
(1.1 1.48253e-13 0)
(1.1 2.25154e-13 0)
(1.1 3.26759e-13 0)
(1.1 4.63591e-13 0)
(1.1 6.52888e-13 0)
(1.1 1.18627e-12 0)
(1.1 -1.99599e-13 0)
(1.1 -1.02535e-07 0)
(1.09991 -0.000197719 0)
(1.09001 -0.0163475 0)
(1.00372 -0.13297 0)
(0.868116 -0.243088 0)
(0.826462 -0.275511 0)
(0.825652 -0.283265 0)
(0.828418 -0.285965 0)
(0.830911 -0.285801 0)
(0.833918 -0.284627 0)
(0.836591 -0.284262 0)
(0.840066 -0.283743 0)
(0.844176 -0.283169 0)
(0.849065 -0.282456 0)
(0.853943 -0.283403 0)
(0.85823 -0.284791 0)
(0.862368 -0.284787 0)
(0.867178 -0.283488 0)
(0.872259 -0.28221 0)
(1.1 -5.83456e-12 0)
(1.1 -3.83521e-12 0)
(1.1 -3.12037e-12 0)
(1.1 -5.9536e-12 0)
(1.1 -7.16838e-12 0)
(1.1 -1.63053e-12 0)
(1.1 8.66381e-13 0)
(1.1 -1.5233e-08 0)
(1.09998 -3.91506e-05 0)
(1.09619 -0.00660394 0)
(1.02534 -0.0911484 0)
(0.897704 -0.232756 0)
(0.820722 -0.27728 0)
(0.816736 -0.280987 0)
(0.820341 -0.280931 0)
(0.825002 -0.282623 0)
(0.829304 -0.284017 0)
(0.832462 -0.284858 0)
(0.835704 -0.28425 0)
(0.839548 -0.283414 0)
(0.843666 -0.282993 0)
(0.847993 -0.283296 0)
(0.852359 -0.283767 0)
(0.857048 -0.284525 0)
(0.862249 -0.284487 0)
(0.8674 -0.283331 0)
(0.872207 -0.282294 0)
(1.1 -5.09179e-10 0)
(1.1 -4.22676e-10 0)
(1.1 -4.75743e-10 0)
(1.1 -7.08507e-10 0)
(1.1 -5.86332e-10 0)
(1.1 -1.25978e-10 0)
(1.1 -2.49754e-09 0)
(1.1 -1.1297e-05 0)
(1.09859 -0.00271144 0)
(1.05889 -0.0562508 0)
(0.903973 -0.193767 0)
(0.839234 -0.270152 0)
(0.817032 -0.283559 0)
(0.816604 -0.282805 0)
(0.820901 -0.2811 0)
(0.824214 -0.282162 0)
(0.828147 -0.282961 0)
(0.831901 -0.283391 0)
(0.835631 -0.284064 0)
(0.839511 -0.283694 0)
(0.843569 -0.283278 0)
(0.847676 -0.283408 0)
(0.851986 -0.283749 0)
(0.856784 -0.283708 0)
(0.862417 -0.283706 0)
(0.867869 -0.283366 0)
(0.872485 -0.283043 0)
(1.1 -8.10478e-09 0)
(1.1 -8.32747e-09 0)
(1.1 -1.07943e-08 0)
(1.1 -1.23933e-08 0)
(1.1 -7.48333e-09 0)
(1.1 -2.03983e-09 0)
(1.1 -2.36272e-06 0)
(1.09941 -0.00114457 0)
(1.0756 -0.0382688 0)
(0.950249 -0.165636 0)
(0.826441 -0.251184 0)
(0.820571 -0.275399 0)
(0.816103 -0.283256 0)
(0.817024 -0.282905 0)
(0.82095 -0.282395 0)
(0.824276 -0.282505 0)
(0.827766 -0.283196 0)
(0.831419 -0.283416 0)
(0.835565 -0.283375 0)
(0.839761 -0.283708 0)
(0.843611 -0.28387 0)
(0.847607 -0.283677 0)
(0.852069 -0.283368 0)
(0.856891 -0.283243 0)
(0.862267 -0.283404 0)
(0.867927 -0.28397 0)
(0.872799 -0.283957 0)
(1.1 -4.23408e-08 0)
(1.1 -5.10168e-08 0)
(1.1 -6.61365e-08 0)
(1.1 -5.95316e-08 0)
(1.1 -3.15162e-08 0)
(1.1 -3.28853e-07 0)
(1.09983 -0.000337982 0)
(1.08544 -0.0212024 0)
(0.982835 -0.146185 0)
(0.848504 -0.246897 0)
(0.810751 -0.271132 0)
(0.812 -0.276656 0)
(0.814123 -0.281317 0)
(0.817081 -0.282257 0)
(0.820559 -0.282691 0)
(0.823853 -0.283077 0)
(0.827443 -0.283279 0)
(0.831359 -0.283485 0)
(0.8354 -0.283582 0)
(0.839636 -0.283775 0)
(0.843672 -0.284119 0)
(0.847745 -0.283982 0)
(0.852293 -0.28338 0)
(0.857069 -0.282939 0)
(0.861995 -0.283238 0)
(0.867341 -0.283992 0)
(0.872965 -0.284286 0)
(1.1 -1.20123e-07 0)
(1.1 -1.58115e-07 0)
(1.1 -1.71243e-07 0)
(1.1 -1.39122e-07 0)
(1.1 -1.79357e-07 0)
(1.09995 -9.85541e-05 0)
(1.09375 -0.00991823 0)
(1.00549 -0.103801 0)
(0.876366 -0.236315 0)
(0.811506 -0.275187 0)
(0.805481 -0.27863 0)
(0.808397 -0.276339 0)
(0.812011 -0.278235 0)
(0.816179 -0.279744 0)
(0.820038 -0.281526 0)
(0.823639 -0.282565 0)
(0.827167 -0.283115 0)
(0.831207 -0.283341 0)
(0.835283 -0.283504 0)
(0.839349 -0.283875 0)
(0.843539 -0.284037 0)
(0.848051 -0.284058 0)
(0.852565 -0.283663 0)
(0.857091 -0.283085 0)
(0.861763 -0.283089 0)
(0.866895 -0.283582 0)
(0.872879 -0.284013 0)
(1.1 -2.5601e-07 0)
(1.1 -3.1652e-07 0)
(1.1 -2.95913e-07 0)
(1.1 -2.71945e-07 0)
(1.09998 -3.73097e-05 0)
(1.09691 -0.00528581 0)
(1.04247 -0.073851 0)
(0.87962 -0.202205 0)
(0.824182 -0.266048 0)
(0.807011 -0.280371 0)
(0.806294 -0.279893 0)
(0.809378 -0.277995 0)
(0.811908 -0.27748 0)
(0.815149 -0.278084 0)
(0.818664 -0.279389 0)
(0.822668 -0.281418 0)
(0.826939 -0.282389 0)
(0.830986 -0.282787 0)
(0.835048 -0.283212 0)
(0.839158 -0.283536 0)
(0.843419 -0.283814 0)
(0.848046 -0.284121 0)
(0.852804 -0.284029 0)
(0.857222 -0.283676 0)
(0.861787 -0.28321 0)
(0.866813 -0.283034 0)
(0.872632 -0.283387 0)
(1.1 -4.74854e-07 0)
(1.1 -4.71469e-07 0)
(1.1 -4.48109e-07 0)
(1.1 -8.97643e-06 0)
(1.09851 -0.0024829 0)
(1.05891 -0.0560106 0)
(0.924555 -0.188572 0)
(0.809291 -0.254119 0)
(0.807752 -0.269702 0)
(0.806003 -0.278503 0)
(0.806897 -0.279031 0)
(0.809658 -0.278969 0)
(0.812106 -0.279069 0)
(0.814765 -0.279208 0)
(0.817857 -0.279488 0)
(0.821701 -0.280006 0)
(0.826232 -0.281502 0)
(0.83076 -0.282564 0)
(0.834788 -0.283062 0)
(0.838886 -0.283536 0)
(0.843157 -0.284075 0)
(0.847773 -0.284297 0)
(0.852819 -0.284606 0)
(0.85762 -0.284405 0)
(0.862044 -0.283748 0)
(0.866887 -0.282986 0)
(0.872396 -0.282879 0)
(1.1 -6.89262e-07 0)
(1.1 -6.6468e-07 0)
(1.1 -2.75936e-06 0)
(1.09947 -0.000909547 0)
(1.07396 -0.0330365 0)
(0.945902 -0.167922 0)
(0.832783 -0.256043 0)
(0.80098 -0.270887 0)
(0.80136 -0.271201 0)
(0.803072 -0.275813 0)
(0.805674 -0.277772 0)
(0.808907 -0.279525 0)
(0.811908 -0.280231 0)
(0.81477 -0.280244 0)
(0.81795 -0.2798 0)
(0.821479 -0.279874 0)
(0.825464 -0.280502 0)
(0.829949 -0.281919 0)
(0.834471 -0.282981 0)
(0.838634 -0.283457 0)
(0.843001 -0.283722 0)
(0.8476 -0.284054 0)
(0.852556 -0.284522 0)
(0.857716 -0.284875 0)
(0.862498 -0.284429 0)
(0.867182 -0.283499 0)
(0.872451 -0.282703 0)
(1.1 -9.26243e-07 0)
(1.1 -1.70286e-06 0)
(1.09978 -0.000412855 0)
(1.08646 -0.0197677 0)
(0.970354 -0.127712 0)
(0.846039 -0.239553 0)
(0.8071 -0.272403 0)
(0.797957 -0.276503 0)
(0.799096 -0.273933 0)
(0.800825 -0.274747 0)
(0.803781 -0.276269 0)
(0.807659 -0.277861 0)
(0.811752 -0.279548 0)
(0.814992 -0.280181 0)
(0.818055 -0.280371 0)
(0.821355 -0.280285 0)
(0.824954 -0.280605 0)
(0.82904 -0.281291 0)
(0.833723 -0.282495 0)
(0.83839 -0.283149 0)
(0.842775 -0.283518 0)
(0.847308 -0.283859 0)
(0.852155 -0.284353 0)
(0.857434 -0.28484 0)
(0.862829 -0.284965 0)
(0.867796 -0.284232 0)
(0.872769 -0.283097 0)
(1.1 -1.46094e-06 0)
(1.0999 -0.000181157 0)
(1.09103 -0.0130511 0)
(1.00902 -0.109687 0)
(0.847267 -0.217821 0)
(0.808699 -0.260242 0)
(0.800019 -0.275298 0)
(0.79776 -0.277458 0)
(0.799505 -0.276702 0)
(0.800973 -0.275776 0)
(0.803295 -0.275472 0)
(0.806492 -0.276183 0)
(0.810323 -0.27802 0)
(0.814357 -0.280017 0)
(0.817874 -0.280659 0)
(0.821249 -0.280792 0)
(0.824821 -0.280698 0)
(0.828685 -0.28094 0)
(0.832955 -0.281756 0)
(0.837803 -0.282957 0)
(0.842535 -0.283453 0)
(0.847123 -0.283758 0)
(0.85191 -0.284087 0)
(0.857102 -0.284533 0)
(0.862755 -0.285022 0)
(0.868267 -0.284812 0)
(0.873402 -0.28389 0)
(1.09997 -5.78058e-05 0)
(1.09513 -0.00693665 0)
(1.02253 -0.0875487 0)
(0.887057 -0.219326 0)
(0.798512 -0.259058 0)
(0.794682 -0.26323 0)
(0.796399 -0.271181 0)
(0.797555 -0.274625 0)
(0.799802 -0.275563 0)
(0.801329 -0.276348 0)
(0.803375 -0.276848 0)
(0.805958 -0.277105 0)
(0.809085 -0.277784 0)
(0.813078 -0.278964 0)
(0.817413 -0.28044 0)
(0.82127 -0.280954 0)
(0.824801 -0.281217 0)
(0.8284 -0.281467 0)
(0.832352 -0.281919 0)
(0.83702 -0.282722 0)
(0.84222 -0.283492 0)
(0.847072 -0.283706 0)
(0.85184 -0.2839 0)
(0.856894 -0.284253 0)
(0.862471 -0.284768 0)
(0.868413 -0.285112 0)
(0.873993 -0.284609 0)
(1.09766 -0.00358097 0)
(1.04652 -0.0593735 0)
(0.891228 -0.192709 0)
(0.820959 -0.261338 0)
(0.794176 -0.272193 0)
(0.792186 -0.268878 0)
(0.792798 -0.269389 0)
(0.794912 -0.271499 0)
(0.797808 -0.275027 0)
(0.800665 -0.277187 0)
(0.803067 -0.278119 0)
(0.805784 -0.278271 0)
(0.808842 -0.278111 0)
(0.812313 -0.278659 0)
(0.816433 -0.279692 0)
(0.820814 -0.280988 0)
(0.824609 -0.281651 0)
(0.828224 -0.28206 0)
(0.832157 -0.282253 0)
(0.836638 -0.282583 0)
(0.841827 -0.283321 0)
(0.847025 -0.283786 0)
(0.851833 -0.283993 0)
(0.856812 -0.2842 0)
(0.862251 -0.284601 0)
(0.86827 -0.284983 0)
(0.874374 -0.285051 0)
(1.06445 -0.046337 0)
(0.917997 -0.165336 0)
(0.815049 -0.242457 0)
(0.800754 -0.267115 0)
(0.794116 -0.272919 0)
(0.792949 -0.271984 0)
(0.792487 -0.27117 0)
(0.793168 -0.271624 0)
(0.795249 -0.273693 0)
(0.799122 -0.27617 0)
(0.80291 -0.277898 0)
(0.805813 -0.278596 0)
(0.808769 -0.278763 0)
(0.812086 -0.278712 0)
(0.815754 -0.279314 0)
(0.819878 -0.280621 0)
(0.824275 -0.281874 0)
(0.828257 -0.282347 0)
(0.832185 -0.282499 0)
(0.83655 -0.282569 0)
(0.841473 -0.283053 0)
(0.846749 -0.283822 0)
(0.851811 -0.284346 0)
(0.856786 -0.284486 0)
(0.862222 -0.284495 0)
(0.86814 -0.284673 0)
(0.874391 -0.285031 0)
(0.951327 -0.161601 0)
(0.818727 -0.236889 0)
(0.792167 -0.257443 0)
(0.792299 -0.266376 0)
(0.792155 -0.272311 0)
(0.792092 -0.273184 0)
(0.792207 -0.273665 0)
(0.792675 -0.273568 0)
(0.794342 -0.27385 0)
(0.797552 -0.27501 0)
(0.801695 -0.276797 0)
(0.80555 -0.278305 0)
(0.8088 -0.278908 0)
(0.811943 -0.279287 0)
(0.815309 -0.27973 0)
(0.81913 -0.280524 0)
(0.823581 -0.281713 0)
(0.828086 -0.282554 0)
(0.832237 -0.282882 0)
(0.836492 -0.283023 0)
(0.84115 -0.283312 0)
(0.846284 -0.283947 0)
(0.851618 -0.284594 0)
(0.856856 -0.284812 0)
(0.862271 -0.284744 0)
(0.868052 -0.284677 0)
(0.874203 -0.284957 0)
(0.847022 -0.241532 0)
(0.79306 -0.264357 0)
(0.786565 -0.261359 0)
(0.787484 -0.262408 0)
(0.789045 -0.267578 0)
(0.790993 -0.271971 0)
(0.791586 -0.274044 0)
(0.792672 -0.274918 0)
(0.79448 -0.275221 0)
(0.797077 -0.275272 0)
(0.800298 -0.276066 0)
(0.804266 -0.277819 0)
(0.808241 -0.279366 0)
(0.811594 -0.280003 0)
(0.814991 -0.280265 0)
(0.81873 -0.280626 0)
(0.822887 -0.281453 0)
(0.827464 -0.282594 0)
(0.831981 -0.283266 0)
(0.836309 -0.283574 0)
(0.840912 -0.283768 0)
(0.845896 -0.284094 0)
(0.851267 -0.284642 0)
(0.856769 -0.28505 0)
(0.86231 -0.285274 0)
(0.867994 -0.28518 0)
(0.874079 -0.285091 0)
(0.805942 -0.260737 0)
(0.792588 -0.267895 0)
(0.788541 -0.265685 0)
(0.786329 -0.264949 0)
(0.785714 -0.266281 0)
(0.787301 -0.269765 0)
(0.789973 -0.273818 0)
(0.79231 -0.27524 0)
(0.794544 -0.275945 0)
(0.797017 -0.276319 0)
(0.799686 -0.276773 0)
(0.802857 -0.277752 0)
(0.807088 -0.279215 0)
(0.811347 -0.280242 0)
(0.814929 -0.280691 0)
(0.81843 -0.281093 0)
(0.822225 -0.281677 0)
(0.8266 -0.282607 0)
(0.831528 -0.283581 0)
(0.836279 -0.283962 0)
(0.840817 -0.284127 0)
(0.845653 -0.284258 0)
(0.850909 -0.284654 0)
(0.856485 -0.285173 0)
(0.86223 -0.285628 0)
(0.868068 -0.285756 0)
(0.874105 -0.285501 0)
(0.791483 -0.259964 0)
(0.7901 -0.268232 0)
(0.788073 -0.269141 0)
(0.786267 -0.268957 0)
(0.78477 -0.268204 0)
(0.78512 -0.269217 0)
(0.78751 -0.272181 0)
(0.790954 -0.275362 0)
(0.793976 -0.27643 0)
(0.796558 -0.277154 0)
(0.799298 -0.27735 0)
(0.802336 -0.277752 0)
(0.806062 -0.278809 0)
(0.810539 -0.280254 0)
(0.814533 -0.281002 0)
(0.817982 -0.281553 0)
(0.821714 -0.282078 0)
(0.825914 -0.282741 0)
(0.830844 -0.283602 0)
(0.835971 -0.284235 0)
(0.840747 -0.284568 0)
(0.845486 -0.284763 0)
(0.850614 -0.285048 0)
(0.856176 -0.285408 0)
(0.862077 -0.285831 0)
(0.868132 -0.286046 0)
(0.874295 -0.285893 0)
(0.782729 -0.257894 0)
(0.785834 -0.263738 0)
(0.787017 -0.268252 0)
(0.785986 -0.270001 0)
(0.78502 -0.270454 0)
(0.784529 -0.270536 0)
(0.785714 -0.271707 0)
(0.78873 -0.274049 0)
(0.793005 -0.276003 0)
(0.796313 -0.276989 0)
(0.799097 -0.277566 0)
(0.802042 -0.278022 0)
(0.80537 -0.27866 0)
(0.809474 -0.279936 0)
(0.8139 -0.281317 0)
(0.817725 -0.282018 0)
(0.821401 -0.282446 0)
(0.825551 -0.282757 0)
(0.83029 -0.283407 0)
(0.835464 -0.284251 0)
(0.840481 -0.284872 0)
(0.845308 -0.285253 0)
(0.850452 -0.285518 0)
(0.85607 -0.285615 0)
(0.862021 -0.285839 0)
(0.868167 -0.286127 0)
(0.874472 -0.286133 0)
(0.781831 -0.258531 0)
(0.781143 -0.260937 0)
(0.783419 -0.265982 0)
(0.784543 -0.269812 0)
(0.784359 -0.271119 0)
(0.784207 -0.271808 0)
(0.78488 -0.27263 0)
(0.787176 -0.273648 0)
(0.791377 -0.275022 0)
(0.795654 -0.276776 0)
(0.798848 -0.277753 0)
(0.80173 -0.278474 0)
(0.804868 -0.279195 0)
(0.808557 -0.280095 0)
(0.813014 -0.281243 0)
(0.817359 -0.282183 0)
(0.82129 -0.282749 0)
(0.825341 -0.283199 0)
(0.829852 -0.283755 0)
(0.83495 -0.28453 0)
(0.84023 -0.285234 0)
(0.845296 -0.285603 0)
(0.850556 -0.28588 0)
(0.856169 -0.285953 0)
(0.862067 -0.285964 0)
(0.868193 -0.2862 0)
(0.874593 -0.286334 0)
(0.78162 -0.262383 0)
(0.779524 -0.262545 0)
(0.779518 -0.264718 0)
(0.781785 -0.268935 0)
(0.782812 -0.271877 0)
(0.783243 -0.272927 0)
(0.784274 -0.273506 0)
(0.78662 -0.273826 0)
(0.79009 -0.274546 0)
(0.794296 -0.276363 0)
(0.798184 -0.278012 0)
(0.801265 -0.27883 0)
(0.804372 -0.279367 0)
(0.807944 -0.280034 0)
(0.812192 -0.281034 0)
(0.816734 -0.282229 0)
(0.820928 -0.282987 0)
(0.825003 -0.283593 0)
(0.829475 -0.284172 0)
(0.834515 -0.284755 0)
(0.839927 -0.285322 0)
(0.845224 -0.285646 0)
(0.850583 -0.285998 0)
(0.856255 -0.286279 0)
(0.862173 -0.286322 0)
(0.868277 -0.286453 0)
(0.874681 -0.286459 0)
(0.780999 -0.265208 0)
(0.778959 -0.265193 0)
(0.778025 -0.265681 0)
(0.778668 -0.267825 0)
(0.780626 -0.271282 0)
(0.782019 -0.273113 0)
(0.783682 -0.27372 0)
(0.786185 -0.274256 0)
(0.789229 -0.274926 0)
(0.792931 -0.276215 0)
(0.797095 -0.277875 0)
(0.80074 -0.278934 0)
(0.803962 -0.279447 0)
(0.807443 -0.280026 0)
(0.811479 -0.280916 0)
(0.815966 -0.2822 0)
(0.820501 -0.283274 0)
(0.824768 -0.283927 0)
(0.829247 -0.284389 0)
(0.834246 -0.284859 0)
(0.839696 -0.28541 0)
(0.845171 -0.285793 0)
(0.850623 -0.286214 0)
(0.85633 -0.286628 0)
(0.862289 -0.286646 0)
(0.868491 -0.28661 0)
(0.874926 -0.286399 0)
(0.780292 -0.264477 0)
(0.778682 -0.265765 0)
(0.777029 -0.266989 0)
(0.776917 -0.268077 0)
(0.778302 -0.270263 0)
(0.780558 -0.272547 0)
(0.782952 -0.273695 0)
(0.785587 -0.274585 0)
(0.788572 -0.275451 0)
(0.792005 -0.276512 0)
(0.796031 -0.277645 0)
(0.799944 -0.278688 0)
(0.803398 -0.279425 0)
(0.806893 -0.280333 0)
(0.81082 -0.281301 0)
(0.815238 -0.282387 0)
(0.819876 -0.283259 0)
(0.824379 -0.2839 0)
(0.829018 -0.284589 0)
(0.834007 -0.2852 0)
(0.839424 -0.285782 0)
(0.844986 -0.286147 0)
(0.850537 -0.286422 0)
(0.856305 -0.286756 0)
(0.862389 -0.286833 0)
(0.868736 -0.286855 0)
(0.875173 -0.286584 0)
(0.777913 -0.26436 0)
(0.776912 -0.266558 0)
(0.775655 -0.267946 0)
(0.775531 -0.268885 0)
(0.776522 -0.269958 0)
(0.778746 -0.271925 0)
(0.781748 -0.273456 0)
(0.784814 -0.274721 0)
(0.787961 -0.275821 0)
(0.791344 -0.276656 0)
(0.795144 -0.27745 0)
(0.798937 -0.278481 0)
(0.802549 -0.279418 0)
(0.806196 -0.280477 0)
(0.810244 -0.28149 0)
(0.814679 -0.282354 0)
(0.819308 -0.283063 0)
(0.823921 -0.283826 0)
(0.828649 -0.284708 0)
(0.833655 -0.285488 0)
(0.839064 -0.286134 0)
(0.844724 -0.286502 0)
(0.850422 -0.286646 0)
(0.856293 -0.28687 0)
(0.862437 -0.286878 0)
(0.868872 -0.286995 0)
(0.875405 -0.286861 0)
(0.774408 -0.263524 0)
(0.774959 -0.266689 0)
(0.774314 -0.268174 0)
(0.774354 -0.269293 0)
(0.775169 -0.270362 0)
(0.777258 -0.271861 0)
(0.780483 -0.273217 0)
(0.784027 -0.274556 0)
(0.787402 -0.275801 0)
(0.790777 -0.276846 0)
(0.794286 -0.27765 0)
(0.797905 -0.278586 0)
(0.801666 -0.279526 0)
(0.805578 -0.280751 0)
(0.809759 -0.28173 0)
(0.814153 -0.282524 0)
(0.81873 -0.283248 0)
(0.823399 -0.284091 0)
(0.828227 -0.28506 0)
(0.8333 -0.28583 0)
(0.838724 -0.286393 0)
(0.844468 -0.286816 0)
(0.85029 -0.286986 0)
(0.856237 -0.287243 0)
(0.862412 -0.287247 0)
(0.86891 -0.287338 0)
(0.8756 -0.287269 0)
(0.771874 -0.263142 0)
(0.773004 -0.265788 0)
(0.772826 -0.26773 0)
(0.772854 -0.269353 0)
(0.77388 -0.270761 0)
(0.776246 -0.27188 0)
(0.779674 -0.273059 0)
(0.783301 -0.274426 0)
(0.786657 -0.275669 0)
(0.78991 -0.276784 0)
(0.793374 -0.277679 0)
(0.797097 -0.278635 0)
(0.801009 -0.279625 0)
(0.804984 -0.280883 0)
(0.809152 -0.281912 0)
(0.813513 -0.282745 0)
(0.818108 -0.283513 0)
(0.822873 -0.284392 0)
(0.827808 -0.285333 0)
(0.83295 -0.286044 0)
(0.838398 -0.286492 0)
(0.844145 -0.286943 0)
(0.850038 -0.287246 0)
(0.856095 -0.287658 0)
(0.862356 -0.287726 0)
(0.86893 -0.287664 0)
(0.875752 -0.287643 0)
(0.77 -0.263513 0)
(0.770897 -0.265433 0)
(0.770847 -0.267505 0)
(0.771012 -0.269434 0)
(0.772511 -0.270873 0)
(0.77538 -0.272126 0)
(0.779097 -0.273213 0)
(0.78252 -0.274493 0)
(0.785657 -0.275645 0)
(0.788899 -0.276735 0)
(0.792556 -0.277686 0)
(0.796489 -0.27877 0)
(0.800472 -0.279845 0)
(0.804387 -0.281124 0)
(0.808465 -0.282149 0)
(0.812827 -0.283057 0)
(0.817539 -0.283884 0)
(0.822454 -0.284794 0)
(0.827467 -0.285735 0)
(0.832641 -0.286499 0)
(0.838069 -0.286948 0)
(0.843793 -0.287384 0)
(0.849728 -0.287625 0)
(0.855905 -0.288101 0)
(0.862357 -0.288311 0)
(0.869006 -0.288166 0)
(0.875884 -0.288147 0)
(0.76865 -0.263802 0)
(0.768914 -0.265682 0)
(0.768903 -0.267543 0)
(0.769374 -0.269148 0)
(0.771332 -0.270396 0)
(0.774521 -0.271978 0)
(0.778323 -0.273338 0)
(0.78168 -0.274506 0)
(0.784772 -0.275452 0)
(0.788039 -0.276509 0)
(0.79181 -0.277662 0)
(0.795889 -0.279039 0)
(0.79992 -0.280252 0)
(0.80376 -0.281539 0)
(0.807772 -0.282472 0)
(0.812185 -0.283314 0)
(0.816995 -0.284186 0)
(0.821949 -0.285113 0)
(0.826957 -0.285989 0)
(0.832151 -0.286814 0)
(0.837653 -0.287389 0)
(0.843444 -0.287923 0)
(0.849402 -0.288102 0)
(0.855636 -0.28845 0)
(0.862225 -0.288839 0)
(0.86896 -0.288726 0)
(0.875891 -0.288697 0)
(0.766591 -0.263945 0)
(0.767118 -0.266083 0)
(0.7674 -0.267688 0)
(0.768211 -0.268922 0)
(0.770313 -0.270371 0)
(0.773615 -0.272152 0)
(0.777342 -0.273689 0)
(0.780729 -0.274694 0)
(0.783917 -0.275405 0)
(0.787242 -0.276398 0)
(0.791006 -0.277726 0)
(0.79511 -0.279376 0)
(0.799191 -0.280585 0)
(0.803066 -0.281649 0)
(0.807106 -0.282508 0)
(0.811552 -0.283534 0)
(0.816416 -0.284616 0)
(0.821404 -0.285654 0)
(0.826438 -0.286541 0)
(0.831694 -0.287349 0)
(0.837309 -0.287865 0)
(0.84323 -0.288467 0)
(0.849285 -0.288722 0)
(0.855505 -0.288995 0)
(0.862134 -0.289496 0)
(0.868975 -0.289475 0)
(0.875915 -0.289335 0)
(0.764286 -0.263874 0)
(0.765291 -0.26587 0)
(0.766207 -0.267693 0)
(0.767344 -0.269148 0)
(0.769401 -0.270776 0)
(0.772571 -0.272302 0)
(0.776266 -0.273425 0)
(0.779768 -0.274305 0)
(0.783044 -0.275244 0)
(0.786361 -0.276566 0)
(0.790102 -0.278124 0)
(0.794252 -0.279772 0)
(0.79842 -0.280861 0)
(0.802413 -0.281864 0)
(0.806499 -0.282787 0)
(0.810903 -0.283902 0)
(0.81571 -0.285061 0)
(0.820725 -0.286114 0)
(0.825846 -0.286872 0)
(0.831205 -0.287644 0)
(0.836875 -0.288098 0)
(0.842818 -0.288711 0)
(0.848965 -0.289179 0)
(0.855247 -0.289481 0)
(0.861899 -0.290019 0)
(0.868856 -0.290124 0)
(0.875856 -0.28991 0)
(0.762701 -0.263423 0)
(0.763804 -0.265124 0)
(0.764859 -0.267544 0)
(0.766195 -0.269724 0)
(0.768436 -0.271271 0)
(0.771645 -0.272351 0)
(0.775232 -0.27316 0)
(0.778678 -0.274117 0)
(0.781967 -0.275323 0)
(0.785381 -0.276844 0)
(0.789229 -0.278445 0)
(0.793402 -0.279869 0)
(0.797573 -0.280711 0)
(0.801548 -0.281841 0)
(0.805664 -0.283034 0)
(0.810098 -0.284399 0)
(0.814928 -0.285524 0)
(0.820048 -0.286476 0)
(0.825383 -0.287259 0)
(0.830892 -0.288157 0)
(0.836572 -0.288658 0)
(0.842462 -0.289243 0)
(0.848667 -0.289822 0)
(0.855115 -0.290134 0)
(0.861846 -0.290568 0)
(0.868871 -0.29072 0)
(0.875902 -0.290518 0)
(0.761488 -0.263418 0)
(0.762176 -0.265375 0)
(0.763162 -0.267936 0)
(0.764836 -0.270077 0)
(0.767456 -0.271477 0)
(0.770838 -0.272208 0)
(0.774174 -0.273002 0)
(0.777399 -0.274173 0)
(0.780769 -0.275604 0)
(0.784427 -0.277317 0)
(0.788449 -0.27878 0)
(0.792561 -0.279941 0)
(0.796568 -0.280812 0)
(0.800501 -0.282104 0)
(0.804732 -0.283511 0)
(0.809315 -0.28489 0)
(0.814217 -0.285854 0)
(0.819392 -0.286699 0)
(0.824781 -0.287375 0)
(0.830338 -0.288348 0)
(0.836061 -0.289033 0)
(0.841987 -0.289672 0)
(0.848283 -0.290295 0)
(0.85486 -0.290563 0)
(0.861676 -0.290867 0)
(0.868734 -0.291107 0)
(0.875857 -0.291035 0)
(0.760058 -0.263924 0)
(0.760536 -0.266149 0)
(0.761527 -0.268394 0)
(0.763627 -0.269783 0)
(0.766607 -0.270901 0)
(0.76983 -0.271889 0)
(0.772953 -0.27301 0)
(0.776169 -0.274377 0)
(0.779691 -0.275913 0)
(0.783561 -0.277553 0)
(0.78764 -0.278898 0)
(0.791557 -0.28008 0)
(0.79541 -0.281006 0)
(0.799394 -0.282382 0)
(0.803804 -0.283859 0)
(0.808558 -0.285212 0)
(0.813549 -0.28608 0)
(0.818743 -0.286999 0)
(0.824207 -0.28784 0)
(0.829855 -0.288906 0)
(0.835656 -0.289593 0)
(0.84168 -0.290149 0)
(0.84807 -0.290719 0)
(0.854784 -0.291078 0)
(0.861636 -0.291393 0)
(0.86867 -0.291684 0)
(0.875866 -0.291675 0)
(0.758162 -0.264936 0)
(0.758937 -0.266932 0)
(0.760306 -0.268185 0)
(0.762462 -0.269324 0)
(0.765265 -0.270733 0)
(0.768367 -0.272031 0)
(0.77166 -0.273359 0)
(0.775085 -0.274752 0)
(0.778754 -0.276135 0)
(0.782618 -0.277679 0)
(0.786521 -0.279108 0)
(0.790342 -0.280382 0)
(0.794286 -0.281362 0)
(0.798432 -0.282743 0)
(0.802986 -0.284162 0)
(0.807812 -0.28544 0)
(0.81281 -0.286345 0)
(0.818014 -0.287397 0)
(0.8235 -0.288299 0)
(0.829232 -0.289278 0)
(0.835163 -0.28981 0)
(0.841319 -0.290298 0)
(0.847779 -0.290967 0)
(0.854516 -0.291487 0)
(0.861411 -0.291875 0)
(0.868499 -0.292263 0)
(0.875799 -0.292256 0)
(0.756262 -0.265372 0)
(0.757652 -0.266909 0)
(0.759173 -0.267994 0)
(0.760948 -0.269373 0)
(0.763532 -0.270701 0)
(0.766823 -0.272115 0)
(0.770499 -0.273571 0)
(0.774195 -0.274967 0)
(0.777798 -0.276448 0)
(0.781403 -0.278125 0)
(0.785187 -0.279526 0)
(0.789136 -0.28074 0)
(0.793287 -0.28167 0)
(0.79759 -0.283052 0)
(0.802178 -0.284485 0)
(0.806949 -0.285802 0)
(0.811956 -0.286785 0)
(0.817275 -0.287929 0)
(0.822905 -0.288785 0)
(0.828781 -0.289714 0)
(0.834846 -0.290278 0)
(0.841074 -0.290829 0)
(0.847502 -0.291547 0)
(0.854245 -0.292231 0)
(0.861232 -0.292635 0)
(0.868426 -0.292965 0)
(0.87585 -0.292929 0)
(0.754904 -0.264976 0)
(0.756421 -0.266421 0)
(0.757534 -0.268107 0)
(0.759206 -0.269764 0)
(0.761985 -0.270928 0)
(0.765638 -0.272257 0)
(0.769618 -0.273627 0)
(0.773166 -0.275259 0)
(0.776494 -0.277 0)
(0.780011 -0.278614 0)
(0.783927 -0.279832 0)
(0.788114 -0.280918 0)
(0.792492 -0.281898 0)
(0.796759 -0.283491 0)
(0.801223 -0.285006 0)
(0.805957 -0.286267 0)
(0.81108 -0.287213 0)
(0.816552 -0.288375 0)
(0.822287 -0.289138 0)
(0.828211 -0.289983 0)
(0.834288 -0.290605 0)
(0.84055 -0.291318 0)
(0.847019 -0.292143 0)
(0.853806 -0.292881 0)
(0.86091 -0.293202 0)
(0.868266 -0.293502 0)
(0.875816 -0.293576 0)
(0.753598 -0.264498 0)
(0.754462 -0.266499 0)
(0.755378 -0.268678 0)
(0.757554 -0.270021 0)
(0.760821 -0.27113 0)
(0.764787 -0.272255 0)
(0.76844 -0.273917 0)
(0.771647 -0.275887 0)
(0.774992 -0.277605 0)
(0.778731 -0.278955 0)
(0.782919 -0.279837 0)
(0.787258 -0.28092 0)
(0.791482 -0.282329 0)
(0.795657 -0.284187 0)
(0.800153 -0.285657 0)
(0.805016 -0.28682 0)
(0.810331 -0.287703 0)
(0.815985 -0.288861 0)
(0.821775 -0.289639 0)
(0.827649 -0.290576 0)
(0.833701 -0.291336 0)
(0.840038 -0.292153 0)
(0.846635 -0.292886 0)
(0.853563 -0.293599 0)
(0.860782 -0.293907 0)
(0.868161 -0.294138 0)
(0.875748 -0.294327 0)
(0.751558 -0.264551 0)
(0.751895 -0.266957 0)
(0.753331 -0.26891 0)
(0.756252 -0.27006 0)
(0.760118 -0.270998 0)
(0.763703 -0.272509 0)
(0.766733 -0.274522 0)
(0.769941 -0.276477 0)
(0.773599 -0.277952 0)
(0.777721 -0.278903 0)
(0.782101 -0.279717 0)
(0.786057 -0.281283 0)
(0.790076 -0.283035 0)
(0.794396 -0.284983 0)
(0.79912 -0.286298 0)
(0.804189 -0.287241 0)
(0.809633 -0.287987 0)
(0.815267 -0.289211 0)
(0.820991 -0.290145 0)
(0.826848 -0.291201 0)
(0.832932 -0.291994 0)
(0.839364 -0.292796 0)
(0.84612 -0.293444 0)
(0.853164 -0.29412 0)
(0.860431 -0.294482 0)
(0.867885 -0.29475 0)
(0.875541 -0.295018 0)
(0.749239 -0.265138 0)
(0.749758 -0.267418 0)
(0.751834 -0.268803 0)
(0.7555 -0.269729 0)
(0.759269 -0.271126 0)
(0.762061 -0.273128 0)
(0.764981 -0.275164 0)
(0.768445 -0.276835 0)
(0.772536 -0.277839 0)
(0.776968 -0.278645 0)
(0.780847 -0.280033 0)
(0.784448 -0.281945 0)
(0.788563 -0.283857 0)
(0.793203 -0.285635 0)
(0.798213 -0.286629 0)
(0.803494 -0.28742 0)
(0.808921 -0.288326 0)
(0.814429 -0.289873 0)
(0.820168 -0.290959 0)
(0.82616 -0.292015 0)
(0.832386 -0.292764 0)
(0.838964 -0.293592 0)
(0.845792 -0.294249 0)
(0.852855 -0.294922 0)
(0.860148 -0.295371 0)
(0.867653 -0.295625 0)
(0.875394 -0.295758 0)
(0.747083 -0.265879 0)
(0.748212 -0.267336 0)
(0.750922 -0.2684 0)
(0.754783 -0.269665 0)
(0.757677 -0.271669 0)
(0.760335 -0.273815 0)
(0.763492 -0.275572 0)
(0.767327 -0.276719 0)
(0.771843 -0.277467 0)
(0.775751 -0.278907 0)
(0.779151 -0.28072 0)
(0.782865 -0.282773 0)
(0.787287 -0.284527 0)
(0.792257 -0.285958 0)
(0.797506 -0.286678 0)
(0.802703 -0.287671 0)
(0.807916 -0.288937 0)
(0.813366 -0.290593 0)
(0.819215 -0.291636 0)
(0.825372 -0.292643 0)
(0.831745 -0.293393 0)
(0.838367 -0.294312 0)
(0.845232 -0.295035 0)
(0.852316 -0.295737 0)
(0.859655 -0.296159 0)
(0.867305 -0.296434 0)
(0.875206 -0.296453 0)
(0.745367 -0.265867 0)
(0.747087 -0.266959 0)
(0.7502 -0.268086 0)
(0.753201 -0.270054 0)
(0.755793 -0.272346 0)
(0.758794 -0.274273 0)
(0.762348 -0.275535 0)
(0.766629 -0.276298 0)
(0.770695 -0.277611 0)
(0.773964 -0.279554 0)
(0.777509 -0.2815 0)
(0.781571 -0.283438 0)
(0.786307 -0.284855 0)
(0.791499 -0.285915 0)
(0.796598 -0.28683 0)
(0.801519 -0.288253 0)
(0.806714 -0.289662 0)
(0.812361 -0.291323 0)
(0.818426 -0.292305 0)
(0.824716 -0.293313 0)
(0.831111 -0.29414 0)
(0.837795 -0.295191 0)
(0.844761 -0.295963 0)
(0.851983 -0.296611 0)
(0.859452 -0.297 0)
(0.867245 -0.29732 0)
(0.875266 -0.297321 0)
(0.744058 -0.265469 0)
(0.746286 -0.266593 0)
(0.748781 -0.268373 0)
(0.751176 -0.270712 0)
(0.754072 -0.272805 0)
(0.757555 -0.274315 0)
(0.761627 -0.275146 0)
(0.765653 -0.276306 0)
(0.76885 -0.278195 0)
(0.772198 -0.280294 0)
(0.776112 -0.282152 0)
(0.780589 -0.283797 0)
(0.78561 -0.284833 0)
(0.79052 -0.286067 0)
(0.795232 -0.287401 0)
(0.800152 -0.288995 0)
(0.805607 -0.290419 0)
(0.811485 -0.291973 0)
(0.817602 -0.29283 0)
(0.823856 -0.293911 0)
(0.830309 -0.294895 0)
(0.837119 -0.296027 0)
(0.844214 -0.296716 0)
(0.851548 -0.297326 0)
(0.859031 -0.297699 0)
(0.866869 -0.298106 0)
(0.874987 -0.298218 0)
(0.743064 -0.26507 0)
(0.745032 -0.266684 0)
(0.74683 -0.268966 0)
(0.749341 -0.271167 0)
(0.752665 -0.272891 0)
(0.756717 -0.273976 0)
(0.760835 -0.275049 0)
(0.763915 -0.276845 0)
(0.76702 -0.278889 0)
(0.770674 -0.280891 0)
(0.775038 -0.282465 0)
(0.779938 -0.283797 0)
(0.784682 -0.285066 0)
(0.789086 -0.286669 0)
(0.793729 -0.288112 0)
(0.798901 -0.289735 0)
(0.804627 -0.291004 0)
(0.810588 -0.292471 0)
(0.816622 -0.293466 0)
(0.822862 -0.2947 0)
(0.829479 -0.295685 0)
(0.836511 -0.296753 0)
(0.843737 -0.297382 0)
(0.8511 -0.298079 0)
(0.85863 -0.298589 0)
(0.866538 -0.299114 0)
(0.874833 -0.299297 0)
(0.741718 -0.265 0)
(0.743064 -0.26721 0)
(0.744931 -0.269556 0)
(0.747815 -0.271275 0)
(0.751657 -0.272577 0)
(0.755995 -0.273726 0)
(0.759232 -0.275509 0)
(0.762088 -0.277554 0)
(0.765437 -0.279465 0)
(0.769484 -0.281164 0)
(0.774344 -0.282444 0)
(0.779055 -0.284051 0)
(0.783274 -0.285734 0)
(0.787559 -0.287386 0)
(0.792396 -0.288798 0)
(0.797844 -0.290276 0)
(0.803691 -0.291484 0)
(0.80953 -0.293129 0)
(0.815479 -0.294247 0)
(0.821852 -0.295473 0)
(0.828702 -0.296382 0)
(0.835903 -0.297343 0)
(0.843104 -0.297988 0)
(0.850462 -0.298874 0)
(0.85803 -0.299587 0)
(0.866071 -0.300186 0)
(0.874628 -0.300234 0)
(0.739647 -0.265312 0)
(0.740899 -0.2679 0)
(0.743289 -0.269722 0)
(0.746664 -0.271032 0)
(0.750862 -0.272204 0)
(0.754437 -0.274042 0)
(0.757252 -0.27619 0)
(0.760403 -0.278138 0)
(0.764155 -0.279729 0)
(0.768698 -0.281091 0)
(0.773486 -0.282644 0)
(0.777627 -0.284769 0)
(0.781738 -0.28654 0)
(0.786217 -0.288092 0)
(0.791335 -0.28928 0)
(0.796896 -0.290719 0)
(0.802571 -0.292151 0)
(0.80829 -0.293973 0)
(0.814344 -0.295087 0)
(0.820932 -0.296196 0)
(0.828005 -0.29692 0)
(0.83521 -0.297986 0)
(0.842332 -0.298828 0)
(0.849684 -0.299926 0)
(0.857375 -0.300686 0)
(0.865764 -0.301157 0)
(0.874612 -0.300981 0)
(0.737216 -0.265934 0)
(0.738984 -0.2682 0)
(0.741983 -0.269561 0)
(0.745823 -0.270661 0)
(0.749404 -0.272334 0)
(0.752226 -0.274562 0)
(0.755317 -0.276694 0)
(0.758955 -0.278384 0)
(0.763271 -0.279655 0)
(0.767838 -0.281186 0)
(0.771962 -0.28328 0)
(0.775966 -0.285486 0)
(0.780347 -0.28716 0)
(0.785178 -0.288499 0)
(0.790428 -0.28964 0)
(0.79575 -0.291388 0)
(0.801241 -0.293044 0)
(0.80707 -0.294858 0)
(0.813394 -0.29581 0)
(0.820263 -0.296709 0)
(0.827272 -0.29752 0)
(0.83426 -0.298852 0)
(0.841337 -0.299965 0)
(0.848802 -0.3011 0)
(0.856883 -0.301593 0)
(0.865656 -0.301904 0)
(0.874604 -0.301685 0)
(0.735064 -0.266389 0)
(0.737458 -0.26802 0)
(0.741062 -0.26918 0)
(0.744598 -0.270687 0)
(0.747262 -0.272811 0)
(0.75014 -0.275063 0)
(0.753675 -0.276919 0)
(0.7579 -0.27832 0)
(0.762398 -0.279694 0)
(0.766306 -0.281753 0)
(0.77016 -0.283964 0)
(0.774445 -0.286028 0)
(0.779234 -0.287428 0)
(0.784243 -0.288727 0)
(0.789267 -0.290254 0)
(0.794361 -0.292304 0)
(0.799947 -0.293927 0)
(0.806083 -0.295553 0)
(0.812742 -0.296203 0)
(0.819519 -0.297244 0)
(0.82621 -0.298423 0)
(0.833077 -0.300054 0)
(0.840278 -0.301201 0)