/*--------------------------------*- C++ -*----------------------------------*\
  =========                 |
  \\      /  F ield         | OpenFOAM: The Open Source CFD Toolbox
   \\    /   O peration     | Website:  https://openfoam.org
    \\  /    A nd           | Version:  7
     \\/     M anipulation  |
\*---------------------------------------------------------------------------*/
FoamFile
{
    version     2.0;
    format      ascii;
    class       volScalarField;
    location    "0.1";
    object      T;
}
// * * * * * * * * * * * * * * * * * * * * * * * * * * * * * * * * * * * * * //

dimensions      [0 0 0 1 0 0 0];

internalField   nonuniform List<scalar> 
3225
(
0.746285
0.757923
0.771235
0.785915
0.801166
0.698129
0.701598
0.71086
0.72054
0.725991
0.727442
0.727178
0.726601
0.726747
0.728262
0.731787
0.738188
0.747588
0.75954
0.773449
0.78873
0.804805
0.698905
0.703064
0.712222
0.721416
0.726117
0.727093
0.727312
0.727853
0.728851
0.730681
0.733957
0.739683
0.748358
0.759998
0.774081
0.789669
0.806257
0.699661
0.704384
0.713204
0.721795
0.726034
0.726708
0.727364
0.728774
0.730598
0.732955
0.736225
0.741246
0.748787
0.759651
0.773483
0.789051
0.805764
0.700221
0.705405
0.713867
0.721811
0.72587
0.726484
0.727427
0.729338
0.731798
0.734757
0.738147
0.742536
0.74897
0.758914
0.772288
0.78778
0.804481
0.700504
0.706029
0.71431
0.72182
0.725713
0.726316
0.727442
0.7296
0.732419
0.735889
0.739552
0.743603
0.749306
0.758514
0.771431
0.786826
0.803409
0.700504
0.706029
0.71431
0.72182
0.725713
0.726316
0.727442
0.7296
0.732419
0.735889
0.739552
0.743603
0.749306
0.758514
0.771431
0.786826
0.803409
0.700221
0.705405
0.713867
0.721811
0.72587
0.726484
0.727427
0.729338
0.731798
0.734757
0.738147
0.742536
0.74897
0.758914
0.772288
0.78778
0.804481
0.699661
0.704384
0.713204
0.721795
0.726034
0.726708
0.727364
0.728774
0.730598
0.732955
0.736225
0.741246
0.748787
0.759651
0.773483
0.789051
0.805764
0.698905
0.703064
0.712222
0.721416
0.726117
0.727093
0.727312
0.727853
0.728851
0.730681
0.733957
0.739683
0.748358
0.759998
0.774081
0.789669
0.806257
0.698129
0.701598
0.71086
0.72054
0.725991
0.727442
0.727178
0.726601
0.726747
0.728262
0.731787
0.738188
0.747588
0.75954
0.773449
0.78873
0.804805
0.697367
0.700068
0.709099
0.719062
0.725445
0.7275
0.726811
0.725126
0.724526
0.725891
0.729843
0.736764
0.746285
0.757923
0.771235
0.785915
0.801166
0.696596
0.698535
0.707061
0.717061
0.724351
0.727027
0.726075
0.723716
0.722443
0.723721
0.728096
0.735196
0.744234
0.754962
0.767341
0.781504
0.79654
0.695721
0.697062
0.704911
0.714732
0.72269
0.726037
0.725099
0.722412
0.72069
0.721833
0.726357
0.733194
0.741315
0.75092
0.762408
0.776126
0.791211
0.694647
0.695659
0.702876
0.7123
0.720399
0.724216
0.723635
0.721082
0.719281
0.720308
0.724528
0.730573
0.737584
0.746139
0.756823
0.769971
0.784768
0.693317
0.694278
0.70103
0.710002
0.717619
0.721565
0.721612
0.719537
0.717991
0.718921
0.722452
0.727365
0.733284
0.740888
0.750659
0.762896
0.776871
0.691642
0.692845
0.699412
0.707953
0.714598
0.718187
0.718861
0.717624
0.716634
0.717429
0.720032
0.723714
0.728567
0.735167
0.743808
0.754844
0.767778
0.689563
0.691273
0.697962
0.706088
0.711648
0.714409
0.715272
0.715059
0.714796
0.715468
0.717135
0.719662
0.723455
0.7289
0.736253
0.746148
0.7585
0.687078
0.689488
0.696546
0.704359
0.708939
0.710615
0.711209
0.711668
0.712201
0.712851
0.713682
0.715152
0.717822
0.721998
0.728182
0.737439
0.74995
0.684227
0.687455
0.695032
0.7027
0.706437
0.707161
0.707134
0.707585
0.70852
0.709119
0.709304
0.709919
0.711493
0.714475
0.719878
0.729133
0.742564
0.681062
0.685165
0.693348
0.701001
0.704122
0.704123
0.703329
0.703168
0.703885
0.704264
0.703976
0.703879
0.704452
0.706552
0.711696
0.721443
0.736089
0.677682
0.68263
0.691437
0.699117
0.701952
0.701477
0.69993
0.698727
0.698587
0.698358
0.697577
0.696881
0.696618
0.698255
0.703653
0.714311
0.730379
0.674302
0.679875
0.68922
0.697009
0.699755
0.699064
0.696968
0.694561
0.692973
0.691705
0.690338
0.689069
0.688279
0.689936
0.696153
0.70804
0.725096
0.671162
0.676945
0.686637
0.694632
0.697419
0.696714
0.694209
0.690705
0.687354
0.684739
0.682576
0.680775
0.679717
0.681809
0.689181
0.702279
0.720393
0.668426
0.673946
0.683714
0.691947
0.694879
0.694281
0.691462
0.686911
0.681942
0.677821
0.674693
0.672508
0.671435
0.674175
0.682962
0.697259
0.715977
0.66616
0.671035
0.680557
0.688949
0.692124
0.691666
0.688524
0.682981
0.676718
0.671175
0.667052
0.664685
0.663911
0.667561
0.677477
0.692513
0.711822
0.664331
0.66838
0.677324
0.685712
0.689175
0.688802
0.68523
0.678798
0.671556
0.664853
0.659977
0.657722
0.657497
0.662029
0.672656
0.688298
0.708387
0.66285
0.666106
0.674221
0.682407
0.686125
0.685696
0.681485
0.674253
0.666312
0.6589
0.653702
0.651598
0.652303
0.657906
0.668307
0.684609
0.706877
0.66162
0.664295
0.671518
0.679273
0.683056
0.682353
0.677273
0.669329
0.660852
0.653228
0.648301
0.646511
0.648094
0.654455
0.665134
0.682403
0.707438
0.660538
0.662967
0.66947
0.676549
0.680072
0.678821
0.672656
0.664002
0.655146
0.647793
0.643657
0.642473
0.645025
0.651211
0.662658
0.682035
0.710339
0.659661
0.662108
0.6682
0.674398
0.677292
0.675119
0.66775
0.658342
0.649242
0.642529
0.639506
0.639221
0.642403
0.648836
0.661132
0.682204
0.714284
0.659085
0.661697
0.667626
0.672864
0.67483
0.671353
0.66271
0.652479
0.643307
0.63751
0.635451
0.636264
0.639718
0.646677
0.659843
0.683382
0.718448
0.659
0.661676
0.667451
0.671816
0.672687
0.667677
0.6577
0.646554
0.637425
0.632614
0.631384
0.633055
0.637082
0.644145
0.658143
0.682629
0.725446
0.659106
0.661838
0.667457
0.671068
0.67076
0.66426
0.653
0.640883
0.63175
0.627726
0.627239
0.62965
0.634273
0.641469
0.656426
0.68171
0.73158
0.659755
0.662116
0.667311
0.670189
0.668787
0.661174
0.648763
0.635645
0.626457
0.622881
0.623226
0.626475
0.631343
0.638562
0.655449
0.687791
0.741497
0.661605
0.662808
0.666876
0.669041
0.666735
0.658488
0.645328
0.631395
0.622011
0.618554
0.61959
0.623506
0.627969
0.638245
0.657531
0.702302
0.744433
0.663618
0.664078
0.666455
0.667797
0.664904
0.65624
0.642579
0.628039
0.618773
0.615516
0.616476
0.620115
0.627022
0.640158
0.667883
0.724639
0.712623
0.665058
0.665198
0.666598
0.666906
0.663583
0.654804
0.641677
0.626611
0.615831
0.611783
0.612721
0.618354
0.628313
0.645757
0.685643
0.730025
0.622859
0.666066
0.666119
0.66734
0.667557
0.66427
0.655489
0.64242
0.627615
0.616128
0.610529
0.611709
0.619138
0.631867
0.655032
0.69873
0.703499
0.533772
0.665966
0.666356
0.668187
0.668916
0.665955
0.65748
0.645417
0.63043
0.618655
0.611781
0.612557
0.621602
0.637015
0.665088
0.70271
0.617542
0.487985
0.665257
0.666193
0.669025
0.670701
0.668735
0.661294
0.651117
0.638829
0.625339
0.616139
0.61525
0.624993
0.643622
0.67635
0.689268
0.521991
0.473798
0.66462
0.665829
0.669512
0.672319
0.672022
0.666864
0.659425
0.652948
0.643663
0.627639
0.620958
0.628982
0.652172
0.688788
0.631056
0.480177
0.468056
0.664758
0.665904
0.669601
0.673415
0.67499
0.672496
0.668194
0.666785
0.666173
0.65654
0.635269
0.636991
0.66561
0.69056
0.550608
0.482203
0.468321
0.66601
0.667077
0.670468
0.674321
0.676779
0.676862
0.676096
0.678523
0.684616
0.688407
0.679345
0.67503
0.70301
0.668862
0.510637
0.491427
0.471216
0.668421
0.66896
0.672045
0.675511
0.677604
0.67876
0.681273
0.687409
0.698729
0.711768
0.724624
0.737874
0.727531
0.607011
0.513575
0.496498
0.470535
0.670614
0.671368
0.67463
0.678473
0.680759
0.681658
0.683677
0.691117
0.706958
0.726012
0.745481
0.752804
0.705647
0.566053
0.523471
0.498454
0.465496
0.669836
0.670805
0.67442
0.679409
0.683908
0.686869
0.688967
0.694296
0.708004
0.726099
0.743649
0.7402
0.653378
0.568298
0.531678
0.498434
0.466051
0.656097
0.656812
0.66006
0.665608
0.672454
0.679638
0.686665
0.694918
0.708138
0.721556
0.730567
0.70349
0.617058
0.579249
0.53846
0.495004
0.485109
0.618953
0.61977
0.623171
0.629079
0.637045
0.646528
0.658044
0.67183
0.688586
0.699645
0.696283
0.660823
0.621863
0.588094
0.541867
0.502614
0.501744
0.590785
0.591649
0.594231
0.598582
0.604212
0.611634
0.620918
0.633732
0.650603
0.664051
0.666265
0.655786
0.633157
0.596179
0.546445
0.519537
0.518198
0.588339
0.589294
0.591791
0.595554
0.599853
0.605836
0.613709
0.624799
0.639687
0.655267
0.664924
0.659238
0.638441
0.600657
0.552763
0.533344
0.532791
0.590706
0.59205
0.595136
0.599593
0.604074
0.608995
0.616348
0.627568
0.642634
0.658644
0.667453
0.661153
0.638122
0.600874
0.5595
0.549482
0.549944
0.592867
0.594424
0.59771
0.603063
0.609587
0.615985
0.623396
0.633852
0.647832
0.661819
0.666711
0.658161
0.633539
0.599675
0.570845
0.57307
0.571887
0.593317
0.594412
0.596435
0.602261
0.611196
0.620508
0.629349
0.639359
0.650797
0.660773
0.66156
0.652213
0.629612
0.601302
0.59418
0.599195
0.591658
0.593159
0.593545
0.594293
0.599853
0.609549
0.621612
0.632607
0.64273
0.651945
0.658761
0.657041
0.647703
0.632138
0.61736
0.619539
0.614199
0.599645
0.593917
0.593688
0.594058
0.599116
0.608811
0.622164
0.635463
0.646789
0.655058
0.66001
0.658141
0.653172
0.647091
0.641531
0.636399
0.620176
0.601539
0.596078
0.596642
0.599659
0.605702
0.6135
0.626148
0.641019
0.655176
0.665681
0.672153
0.674462
0.675974
0.671997
0.664726
0.645049
0.62201
0.600421
0.597137
0.600273
0.607929
0.618083
0.626378
0.637729
0.65346
0.671989
0.688826
0.700326
0.707684
0.706852
0.699757
0.67841
0.648572
0.622138
0.596902
0.595509
0.600846
0.611045
0.625908
0.640464
0.656499
0.67648
0.700484
0.722857
0.738898
0.741353
0.733616
0.714637
0.679089
0.646943
0.621338
0.594888
0.59356
0.598375
0.60953
0.632764
0.659047
0.685529
0.713319
0.738781
0.757681
0.761918
0.756169
0.742387
0.711989
0.668284
0.640427
0.619444
0.594059
0.59999
0.604122
0.61813
0.649914
0.688861
0.723958
0.749385
0.764809
0.772936
0.769821
0.755115
0.728198
0.690028
0.654528
0.63443
0.618946
0.600075
0.62252
0.635133
0.660408
0.698529
0.736931
0.760566
0.767456
0.769517
0.766254
0.751471
0.725846
0.698031
0.664437
0.641496
0.629025
0.618984
0.60773
0.648731
0.692751
0.733735
0.758556
0.768898
0.777713
0.769144
0.754796
0.739792
0.717815
0.697545
0.672202
0.6483
0.63688
0.628791
0.623013
0.616613
0.661177
0.749178
0.777675
0.779428
0.767485
0.757643
0.742612
0.722181
0.700251
0.684977
0.672339
0.653889
0.641629
0.636822
0.631892
0.628414
0.624693
0.676219
0.783727
0.780008
0.759736
0.732423
0.721763
0.707535
0.685105
0.670572
0.665638
0.659185
0.64799
0.639645
0.636012
0.633218
0.632479
0.631077
0.738282
0.739437
0.727024
0.705986
0.6813
0.674503
0.66848
0.656933
0.654283
0.654933
0.65378
0.649286
0.6426
0.638283
0.63624
0.637052
0.636561
0.932449
0.747441
0.699131
0.672426
0.655328
0.649428
0.642893
0.635843
0.637127
0.642546
0.643632
0.642296
0.642796
0.642643
0.642397
0.644333
0.6447
0.962431
0.799937
0.727001
0.684262
0.652169
0.641544
0.630045
0.625306
0.626751
0.630966
0.633234
0.635717
0.638487
0.641363
0.644594
0.64965
0.651853
0.988237
0.861109
0.770291
0.716879
0.666851
0.653888
0.640538
0.625736
0.628034
0.629409
0.6297
0.63104
0.634778
0.640292
0.644998
0.650485
0.654574
1.01111
0.904126
0.819293
0.762485
0.705598
0.68307
0.668112
0.643098
0.638134
0.634875
0.631471
0.634149
0.638441
0.640446
0.643874
0.649356
0.655445
1.02955
0.938713
0.861414
0.804953
0.746051
0.713017
0.696903
0.670291
0.656845
0.655048
0.645893
0.64553
0.646142
0.646191
0.648196
0.652581
0.656373
1.0429
0.966025
0.896065
0.843
0.78557
0.746389
0.728171
0.699492
0.679527
0.67489
0.663077
0.656496
0.657521
0.653869
0.653206
0.656013
0.658927
1.05308
0.987435
0.923337
0.874397
0.82169
0.779228
0.75733
0.728448
0.701384
0.695664
0.684176
0.673028
0.672756
0.667179
0.663505
0.666381
0.667769
1.06086
1.00402
0.945878
0.900914
0.851914
0.807452
0.784881
0.757235
0.727006
0.71933
0.70756
0.691292
0.688994
0.683107
0.676384
0.677921
0.678675
1.06716
1.01758
0.964106
0.922652
0.878796
0.833351
0.80944
0.783194
0.750475
0.739661
0.728255
0.709101
0.705249
0.699758
0.689876
0.690242
0.690041
1.07244
1.02871
0.979891
0.940857
0.901268
0.856817
0.831677
0.807369
0.773743
0.760445
0.749609
0.729196
0.72266
0.717069
0.705098
0.703245
0.702746
1.07694
1.03821
0.993341
0.956383
0.921094
0.878269
0.851347
0.828852
0.796147
0.779463
0.768426
0.74805
0.738694
0.733247
0.720879
0.717665
0.717439
1.08082
1.04622
1.00537
0.969689
0.937924
0.897985
0.869402
0.848182
0.816899
0.79743
0.786519
0.766762
0.755604
0.749554
0.736557
0.731731
0.730659
1.08425
1.05306
1.01591
0.981451
0.952639
0.915902
0.885675
0.865501
0.836508
0.814649
0.803395
0.784243
0.770924
0.764478
0.751519
0.745266
0.744283
1.08733
1.05892
1.0253
0.991988
0.965211
0.932027
0.900995
0.88114
0.854141
0.830903
0.819374
0.800972
0.786316
0.780022
0.766974
0.759419
0.757681
1.09019
1.06402
1.03354
1.00156
0.976257
0.946323
0.914991
0.895562
0.870756
0.846027
0.834365
0.81678
0.800563
0.794098
0.781705
0.772854
0.770507
1.09288
1.06855
1.04082
1.01036
0.985962
0.959078
0.928191
0.908604
0.885931
0.860496
0.848568
0.832
0.814362
0.807688
0.795807
0.786279
0.783574
1.09545
1.07266
1.04726
1.01844
0.994695
0.970374
0.940527
0.920639
0.900093
0.874187
0.861703
0.846411
0.828027
0.820685
0.809115
0.798668
0.795729
1.09793
1.07644
1.05302
1.02589
1.00264
0.980473
0.952189
0.931586
0.913071
0.887617
0.874051
0.85987
0.841112
0.833278
0.821911
0.810658
0.807898
1.10032
1.07994
1.0582
1.0328
1.01001
0.989451
0.963165
0.941832
0.924843
0.900536
0.885687
0.872588
0.853627
0.845422
0.834473
0.822055
0.818903
1.10262
1.08324
1.0629
1.03919
1.01699
0.997543
0.973311
0.951554
0.935471
0.912925
0.896761
0.88453
0.865555
0.856789
0.846641
0.833556
0.829954
1.10487
1.08636
1.06721
1.04509
1.02358
1.00492
0.982617
0.961016
0.945091
0.924432
0.907344
0.895846
0.877199
0.867341
0.85812
0.844746
0.840712
1.10705
1.08934
1.07123
1.05048
1.02982
1.01183
0.990967
0.970117
0.954087
0.935071
0.917383
0.90629
0.888709
0.877435
0.868938
0.855449
0.851071
1.10917
1.09217
1.07502
1.05544
1.03562
1.01833
0.998605
0.978796
0.962558
0.944863
0.927186
0.915845
0.899698
0.887268
0.879315
0.865778
0.860727
1.11121
1.09489
1.07862
1.06001
1.0411
1.02454
1.00562
0.986918
0.970707
0.953861
0.936802
0.924753
0.910001
0.896873
0.889252
0.876004
0.869773
1.11317
1.09749
1.08202
1.06429
1.04627
1.03035
1.01221
0.994588
0.978491
0.962072
0.946249
0.933391
0.919547
0.906102
0.898564
0.886153
0.878589
1.11504
1.10001
1.08526
1.06829
1.05118
1.0359
1.01832
1.00168
0.986093
0.969721
0.955077
0.941888
0.928684
0.915141
0.907104
0.895853
0.887339
1.11687
1.10242
1.08829
1.07215
1.05582
1.04105
1.02422
1.00826
0.993292
0.977102
0.963306
0.950155
0.937362
0.92424
0.91521
0.904897
0.895849
1.11866
1.10477
1.09119
1.07583
1.0602
1.04598
1.02986
1.0144
1.00007
0.984359
0.971045
0.958011
0.945404
0.933231
0.92326
0.913487
0.904086
1.12042
1.10703
1.09393
1.07939
1.06437
1.05053
1.03529
1.02032
1.00636
0.991189
0.978398
0.965748
0.952934
0.941627
0.931226
0.921844
0.912391
1.12213
1.10924
1.0966
1.08275
1.06829
1.05498
1.04041
1.02578
1.01246
0.997881
0.985138
0.973053
0.96035
0.949459
0.93897
0.929794
0.920679
1.12379
1.11136
1.09918
1.08598
1.07207
1.05912
1.04531
1.03113
1.01812
1.00423
0.991651
0.979943
0.967506
0.956887
0.946402
0.937233
0.928833
1.12542
1.11343
1.10171
1.08905
1.07565
1.06321
1.04988
1.03609
1.0236
1.01032
0.997854
0.986452
0.97432
0.964015
0.953874
0.944322
0.93621
1.12702
1.11543
1.10416
1.09201
1.07914
1.06703
1.05422
1.04099
1.02879
1.01597
1.00382
0.992854
0.980944
0.970462
0.960974
0.951725
0.943475
1.12857
1.11737
1.10655
1.09483
1.08247
1.07079
1.05838
1.04556
1.0338
1.02155
1.00949
0.998685
0.987454
0.977099
0.967492
0.958294
0.950662
1.1301
1.11926
1.10884
1.09757
1.08572
1.07432
1.06233
1.05011
1.03851
1.02664
1.01516
1.00446
0.993293
0.983199
0.974243
0.964909
0.956824
1.13158
1.12111
1.11108
1.1002
1.08882
1.07779
1.06616
1.05432
1.04309
1.03167
1.02039
1.00989
0.999245
0.989066
0.9802
0.971391
0.963356
1.13305
1.12293
1.11325
1.10277
1.09185
1.08105
1.06983
1.05851
1.04741
1.03636
1.02561
1.01515
1.00473
0.994919
0.986052
0.977251
0.969462
1.1345
1.12472
1.11537
1.10525
1.09474
1.08428
1.07339
1.06238
1.05165
1.041
1.03042
1.02015
1.01017
1.00057
0.991763
0.983166
0.975126
1.13596
1.12647
1.11741
1.10766
1.09755
1.08735
1.07684
1.06624
1.05568
1.04536
1.03519
1.02507
1.01529
1.00596
0.997236
0.988966
0.98108
1.13741
1.1282
1.11941
1.10997
1.10021
1.09038
1.08017
1.06984
1.05969
1.04966
1.03961
1.02971
1.02036
1.01125
1.00248
0.994311
0.986731
1.13887
1.12992
1.12138
1.11223
1.1028
1.09324
1.0834
1.07341
1.06346
1.05372
1.04405
1.03431
1.02504
1.01621
1.00771
0.999731
0.991993
1.14033
1.13164
1.12334
1.11444
1.10529
1.09605
1.08645
1.07678
1.06721
1.05765
1.04813
1.03877
1.0298
1.02102
1.01248
1.00482
0.997474
1.14177
1.13336
1.12527
1.11662
1.10773
1.09872
1.08943
1.08008
1.07069
1.0614
1.05224
1.04301
1.03419
1.02575
1.01746
1.00966
1.00237
1.14318
1.13504
1.1272
1.11877
1.11012
1.10135
1.09229
1.08324
1.07417
1.06502
1.05604
1.0472
1.0386
1.03018
1.0221
1.0146
1.00742
1.14455
1.13669
1.12908
1.12088
1.11248
1.10391
1.09512
1.08634
1.07744
1.06858
1.05985
1.05108
1.0427
1.03468
1.02667
1.01913
1.01213
1.1459
1.13828
1.13092
1.12296
1.1148
1.10645
1.09789
1.08936
1.08072
1.07201
1.06347
1.05499
1.04671
1.03876
1.03109
1.02378
1.01669
1.14724
1.13984
1.13271
1.125
1.11708
1.10895
1.10063
1.0923
1.08384
1.07542
1.06707
1.05866
1.05061
1.0429
1.03521
1.02802
1.02126
1.14859
1.14138
1.13445
1.12699
1.11932
1.11142
1.10331
1.09519
1.08693
1.07867
1.07053
1.06237
1.05441
1.04677
1.03936
1.03229
1.02552
1.14994
1.1429
1.13616
1.12894
1.12151
1.11385
1.10595
1.09801
1.08993
1.08189
1.07391
1.0659
1.05819
1.05068
1.04328
1.03637
1.02987
1.15127
1.14441
1.13785
1.13084
1.12366
1.11622
1.10852
1.10079
1.09289
1.085
1.07719
1.06938
1.06178
1.05442
1.04723
1.04041
1.03393
1.15258
1.14589
1.13952
1.13272
1.12575
1.11852
1.11103
1.10347
1.09577
1.08806
1.0804
1.07274
1.06532
1.05809
1.05102
1.04439
1.03797
1.1539
1.14735
1.14115
1.13456
1.12778
1.12074
1.11344
1.10607
1.09855
1.09104
1.08356
1.07604
1.06874
1.06166
1.05476
1.04819
1.04178
1.15522
1.14881
1.14275
1.13634
1.12976
1.1229
1.11577
1.10855
1.10121
1.09389
1.08662
1.07928
1.07212
1.06515
1.05839
1.05191
1.04542
1.15652
1.15028
1.14435
1.13811
1.1317
1.125
1.11804
1.11097
1.10377
1.09666
1.08958
1.08241
1.07541
1.06858
1.0619
1.0554
1.04886
1.15782
1.15174
1.14597
1.13987
1.13359
1.12704
1.12025
1.11335
1.10631
1.09933
1.0924
1.08543
1.07861
1.0719
1.06528
1.05874
1.0521
1.1592
1.15323
1.14759
1.14163
1.13547
1.12904
1.12241
1.1157
1.10883
1.10199
1.09517
1.08833
1.08167
1.07508
1.06846
1.06186
1.05517
1.16058
1.15477
1.14921
1.14336
1.13731
1.13099
1.12451
1.11799
1.11131
1.10461
1.09788
1.09116
1.08462
1.07809
1.07147
1.06482
1.05811
1.1619
1.15629
1.15084
1.14507
1.13911
1.1329
1.12656
1.1202
1.1137
1.10715
1.10055
1.09393
1.08745
1.08093
1.07429
1.06762
1.06097
1.16325
1.15776
1.15245
1.14679
1.14091
1.13482
1.12862
1.12235
1.11596
1.10956
1.10311
1.09661
1.09017
1.08363
1.07697
1.07033
1.06381
1.16472
1.1593
1.15405
1.1485
1.14269
1.13671
1.13065
1.1245
1.11819
1.1119
1.10557
1.09916
1.09275
1.0862
1.07955
1.07298
1.06671
1.1662
1.1609
1.15567
1.15018
1.14446
1.13857
1.13263
1.1266
1.12039
1.11419
1.10794
1.10161
1.0952
1.08866
1.08208
1.07568
1.06972
1.16761
1.16251
1.15729
1.15181
1.14617
1.14036
1.13452
1.12865
1.12259
1.11647
1.11026
1.10392
1.09754
1.09105
1.0846
1.07845
1.07287
1.16901
1.16398
1.15881
1.1534
1.14786
1.14214
1.13638
1.13061
1.1247
1.11869
1.1125
1.10618
1.09983
1.09342
1.08717
1.08137
1.0761
1.17048
1.16534
1.1602
1.15494
1.14955
1.14393
1.13823
1.13254
1.12675
1.12082
1.11467
1.10837
1.10207
1.09582
1.08988
1.08442
1.0794
1.17206
1.16676
1.16152
1.15648
1.1513
1.14581
1.14016
1.13449
1.12874
1.12287
1.11678
1.11054
1.10435
1.09831
1.09271
1.08756
1.08268
1.17353
1.16833
1.16303
1.15802
1.15299
1.14765
1.14212
1.13651
1.13075
1.12486
1.11882
1.11269
1.10671
1.10098
1.09567
1.09073
1.08594
1.17468
1.16986
1.16474
1.15975
1.15469
1.14944
1.14403
1.1385
1.13276
1.12686
1.12086
1.11488
1.10917
1.10376
1.09872
1.09392
1.08908
1.17599
1.1713
1.16645
1.16151
1.15641
1.15122
1.14593
1.14044
1.13471
1.12886
1.12297
1.1172
1.11179
1.10667
1.10178
1.09701
1.09215
1.17762
1.1729
1.16812
1.16331
1.1582
1.15301
1.14779
1.14236
1.13663
1.13083
1.12513
1.11967
1.11454
1.10962
1.10483
1.10001
1.09502
1.17941
1.17475
1.16979
1.16509
1.16009
1.15489
1.14966
1.14427
1.13861
1.13292
1.12742
1.12224
1.11736
1.11258
1.10778
1.10286
1.09773
1.18105
1.1766
1.17144
1.16682
1.16208
1.1569
1.15147
1.14604
1.14056
1.13514
1.12992
1.12497
1.12022
1.11549
1.11058
1.10549
1.10019
1.18254
1.17851
1.17327
1.1684
1.16385
1.1589
1.15351
1.14798
1.14254
1.1374
1.13248
1.12774
1.1231
1.11827
1.1132
1.10792
1.10236
1.18393
1.18018
1.17551
1.17056
1.16548
1.16053
1.15542
1.1501
1.14482
1.13983
1.13511
1.13052
1.12583
1.12086
1.1156
1.11005
1.10431
1.18617
1.18176
1.1774
1.17279
1.16762
1.1624
1.1572
1.15213
1.14723
1.14248
1.13784
1.13322
1.12838
1.12313
1.11769
1.112
1.10613
1.18837
1.18417
1.17919
1.1744
1.16964
1.16465
1.15941
1.15431
1.1496
1.14509
1.14055
1.13578
1.13065
1.12517
1.11948
1.11364
1.10781
1.18966
1.18662
1.18154
1.17636
1.17128
1.16662
1.16187
1.15704
1.15225
1.14763
1.14297
1.13798
1.1326
1.12696
1.12111
1.11525
1.10944
1.19225
1.18881
1.18396
1.17912
1.17386
1.1686
1.16399
1.15957
1.15494
1.15022
1.1452
1.13978
1.13412
1.12844
1.12264
1.11688
1.11111
1.19409
1.19133
1.18627
1.18195
1.17712
1.17164
1.16661
1.16176
1.15722
1.15242
1.14706
1.14139
1.13565
1.12981
1.12405
1.11843
1.11276
1.19348
1.1928
1.18786
1.18397
1.17988
1.17463
1.16938
1.16442
1.15936
1.15381
1.14821
1.14264
1.13708
1.1313
1.12553
1.11989
1.11436
1.18013
1.19143
1.18981
1.18513
1.18112
1.1764
1.17152
1.16655
1.16111
1.15538
1.14956
1.14379
1.13827
1.13273
1.12711
1.12148
1.11586
1.14061
1.17656
1.18749
1.18532
1.18239
1.17746
1.17261
1.16763
1.16209
1.15668
1.15107
1.14541
1.13954
1.13393
1.12847
1.12303
1.11746
1.05504
1.13142
1.17208
1.17985
1.18067
1.17879
1.17398
1.16884
1.16318
1.15748
1.15218
1.1469
1.1412
1.13544
1.12978
1.12441
1.11902
1.00574
1.04763
1.11872
1.16541
1.17377
1.17692
1.17353
1.16977
1.16458
1.15917
1.15359
1.14779
1.14258
1.1371
1.13145
1.12579
1.12049
1.0001
1.00434
1.03807
1.10479
1.15421
1.17192
1.16937
1.16761
1.16517
1.16048
1.15532
1.14954
1.14372
1.13832
1.13301
1.12751
1.12211
1
1.00006
1.00289
1.02775
1.08943
1.14017
1.16545
1.16449
1.16282
1.15992
1.15611
1.15106
1.14567
1.13995
1.13426
1.12913
1.12381
1
1
1.00003
1.0016
1.01901
1.07021
1.12669
1.1531
1.16191
1.15753
1.15424
1.1514
1.14687
1.14177
1.13631
1.13063
1.12505
1
1
1
1.00001
1.00079
1.01141
1.05239
1.10762
1.14095
1.15501
1.15291
1.14948
1.14646
1.14249
1.13783
1.13265
1.12686
1
1
1
1
1
1.00034
1.00599
1.03527
1.08534
1.12665
1.14325
1.14887
1.14472
1.14103
1.13805
1.13351
1.12882
1
1
1
1
1
1
1.00011
1.00275
1.02008
1.06262
1.10605
1.13099
1.14068
1.14063
1.13625
1.13295
1.12964
1
1
1
1
1
1
1
1.00003
1.00098
1.00983
1.03968
1.0815
1.11413
1.12846
1.13439
1.13167
1.12789
1
1
1
1
1
1
1
1
1.00001
1.00027
1.00385
1.02039
1.05484
1.09001
1.11343
1.12313
1.12601
1
1
1
1
1
1
1
1
1
1
1.00006
1.00108
1.00821
1.02955
1.06167
1.09009
1.10724
1
1
1
1
1
1
1
1
1
1
1
1.00001
1.00021
1.00232
1.01169
1.03301
1.05997
1
1
1
1.20806
1.20299
1.19628
1.18708
1.17254
1.14781
1.20634
1.20084
1.19351
1.18335
1.16719
1.13084
1.20532
1.19967
1.19201
1.18127
1.16413
1.12484
1.20393
1.19801
1.18995
1.17853
1.16032
1.12009
1.20249
1.19627
1.18784
1.17582
1.1567
1.11696
1.2009
1.19437
1.18559
1.17306
1.15329
1.11494
1.19936
1.19254
1.18341
1.17042
1.15024
1.11364
1.19788
1.19077
1.18129
1.1679
1.14756
1.11296
1.19643
1.18906
1.17926
1.16555
1.14527
1.11275
1.19502
1.18743
1.17736
1.16341
1.14335
1.11285
1.19354
1.1858
1.17554
1.16147
1.14178
1.11314
1.19199
1.18417
1.1738
1.15973
1.1405
1.11366
1.19039
1.18252
1.17212
1.15814
1.13946
1.11429
1.18878
1.18087
1.17049
1.15669
1.13863
1.11503
1.1872
1.17924
1.16893
1.15538
1.13798
1.11582
1.18568
1.17769
1.16746
1.15421
1.13748
1.11666
1.18426
1.17625
1.16612
1.1532
1.13715
1.11758
1.18296
1.17495
1.16493
1.15234
1.13698
1.11857
1.18178
1.17381
1.16391
1.15164
1.13693
1.11957
1.18072
1.17282
1.16304
1.15111
1.13698
1.12059
1.17977
1.17196
1.16233
1.15072
1.13714
1.12165
1.17892
1.17122
1.16177
1.15049
1.13742
1.12274
1.17813
1.17058
1.16134
1.15043
1.13783
1.12388
1.1774
1.17001
1.161
1.15048
1.13834
1.12506
1.17672
1.16949
1.16073
1.15058
1.13891
1.12629
1.17609
1.16902
1.16054
1.15076
1.13955
1.12754
1.17553
1.16859
1.1604
1.151
1.14024
1.12883
1.17504
1.16823
1.16031
1.15126
1.14095
1.1301
1.17464
1.16794
1.16028
1.15155
1.14167
1.13134
1.17432
1.16772
1.16031
1.15189
1.14241
1.13254
1.17407
1.16762
1.16044
1.15229
1.1432
1.13373
1.1739
1.1676
1.16064
1.15276
1.14404
1.13493
1.17379
1.16764
1.16089
1.15328
1.14491
1.13614
1.17376
1.16775
1.16119
1.15383
1.14578
1.13734
1.17378
1.16795
1.16153
1.15438
1.14663
1.13852
1.17386
1.16822
1.16192
1.15497
1.14747
1.13965
1.17402
1.16852
1.16236
1.15561
1.14837
1.14084
1.17422
1.16884
1.16284
1.15633
1.14933
1.14205
1.17442
1.16913
1.16334
1.1571
1.15035
1.14331
1.17463
1.16944
1.16387
1.15788
1.15136
1.14456
1.17485
1.16978
1.16442
1.15864
1.15235
1.14581
1.17511
1.1702
1.165
1.15937
1.1533
1.14704
1.17542
1.17067
1.16558
1.16009
1.15426
1.14824
1.17577
1.17117
1.1662
1.16085
1.15523
1.14941
1.17616
1.17168
1.16685
1.16165
1.15621
1.15055
1.17659
1.17221
1.16752
1.16246
1.15718
1.1517
1.17706
1.17275
1.1682
1.16327
1.15818
1.15287
1.17754
1.17331
1.1689
1.16412
1.1592
1.15406
1.17802
1.17391
1.16965
1.16502
1.16026
1.15525
1.17851
1.17454
1.17043
1.16597
1.16137
1.15644
1.17908
1.17521
1.17123
1.16694
1.16249
1.15765
1.17975
1.17598
1.17207
1.1679
1.16359
1.15886
1.1805
1.17684
1.173
1.16889
1.16465
1.16003
1.18123
1.17771
1.17399
1.16996
1.16575
1.16118
1.18198
1.17853
1.17493
1.17102
1.16689
1.16239
1.18285
1.17939
1.17582
1.17199
1.16798
1.16364
1.18378
1.18035
1.1768
1.17298
1.16903
1.16482
1.1846
1.18128
1.17784
1.17408
1.17016
1.166
1.18544
1.18215
1.17881
1.17516
1.17136
1.16732
1.18647
1.18321
1.17984
1.17619
1.17249
1.16866
1.18436
1.18106
1.17738
1.17365
1.1699
1.18538
1.18218
1.17868
1.17502
1.17121
1.18654
1.1832
1.17989
1.17651
1.17274
1.188
1.18449
1.1811
1.17787
1.17433
1.18934
1.18596
1.18249
1.17913
1.17579
1.19051
1.18739
1.18404
1.1805
1.17703
1.19182
1.18874
1.18573
1.18219
1.17833
1.19312
1.18985
1.18717
1.18394
1.18
1.19479
1.19126
1.18832
1.18521
1.18167
1.19709
1.1937
1.19003
1.18619
1.18295
1.19865
1.19598
1.19227
1.18798
1.18431
1.19942
1.19677
1.194
1.19007
1.1861
1.20207
1.1979
1.19512
1.19202
1.18838
1.20543
1.20084
1.19713
1.1936
1.19081
1.20683
1.20379
1.20037
1.19572
1.19222
1.20584
1.20401
1.20299
1.19953
1.19513
1.19027
1.19793
1.20122
1.20255
1.19794
1.12639
1.17603
1.18991
1.1989
1.1984
1.03036
1.09053
1.15011
1.18074
1.19083
1.0011
1.01215
1.05348
1.11467
1.15653
1
1.0002
1.00351
1.02474
1.06217
1
1
1.00002
1.00082
1.00348
1
1
1
1
0.999999
1
1
1
1
1
1
1
1
1
1
1
1
1
1
1
1
1
1
1
1
1
1
1
1
1
1
1
1
1
1
1
1
1
1
1
1
1
1
1
1
1
1
1
1
1
1
1
1
1
1
1
1
1
1
1
1
)
;

boundaryField
{
    inlet
    {
        type            fixedValue;
        value           nonuniform 0();
    }
    outlet
    {
        type            inletOutlet;
        inletValue      nonuniform 0();
        value           nonuniform 0();
    }
    triangle
    {
        type            zeroGradient;
    }
    top
    {
        type            symmetryPlane;
    }
    bottom
    {
        type            symmetryPlane;
    }
    defaultFaces
    {
        type            empty;
    }
    procBoundary21to13
    {
        type            processor;
        value           nonuniform List<scalar> 
18
(
0.744234
0.754962
0.767341
0.781504
0.79654
0.697367
0.700068
0.709099
0.719062
0.725445
0.7275
0.726811
0.725126
0.724526
0.725891
0.729843
0.736764
0.736764
)
;
    }
    procBoundary21to14
    {
        type            processor;
        value           nonuniform List<scalar> 
13
(
0.818002
0.821732
0.823655
0.82355
0.822683
0.821743
0.821743
0.822683
0.82355
0.823655
0.821732
0.818002
0.813715
)
;
    }
    procBoundary21to20
    {
        type            processor;
        value           nonuniform List<scalar> 
96
(
1.21159
1.21023
1.20936
1.20822
1.20708
1.20578
1.20449
1.20321
1.20191
1.20062
1.19925
1.1978
1.19631
1.19481
1.19335
1.19195
1.19064
1.18941
1.18829
1.18724
1.18626
1.18533
1.18444
1.18359
1.18278
1.18204
1.18138
1.18081
1.18032
1.17992
1.17959
1.17935
1.1792
1.17911
1.17904
1.17898
1.17896
1.17899
1.17906
1.17916
1.17929
1.17947
1.1797
1.17998
1.18028
1.18062
1.18099
1.18136
1.18172
1.18211
1.18262
1.18324
1.18388
1.1845
1.18521
1.18605
1.18689
1.18768
1.18862
1.18965
1.18746
1.18746
1.18841
1.18972
1.1911
1.19217
1.19343
1.19494
1.19645
1.19818
1.19984
1.20039
1.20282
1.20658
1.20919
1.20573
1.19638
1.15622
1.0586
1.00427
1.00003
1
1
1
1
1
1
1
1
1
1
1
1
1
1
1
)
;
    }
    procBoundary21to22
    {
        type            processor;
        value           nonuniform List<scalar> 
146
(
0.808329
0.801189
0.792213
0.782429
0.773521
0.766252
0.760609
0.755786
0.751447
0.74672
0.742448
0.738728
0.735998
0.735129
0.736829
0.742306
0.751941
0.767579
0.778595
0.78141
0.770318
0.714313
0.613046
0.53339
0.497334
0.487425
0.488011
0.485933
0.475003
0.459935
0.452891
0.449695
0.451427
0.471112
0.490653
0.504955
0.51592
0.527364
0.542975
0.559055
0.570592
0.576104
0.577349
0.577502
0.5768
0.577877
0.582669
0.590902
0.600373
0.61094
0.621191
0.629468
0.635765
0.644093
0.653565
0.658635
0.660238
0.660021
0.661861
0.667581
0.678093
0.688607
0.700614
0.714845
0.726991
0.739723
0.752006
0.763797
0.776149
0.788007
0.800256
0.81157
0.822685
0.833486
0.844205
0.854525
0.864309
0.873634
0.882638
0.891208
0.899177
0.906741
0.914113
0.921676
0.929137
0.935751
0.943018
0.949736
0.955811
0.962394
0.968318
0.973915
0.979817
0.98509
0.990509
0.995653
1.00044
1.00546
1.01003
1.01474
1.01917
1.02345
1.02764
1.03154
1.03536
1.03889
1.04228
1.04547
1.04856
1.05159
1.05466
1.0578
1.06108
1.06445
1.06788
1.07131
1.07471
1.07802
1.08124
1.08432
1.08723
1.08992