/*--------------------------------*- C++ -*----------------------------------*\
  =========                 |
  \\      /  F ield         | OpenFOAM: The Open Source CFD Toolbox
   \\    /   O peration     | Website:  https://openfoam.org
    \\  /    A nd           | Version:  7
     \\/     M anipulation  |
\*---------------------------------------------------------------------------*/
FoamFile
{
    version     2.0;
    format      ascii;
    class       volVectorField;
    location    "0.2";
    object      U;
}
// * * * * * * * * * * * * * * * * * * * * * * * * * * * * * * * * * * * * * //

dimensions      [0 1 -1 0 0 0 0];

internalField   nonuniform List<vector> 
325
(
(0.273744 0.117889 0)
(0.275308 0.1228 0)
(1.77466 0.000109742 0)
(0.933387 0.0169779 0)
(1.77205 -0.000809751 0)
(1.75261 0.000311538 0)
(1.34538 -0.000698471 0)
(1.75277 0.00153481 0)
(1.34494 -0.00374709 0)
(1.75321 0.00363788 0)
(1.34354 -0.00946896 0)
(1.75384 0.00587355 0)
(1.34151 -0.0141281 0)
(1.75464 0.0080902 0)
(1.33928 -0.016408 0)
(1.75515 0.00992934 0)
(1.33568 -0.0147611 0)
(1.75615 0.0124104 0)
(1.3235 -0.00706786 0)
(1.7572 0.0155998 0)
(1.29118 -0.00582604 0)
(1.75891 0.0206372 0)
(1.25028 -0.0308619 0)
(1.75774 0.0254779 0)
(1.23236 -0.0688533 0)
(1.75579 0.0293064 0)
(1.22794 -0.0974963 0)
(1.7542 0.0301001 0)
(1.22196 -0.111413 0)
(1.75152 0.024351 0)
(1.20246 -0.119591 0)
(1.74944 0.0166939 0)
(1.17766 -0.12217 0)
(1.74911 0.00999493 0)
(1.14261 -0.119808 0)
(1.7527 0.00667602 0)
(1.09566 -0.115569 0)
(1.75928 0.00410034 0)
(1.04412 -0.103514 0)
(1.76661 0.00349162 0)
(0.994435 -0.0819153 0)
(1.77205 0.000809751 0)
(0.953203 -0.0545255 0)
(1.77466 -0.000109742 0)
(0.933387 -0.0169779 0)
(1.03467 -0.000130599 0)
(0.998784 0.000161709 0)
(0.989397 0.000285894 0)
(0.99031 0.000276285 0)
(0.996326 0.00181324 0)
(0.98062 -0.0397496 0)
(1.03652 -0.0026336 0)
(0.999863 -0.00135188 0)
(0.989624 -0.000555424 0)
(0.990727 -0.000376168 0)
(0.976991 -0.0257784 0)
(0.863844 -0.15365 0)
(1.04104 -0.00702389 0)
(1.00311 -0.00446743 0)
(0.990947 -0.00414418 0)
(0.977414 -0.0212423 0)
(0.865686 -0.130028 0)
(0.754344 -0.237268 0)
(1.04433 -0.0117372 0)
(1.00501 -0.0103771 0)
(0.983045 -0.0282922 0)
(0.875587 -0.11957 0)
(0.741418 -0.228761 0)
(0.720112 -0.269047 0)
(1.03345 -0.0268987 0)
(0.990717 -0.051506 0)
(0.890538 -0.128601 0)
(0.745134 -0.229212 0)
(0.697797 -0.27316 0)
(0.720723 -0.274141 0)
(0.987331 -0.110004 0)
(0.903053 -0.171195 0)
(0.758048 -0.251204 0)
(0.690087 -0.288404 0)
(0.697294 -0.291053 0)
(0.721925 -0.286558 0)
(0.941125 -0.25111 0)
(0.807789 -0.307304 0)
(0.726964 -0.312311 0)
(0.714405 -0.295523 0)
(0.719019 -0.287927 0)
(0.732374 -0.289874 0)
(0.955131 -0.336815 0)
(0.803618 -0.382925 0)
(0.744489 -0.354789 0)
(0.729142 -0.321178 0)
(0.728652 -0.299523 0)
(0.741617 -0.295481 0)
(0.942454 -0.337785 0)
(0.830876 -0.359335 0)
(0.788207 -0.342296 0)
(0.762086 -0.318742 0)
(0.747088 -0.300571 0)
(0.753077 -0.294364 0)
(0.868911 -0.343419 0)
(0.810997 -0.320151 0)
(0.795118 -0.290798 0)
(0.777605 -0.280321 0)
(0.761343 -0.281425 0)
(0.761419 -0.281877 0)
(0.771837 -0.335913 0)
(0.748896 -0.303289 0)
(0.757645 -0.260168 0)
(0.755046 -0.243115 0)
(0.754324 -0.246785 0)
(0.761882 -0.259562 0)
(0.702946 -0.311539 0)
(0.680765 -0.286137 0)
(0.691509 -0.239939 0)
(0.709909 -0.217753 0)
(0.727279 -0.223917 0)
(0.745738 -0.240246 0)
(0.664025 -0.298689 0)
(0.637682 -0.275727 0)
(0.641535 -0.233366 0)
(0.661941 -0.200739 0)
(0.687722 -0.205208 0)
(0.714503 -0.228846 0)
(0.633918 -0.285583 0)
(0.611502 -0.263777 0)
(0.607328 -0.225445 0)
(0.622596 -0.19452 0)
(0.650625 -0.19406 0)
(0.679996 -0.21998 0)
(0.596796 -0.25847 0)
(0.584819 -0.240138 0)
(0.577232 -0.206497 0)
(0.590711 -0.181672 0)
(0.616033 -0.18534 0)
(0.646576 -0.214782 0)
(0.537336 -0.233666 0)
(0.536956 -0.218284 0)
(0.531148 -0.187469 0)
(0.549484 -0.165089 0)
(0.577132 -0.172178 0)
(0.611274 -0.205746 0)
(0.460785 -0.196263 0)
(0.463046 -0.185763 0)
(0.461757 -0.165885 0)
(0.486289 -0.152955 0)
(0.522417 -0.164453 0)
(0.566857 -0.199943 0)
(0.375903 -0.156892 0)
(0.376973 -0.151502 0)
(0.379487 -0.140582 0)
(0.408705 -0.136836 0)
(0.456055 -0.154947 0)
(0.515371 -0.194825 0)
(0.309297 -0.125963 0)
(0.311286 -0.124857 0)
(0.313209 -0.121164 0)
(0.340259 -0.125194 0)
(0.392176 -0.150479 0)
(0.463743 -0.196437 0)
(0.273744 -0.117889 0)
(0.275308 -0.1228 0)
(0.273026 -0.131347 0)
(0.292337 -0.145036 0)
(0.339977 -0.174345 0)
(0.415363 -0.216376 0)
(1.75258 -3.28347e-08 0)
(1.3454 1.72982e-07 0)
(1.75258 -3.69998e-08 0)
(1.3454 1.70745e-07 0)
(1.75258 -6.27254e-08 0)
(1.3454 2.90086e-07 0)
(1.75258 -6.9135e-08 0)
(1.3454 3.13805e-07 0)
(1.75258 -6.22532e-08 0)
(1.3454 2.83504e-07 0)
(1.75258 -4.09849e-08 0)
(1.3454 1.84282e-07 0)
(1.75258 -2.51505e-08 0)
(1.3454 9.95533e-08 0)
(1.75258 -1.10045e-08 0)
(1.3454 4.31212e-08 0)
(1.75258 6.57842e-09 0)
(1.3454 -2.80803e-08 0)
(1.75258 2.32162e-08 0)
(1.3454 -1.09696e-07 0)
(1.75258 4.00535e-08 0)
(1.3454 -1.79129e-07 0)
(1.75258 8.413e-08 0)
(1.3454 -3.65948e-07 0)
(1.75258 1.27213e-07 0)
(1.3454 -5.52378e-07 0)
(1.75258 1.88789e-07 0)
(1.3454 -8.00202e-07 0)
(1.75258 4.27331e-07 0)
(1.3454 -1.6428e-06 0)
(1.75258 1.61295e-06 0)
(1.3454 -6.15135e-06 0)
(1.75258 4.8786e-06 0)
(1.3454 -2.26746e-05 0)
(1.75258 1.05241e-05 0)
(1.34539 -5.75216e-05 0)
(1.75258 1.70611e-05 0)
(1.3454 -9.74901e-05 0)
(1.75258 4.99574e-05 0)
(1.34539 -0.000206009 0)
(1.03407 -3.14402e-07 0)
(0.998469 -3.44072e-07 0)
(0.989387 -3.43613e-07 0)
(0.990187 -3.35057e-07 0)
(0.996051 -2.75605e-07 0)
(1.01145 -1.65316e-07 0)
(1.03407 -4.41106e-07 0)
(0.99847 -4.84573e-07 0)
(0.989387 -4.68123e-07 0)
(0.990187 -4.14292e-07 0)
(0.996051 -2.58023e-07 0)
(1.01145 -6.71968e-08 0)
(1.03407 -5.88153e-07 0)
(0.99847 -6.32399e-07 0)
(0.989388 -6.08222e-07 0)
(0.990187 -5.63841e-07 0)
(0.996051 -4.27228e-07 0)
(1.01145 -2.0333e-07 0)
(1.03407 -6.0778e-07 0)
(0.99847 -6.53422e-07 0)
(0.989388 -6.30031e-07 0)
(0.990188 -5.79464e-07 0)
(0.996051 -4.0986e-07 0)
(1.01145 -1.71891e-07 0)
(1.03407 -4.91513e-07 0)
(0.998471 -5.45564e-07 0)
(0.989388 -5.29213e-07 0)
(0.990188 -4.86443e-07 0)
(0.996051 -3.70151e-07 0)
(1.01145 -2.12263e-07 0)
(1.03407 -2.6622e-07 0)
(0.998471 -3.14299e-07 0)
(0.989388 -3.03149e-07 0)
(0.990188 -2.81829e-07 0)
(0.996051 -2.35161e-07 0)
(1.01145 -1.72104e-07 0)
(1.03407 -2.91864e-08 0)
(0.998471 -7.05512e-08 0)
(0.989388 -6.99848e-08 0)
(0.990188 -6.64691e-08 0)
(0.996051 -8.2419e-08 0)
(1.01145 -1.16921e-07 0)
(1.03407 9.50256e-08 0)
(0.99847 7.23091e-08 0)
(0.989388 6.73034e-08 0)
(0.990187 5.54391e-08 0)
(0.996051 -1.12645e-08 0)
(1.01145 -1.08475e-07 0)
(1.03407 1.34986e-07 0)
(0.99847 1.36641e-07 0)
(0.989388 1.46578e-07 0)
(0.990187 1.40366e-07 0)
(0.996051 8.37396e-08 0)
(1.01145 -2.49315e-08 0)
(1.03407 1.83581e-07 0)
(0.99847 2.14555e-07 0)
(0.989387 2.17378e-07 0)
(0.990187 2.08401e-07 0)
(0.996051 1.77859e-07 0)
(1.01145 1.02163e-07 0)
(1.03407 1.70407e-07 0)
(0.99847 2.29219e-07 0)
(0.989388 2.44593e-07 0)
(0.990187 2.38071e-07 0)
(0.996051 2.66941e-07 0)
(1.01145 2.01087e-07 0)
(1.03407 3.23535e-07 0)
(0.99847 4.3409e-07 0)
(0.989388 4.29842e-07 0)
(0.990187 3.97646e-07 0)
(0.996051 3.91319e-07 0)
(1.01145 4.24378e-07 0)
(1.03407 5.99803e-07 0)
(0.998471 7.31342e-07 0)
(0.989388 6.89324e-07 0)
(0.990188 6.5251e-07 0)
(0.996051 3.87894e-07 0)
(1.01145 1.25219e-06 0)
(1.03407 9.00064e-07 0)
(0.998471 1.14284e-06 0)
(0.989388 1.08991e-06 0)
(0.990188 1.18509e-06 0)
(0.996051 -2.32352e-07 0)
(1.01145 6.15997e-06 0)
(1.03407 1.51193e-06 0)
(0.998472 2.05837e-06 0)
(0.989389 2.00605e-06 0)
(0.990188 2.51062e-06 0)
(0.996051 -1.32023e-06 0)
(1.01145 1.6433e-05 0)
(1.03407 3.52502e-06 0)
(0.998475 5.63018e-06 0)
(0.98939 6.09324e-06 0)
(0.99019 6.78551e-06 0)
(0.996053 4.4043e-06 0)
(1.01144 2.88372e-05 0)
(1.0341 1.95104e-05 0)
(0.998492 2.79071e-05 0)
(0.9894 3.11794e-05 0)
(0.990194 2.72048e-05 0)
(0.996058 4.1476e-05 0)
(1.01143 3.17499e-05 0)
(1.03417 7.62191e-05 0)
(0.998548 0.000101745 0)
(0.989439 0.000116744 0)
(0.990217 0.000105024 0)
(0.99606 0.000103415 0)
(1.01153 0.000126652 0)
(1.03427 0.000159241 0)
(0.998623 0.000204353 0)
(0.98947 0.000234928 0)
(0.990226 0.000225023 0)
(0.996106 9.91674e-05 0)
(1.01183 0.000630671 0)
(1.03431 0.00024979 0)
(0.998649 0.000320369 0)
(0.989482 0.000370736 0)
(0.990253 0.000341987 0)
(0.996389 0.000485916 0)
(1.01011 0.00209951 0)
)
;

boundaryField
{
    inlet
    {
        type            fixedValue;
        value           nonuniform 0();
    }
    outlet
    {
        type            inletOutlet;
        inletValue      nonuniform 0();
        value           nonuniform 0();
    }
    triangle
    {
        type            slip;
    }
    top
    {
        type            symmetryPlane;
    }
    bottom
    {
        type            symmetryPlane;
    }
    defaultFaces
    {
        type            empty;
    }
    procBoundary1to0
    {
        type            processor;
        value           nonuniform List<vector> 
40
(
(1.99053 -6.17615e-05 0)
(1.99051 -0.000214312 0)
(1.99047 -0.000429446 0)
(1.99043 -0.000657071 0)
(1.99036 -0.000906421 0)
(1.99036 -0.00113462 0)
(1.99032 -0.00143102 0)
(1.99036 -0.00174446 0)
(1.99047 -0.00207611 0)
(1.99055 -0.00239061 0)
(1.99063 -0.00250339 0)
(1.99088 -0.00194919 0)
(1.99127 -0.00100051 0)
(1.9915 -0.000310382 0)
(1.99163 0.000340473 0)
(1.99145 0.000442988 0)
(1.99074 0.000359413 0)
(1.98983 0.000171346 0)
(1.98901 6.18499e-05 0)
(1.9887 0.000103492 0)
(1.99053 3.04238e-09 0)
(1.99053 4.2139e-09 0)
(1.99053 6.5644e-09 0)
(1.99053 7.11891e-09 0)
(1.99053 6.26261e-09 0)
(1.99053 4.03759e-09 0)
(1.99053 2.15643e-09 0)
(1.99053 6.47092e-10 0)
(1.99053 -1.06963e-09 0)
(1.99053 -2.3986e-09 0)
(1.99053 -3.67929e-09 0)
(1.99053 -7.3678e-09 0)
(1.99053 -1.16378e-08 0)
(1.99053 -1.95193e-08 0)
(1.99053 -4.97629e-08 0)
(1.99053 -1.59693e-07 0)
(1.99053 -3.7892e-07 0)
(1.99053 -7.29545e-07 0)
(1.99053 -1.35966e-06 0)
(1.99053 -8.74505e-06 0)
)
;
    }
    procBoundary1to2
    {
        type            processor;
        value           nonuniform List<vector> 
40
(
(0.868382 -0.179743 0)
(0.783518 -0.253746 0)
(0.762609 -0.273211 0)
(0.756229 -0.27891 0)
(0.759001 -0.27913 0)
(0.759748 -0.28388 0)
(0.763619 -0.291298 0)
(0.770641 -0.293595 0)
(0.777005 -0.292978 0)
(0.780286 -0.28681 0)
(0.778414 -0.27595 0)
(0.767019 -0.265488 0)
(0.747258 -0.258868 0)
(0.721803 -0.253725 0)
(0.690981 -0.25313 0)
(0.654767 -0.2502 0)
(0.614394 -0.248641 0)
(0.57594 -0.247511 0)
(0.541809 -0.252899 0)
(0.50661 -0.26936 0)
(1.03326 -8.09194e-08 0)
(1.03326 3.79694e-08 0)
(1.03326 -4.63144e-08 0)
(1.03326 -3.45024e-08 0)
(1.03326 -1.19632e-07 0)
(1.03326 -1.24993e-07 0)
(1.03326 -1.31023e-07 0)
(1.03326 -1.59567e-07 0)
(1.03326 -9.62449e-08 0)
(1.03326 5.80702e-08 0)
(1.03326 2.25784e-07 0)
(1.03326 3.01538e-07 0)
(1.03326 -1.35066e-06 0)
(1.03326 -1.74643e-05 0)
(1.03327 -5.23979e-05 0)
(1.03328 -8.95116e-05 0)
(1.03332 -8.54268e-06 0)
(1.03337 0.000340709 0)
(1.03169 0.00204021 0)
(0.996334 -0.0441962 0)
)
;
    }
    procBoundary1to4
    {
        type            processor;
        value           nonuniform List<vector> 2((1.9887 -0.000103492 0) (1.98901 -6.18499e-05 0));
    }
    procBoundary1to5
    {
        type            processor;
        value           nonuniform List<vector> 6((0.309297 0.125963 0) (0.273026 0.131347 0) (0.311286 0.124857 0) (0.953203 0.0545255 0) (0.953203 0.0545255 0) (1.76661 -0.00349162 0));
    }
}


// ************************************************************************* //
