/*--------------------------------*- C++ -*----------------------------------*\
  =========                 |
  \\      /  F ield         | OpenFOAM: The Open Source CFD Toolbox
   \\    /   O peration     | Website:  https://openfoam.org
    \\  /    A nd           | Version:  8
     \\/     M anipulation  |
\*---------------------------------------------------------------------------*/
FoamFile
{
    version     2.0;
    format      ascii;
    class       volScalarField;
    location    "4.1";
    object      p;
}
// * * * * * * * * * * * * * * * * * * * * * * * * * * * * * * * * * * * * * //

dimensions      [1 -1 -2 0 0 0 0];

internalField   nonuniform List<scalar> 
2600
(
1.2638
1.38657
1.63534
1.84001
1.86593
2.35398
2.74902
2.73006
2.67086
2.4294
1.2648
1.37457
1.62953
1.86194
1.90445
2.37714
2.75783
2.73555
2.67328
2.43846
1.27118
1.36132
1.62158
1.87793
1.90941
2.39946
2.76163
2.7402
2.67409
2.44811
1.28109
1.34123
1.60632
1.88374
1.90662
2.42811
2.75852
2.74278
2.66947
2.45519
1.29597
1.31691
1.57759
1.87296
1.93214
2.4665
2.74223
2.74405
2.66974
2.46408
1.32562
1.29393
1.54246
1.84999
1.9443
2.50133
2.71
2.74296
2.65838
2.46894
1.34498
1.27362
1.49521
1.79816
1.93963
2.51351
2.68009
2.74914
2.66097
2.47019
1.36518
1.25632
1.44276
1.74091
1.94499
2.51274
2.66973
2.74484
2.65046
2.47977
1.37334
1.2424
1.37341
1.69676
1.95897
2.51216
2.66433
2.74764
2.65912
2.4766
1.37903
1.22504
1.30351
1.66146
1.99194
2.53632
2.66418
2.7364
2.65296
2.48141
1.38589
1.213
1.23615
1.63255
2.06445
2.55413
2.66799
2.7098
2.65555
2.47835
1.38803
1.20365
1.17905
1.60886
2.11323
2.58803
2.67811
2.69882
2.64587
2.48874
1.39249
1.19527
1.13785
1.58952
2.17024
2.6108
2.69814
2.69135
2.6407
2.48555
1.39322
1.1836
1.11798
1.58584
2.22781
2.64899
2.69758
2.67815
2.63101
2.48406
1.39574
1.17518
1.10363
1.5671
2.26481
2.65415
2.72318
2.66927
2.62449
2.47894
1.39279
1.17446
1.08855
1.55759
2.29582
2.65984
2.72598
2.66111
2.61865
2.4711
1.3931
1.16958
1.08446
1.53868
2.29924
2.64349
2.72378
2.65871
2.61576
2.46597
1.40005
1.17405
1.08259
1.53078
2.29136
2.62934
2.72026
2.65912
2.61588
2.4603
1.40919
1.18299
1.09086
1.52166
2.27747
2.60724
2.71225
2.66252
2.61319
2.4556
1.41388
1.20913
1.10919
1.51478
2.25754
2.59172
2.69498
2.67146
2.60703
2.44886
1.63419
1.23957
1.13535
1.49985
2.23043
2.57598
2.68836
2.6908
2.60984
2.44126
1.86549
1.31039
1.16638
1.47168
2.18958
2.5697
2.67509
2.70503
2.61906
2.43619
2.1318
1.38486
1.18528
1.44664
2.14302
2.54942
2.63482
2.69298
2.62487
2.43514
2.34513
1.49869
1.2152
1.42812
2.08847
2.52156
2.6217
2.67109
2.62225
2.4352
2.52878
1.63565
1.25833
1.42428
2.02608
2.49155
2.61478
2.65186
2.61432
2.43356
2.68167
1.76897
1.31486
1.44344
1.96693
2.45961
2.59661
2.63641
2.60398
2.42927
2.81593
1.90354
1.39258
1.47379
1.90945
2.42764
2.57713
2.62722
2.59556
2.42347
2.93455
2.02915
1.49694
1.51071
1.86354
2.3858
2.56167
2.622
2.58712
2.41695
3.03794
2.15951
1.60721
1.55588
1.82866
2.33426
2.55166
2.61806
2.57991
2.41099
3.13063
2.28499
1.72456
1.60928
1.80573
2.27561
2.54357
2.61951
2.577
2.40589
3.2149
2.41195
1.85306
1.66576
1.79637
2.21324
2.53281
2.62027
2.57443
2.39919
3.29474
2.53883
1.98355
1.73032
1.79921
2.14958
2.5076
2.61699
2.57589
2.39187
3.37424
2.66227
2.11662
1.79898
1.81342
2.08269
2.46693
2.61052
2.57412
2.38365
3.45474
2.78278
2.2404
1.87612
1.83853
2.01967
2.41078
2.58839
2.56551
2.3745
3.53645
2.89354
2.35805
1.95974
1.86093
1.96392
2.34436
2.56909
2.54916
2.36385
3.61678
2.99477
2.4659
2.04325
1.88633
1.92237
2.26463
2.54494
2.52899
2.35252
3.69208
3.08527
2.56666
2.13047
1.91581
1.89117
2.18244
2.51565
2.50439
2.33855
3.76017
3.16724
2.65936
2.21568
1.95025
1.87327
2.10201
2.48037
2.48336
2.32606
3.82009
3.24155
2.74513
2.30109
1.98808
1.87412
2.03226
2.43786
2.46589
2.31348
3.87154
3.30912
2.82473
2.38144
2.02959
1.88026
1.97198
2.38675
2.45466
2.30328
6.37881
6.08632
5.88604
5.6952
5.51802
5.34617
5.15633
4.9327
4.60492
4.2423
5.95629
5.70005
5.58102
5.45177
5.32594
5.18118
5.00389
4.77328
4.43534
3.96625
5.83536
5.64559
5.5607
5.44056
5.31796
5.17284
4.99302
4.75819
4.42117
3.95548
5.6854
5.53865
5.46892
5.35653
5.24311
5.09977
4.924
4.69033
4.36204
3.88682
5.56425
5.45166
5.3924
5.28825
5.18157
5.03976
4.86638
4.6319
4.31221
3.84298
5.45487
5.36462
5.30869
5.21241
5.11425
4.97749
4.81016
4.57928
4.27155
3.82565
5.3619
5.28882
5.23458
5.14444
5.04998
4.91582
4.75642
4.5339
4.24042
3.8266
5.27647
5.21781
5.16263
5.07745
4.9868
4.85782
4.70487
4.49189
4.21436
3.8351
5.1975
5.15394
5.09763
5.01695
4.92936
4.80455
4.65965
4.45696
4.19564
3.84942
5.12041
5.09432
5.03759
4.96011
4.8742
4.75483
4.61755
4.42732
4.18211
3.86641
5.04597
5.0421
4.97928
4.90655
4.82393
4.71066
4.57932
4.40184
4.17394
3.88663
4.97277
4.99894
4.92186
4.85481
4.77534
4.66813
4.5445
4.37945
4.16923
3.90931
4.89454
4.94949
4.86657
4.80465
4.72798
4.62922
4.51387
4.36267
4.16998
3.93641
4.80371
4.89499
4.8142
4.75901
4.68598
4.59532
4.48848
4.35156
4.17702
3.96872
4.70156
4.84057
4.76505
4.71698
4.64898
4.56764
4.4705
4.34827
4.19189
4.00645
4.5899
4.78981
4.72396
4.68037
4.6195
4.54924
4.4629
4.35541
4.21584
4.04934
4.46581
4.74533
4.69025
4.65319
4.59979
4.54038
4.46588
4.37227
4.24743
4.09517
4.32071
4.71
4.66533
4.63646
4.59298
4.54489
4.48181
4.39857
4.28381
4.14141
4.1316
4.67365
4.65453
4.64071
4.60736
4.56625
4.50862
4.43076
4.32209
4.18597
3.82371
4.61644
4.6849
4.67418
4.6404
4.59914
4.54183
4.46394
4.3581
4.22696
1.00227
1.00709
1.01243
1.0184
1.02504
1.0325
1.04127
1.04946
1.05738
3.69953
1.00227
1.00709
1.01243
1.0184
1.02504
1.03249
1.04127
1.04947
1.05829
3.6581
1.00227
1.00709
1.01243
1.0184
1.02504
1.03248
1.04127
1.04943
1.06013
3.59482
1.00227
1.00709
1.01243
1.0184
1.02505
1.03246
1.04127
1.0494
1.0626
3.51097
1.00227
1.00709
1.01243
1.0184
1.02505
1.03245
1.04128
1.04945
1.0641
3.41792
1.00227
1.00709
1.01243
1.0184
1.02505
1.03243
1.04129
1.04953
1.06434
3.31724
1.00227
1.00709
1.01243
1.01839
1.02506
1.03242
1.04131
1.04964
1.06399
3.21558
1.00227
1.00709
1.01243
1.01839
1.02506
1.03242
1.04133
1.04978
1.06231
3.11386
1.00227
1.00709
1.01243
1.01839
1.02506
1.03242
1.04133
1.04995
1.0607
3.01233
1.00227
1.00709
1.01243
1.01839
1.02506
1.03243
1.04128
1.05013
1.05936
2.91174
1.00227
1.00709
1.01243
1.01839
1.02506
1.03244
1.04119
1.05032
1.05856
2.81204
1.00227
1.00709
1.01243
1.01839
1.02505
1.03246
1.04111
1.05048
1.05824
2.71276
1.00227
1.00709
1.01243
1.01839
1.02505
1.03247
1.04102
1.05062
1.05814
2.61392
1.00227
1.00709
1.01243
1.01838
1.02505
1.03248
1.04095
1.05074
1.0582
2.51434
1.00227
1.00709
1.01243
1.01838
1.02506
1.03248
1.04092
1.05084
1.05826
2.41235
1.00227
1.00709
1.01244
1.01838
1.02506
1.03248
1.04093
1.05091
1.05833
2.30519
1.00227
1.00709
1.01244
1.01838
1.02506
1.03248
1.04094
1.05098
1.0584
2.19191
1.00227
1.00709
1.01244
1.01838
1.02506
1.03248
1.04094
1.05104
1.05847
2.07139
1.00227
1.00709
1.01244
1.01838
1.02507
1.03248
1.04093
1.05109
1.05855
1.94245
1.00227
1.00709
1.01244
1.01838
1.02507
1.03248
1.04093
1.05114
1.05862
1.81173
1.00227
1.00709
1.01244
1.01838
1.02507
1.03248
1.04093
1.05114
1.05862
1.81069
1.00227
1.00709
1.01244
1.01838
1.02507
1.03248
1.04093
1.05109
1.05855
1.94138
1.00227
1.00709
1.01244
1.01838
1.02506
1.03248
1.04094
1.05104
1.05847
2.07045
1.00227
1.00709
1.01244
1.01838
1.02506
1.03248
1.04094
1.05098
1.0584
2.19115
1.00227
1.00709
1.01244
1.01838
1.02506
1.03248
1.04093
1.05091
1.05833
2.30461
1.00227
1.00709
1.01243
1.01838
1.02506
1.03248
1.04092
1.05084
1.05826
2.41191
1.00227
1.00709
1.01243
1.01838
1.02505
1.03248
1.04095
1.05074
1.05819
2.51402
1.00227
1.00709
1.01243
1.01839
1.02505
1.03247
1.04102
1.05062
1.05814
2.6137
1.00227
1.00709
1.01243
1.01839
1.02505
1.03246
1.04111
1.05048
1.05824
2.7126
1.00227
1.00709
1.01243
1.01839
1.02506
1.03244
1.04119
1.05032
1.05855
2.81195
1.00227
1.00709
1.01243
1.01839
1.02506
1.03243
1.04128
1.05013
1.05936
2.91167
1.00227
1.00709
1.01243
1.01839
1.02506
1.03242
1.04133
1.04995
1.0607
3.01223
1.00227
1.00709
1.01243
1.01839
1.02506
1.03242
1.04133
1.04978
1.0623
3.11376
1.00227
1.00709
1.01243
1.01839
1.02506
1.03242
1.04131
1.04964
1.06399
3.21549
1.00227
1.00709
1.01243
1.0184
1.02505
1.03243
1.04129
1.04953
1.06433
3.31723
1.00227
1.00709
1.01243
1.0184
1.02505
1.03245
1.04128
1.04945
1.0641
3.41796
1.00227
1.00709
1.01243
1.0184
1.02505
1.03246
1.04127
1.0494
1.0626
3.51105
1.00227
1.00709
1.01243
1.0184
1.02504
1.03248
1.04127
1.04943
1.06014
3.5949
1.00227
1.00709
1.01243
1.0184
1.02504
1.03249
1.04127
1.04947
1.0583
3.65816
1.00227
1.00709
1.01243
1.0184
1.02504
1.0325
1.04127
1.04946
1.05738
3.69955
3.82079
4.61634
4.6866
4.67591
4.6426
4.6015
4.54504
4.46751
4.36277
4.23411
4.13077
4.67462
4.65646
4.64279
4.60993
4.56896
4.512
4.43473
4.32728
4.19379
4.32028
4.7114
4.66757
4.6388
4.59583
4.54786
4.48535
4.40279
4.28958
4.14975
4.46579
4.74672
4.69259
4.65573
4.60276
4.54348
4.4696
4.37676
4.25377
4.10387
4.59041
4.79129
4.72635
4.68303
4.6226
4.5525
4.46698
4.36022
4.22277
4.05821
4.7026
4.84232
4.76757
4.71981
4.65223
4.57108
4.4751
4.3535
4.19933
4.01535
4.80514
4.89695
4.81682
4.76196
4.68948
4.59908
4.4936
4.35716
4.18479
3.97733
4.89623
4.95158
4.86922
4.80779
4.73171
4.63329
4.51943
4.3685
4.17791
3.94432
4.9746
5.00119
4.92452
4.85808
4.77927
4.67262
4.55036
4.38524
4.17699
3.91594
5.04785
5.04453
4.98197
4.90991
4.82798
4.71542
4.5854
4.40738
4.18119
3.89136
5.12229
5.09677
5.04039
4.96359
4.87841
4.75967
4.62353
4.43253
4.18848
3.86889
5.19954
5.15651
5.10042
5.02039
4.93355
4.80945
4.66548
4.46168
4.20078
3.84944
5.27859
5.22042
5.1655
5.08095
4.99101
4.86263
4.71044
4.496
4.21814
3.83262
5.36388
5.29138
5.23751
5.14802
5.0542
4.92065
4.76178
4.53751
4.2429
3.82072
5.45676
5.36713
5.31165
5.21609
5.1186
4.98234
4.81523
4.58257
4.27304
3.81527
5.56599
5.45406
5.39528
5.29189
5.18591
5.04462
4.87127
4.6351
4.31322
3.82584
5.6868
5.54073
5.47151
5.35986
5.24716
5.10454
4.92888
4.69361
4.36311
3.86336
5.83645
5.64745
5.56318
5.44379
5.32192
5.17751
4.99773
4.76172
4.42065
3.9324
5.95706
5.70158
5.58318
5.45467
5.32957
5.18558
5.00873
4.77689
4.4354
3.94507
6.37903
6.08723
5.88755
5.69749
5.52103
5.34997
5.1607
4.93649
4.60537
4.22298
3.8879
3.34236
2.88304
2.44951
2.01216
1.8269
1.89831
2.301
2.43799
2.27242
3.8373
3.27451
2.80756
2.37554
1.95357
1.80235
1.92852
2.35726
2.45371
2.28437
3.77786
3.19963
2.72546
2.2958
1.89546
1.77718
1.96727
2.41192
2.46807
2.29631
3.70974
3.11575
2.63684
2.21165
1.83767
1.75233
2.01773
2.4655
2.47996
2.30188
3.63372
3.0214
2.54053
2.12369
1.7799
1.73187
2.08373
2.51461
2.49017
2.30886
3.55187
2.91538
2.43881
2.0336
1.73163
1.71676
2.16263
2.5562
2.4964
2.31038
3.46758
2.79914
2.32965
1.94722
1.6924
1.70598
2.2548
2.58804
2.50477
2.31575
3.38374
2.67292
2.22077
1.86926
1.66442
1.73636
2.34747
2.61048
2.51662
2.32646
3.30003
2.54268
2.11085
1.80406
1.6542
1.79867
2.42477
2.61995
2.53202
2.33829
3.21538
2.41193
2.01056
1.75544
1.65494
1.87172
2.4849
2.62814
2.54844
2.34993
3.12775
2.28062
1.92283
1.72412
1.67461
1.94538
2.52909
2.63918
2.56408
2.36048
3.03436
2.15374
1.84624
1.70195
1.68582
2.01101
2.56322
2.65569
2.57758
2.36843
2.93314
2.02362
1.78202
1.6819
1.68954
2.07689
2.59704
2.67805
2.58802
2.3741
2.82268
1.88784
1.73201
1.66424
1.69348
2.14504
2.62802
2.70214
2.59718
2.37877
2.69312
1.7553
1.69417
1.65374
1.70896
2.2135
2.65805
2.72097
2.60497
2.38322
2.54029
1.63839
1.66755
1.6578
1.75857
2.27246
2.68156
2.73374
2.61095
2.38858
2.34777
1.54491
1.64296
1.67794
1.8256
2.31719
2.69483
2.73958
2.61774
2.39454
2.11785
1.47596
1.62701
1.71484
1.87863
2.32945
2.70703
2.74435
2.63019
2.40253
1.82553
1.43279
1.62772
1.76275
1.89295
2.33379
2.72016
2.74583
2.64999
2.41131
1.5184
1.39664
1.63153
1.80987
1.86337
2.3382
2.73535
2.73177
2.6633
2.41966
4.83565
4.53538
4.10131
3.64166
3.19245
2.75692
2.36552
2.00767
1.58829
1.25949
4.83038
4.51626
4.0951
3.63316
3.18524
2.75153
2.36083
1.999
1.58197
1.26467
4.82008
4.49507
4.08581
3.62385
3.17626
2.7436
2.35251
1.98409
1.57252
1.27497
4.804
4.47602
4.07045
3.60157
3.15969
2.73188
2.34159
1.96384
1.56451
1.2929
4.78335
4.46664
4.04379
3.57512
3.13766
2.7152
2.32521
1.93582
1.5568
1.31971
4.75909
4.4586
4.00573
3.54224
3.10906
2.69295
2.30249
1.90176
1.55721
1.36141
4.73299
4.43817
3.96581
3.50465
3.07346
2.66373
2.27157
1.86323
1.56393
1.42234
4.72322
4.40115
3.91621
3.45949
3.03121
2.62708
2.23085
1.82302
1.56935
1.50757
4.74642
4.34181
3.85459
3.40847
2.98513
2.58397
2.18068
1.78651
1.57533
1.6069
4.75168
4.27238
3.78629
3.3561
2.93745
2.53502
2.12362
1.75756
1.59217
1.70589
4.71076
4.19203
3.71934
3.30389
2.88727
2.48008
2.06358
1.74079
1.62689
1.79261
4.63722
4.11216
3.65943
3.24888
2.83228
2.41851
2.00555
1.73626
1.68169
1.87197
4.56015
4.0318
3.59968
3.18884
2.76934
2.34944
1.95177
1.73202
1.75808
1.94291
4.47097
3.95531
3.53814
3.12159
2.69694
2.27319
1.91189
1.73773
1.85571
2.00966
4.37328
3.88125
3.47266
3.04923
2.61953
2.19171
1.87563
1.75648
1.97982
2.06882
4.2669
3.80396
3.40048
2.97296
2.53383
2.11097
1.85251
1.80334
2.11332
2.11733
4.16755
3.7222
3.31742
2.88961
2.44092
2.03319
1.82606
1.88363
2.23178
2.15532
4.09185
3.63552
3.21944
2.7925
2.34061
1.96562
1.81454
1.99292
2.32105
2.18684
4.02783
3.54176
3.10886
2.68323
2.22396
1.9116
1.82162
2.11201
2.3784
2.22154
3.95343
3.43296
2.98465
2.55508
2.10371
1.86308
1.86111
2.22366
2.4121
2.25327
3.93854
3.40111
2.93464
2.49885
2.11024
1.89375
1.90513
2.28965
2.44984
2.29435
4.01576
3.51552
3.06791
2.64106
2.22695
1.93575
1.84347
2.14051
2.41102
2.26433
4.0817
3.61672
3.18737
2.75846
2.34783
1.984
1.82818
1.98691
2.34961
2.22755
4.16034
3.70886
3.29139
2.86202
2.454
2.04885
1.83017
1.85239
2.23111
2.17388
4.26281
3.79333
3.38026
2.95237
2.54694
2.13255
1.84245
1.76057
2.06761
2.11408
4.37134
3.87407
3.45922
3.03442
2.62876
2.21663
1.86425
1.71412
1.89174
2.04735
4.47089
3.95248
3.53103
3.11106
2.70311
2.29781
1.90228
1.69794
1.75173
1.96762
4.56223
4.03201
3.59729
3.18258
2.77078
2.36971
1.95586
1.69833
1.65938
1.88462
4.64199
4.11478
3.65982
3.24599
2.83185
2.43385
2.0153
1.70566
1.60529
1.80151
4.71647
4.1969
3.72227
3.30359
2.88668
2.49087
2.07497
1.72428
1.58097
1.72151
4.75777
4.27886
3.79074
3.35839
2.93801
2.54115
2.13425
1.7554
1.57073
1.64128
4.7523
4.34821
3.85954
3.41281
2.98764
2.5883
2.18843
1.79334
1.56805
1.56176
4.72788
4.40691
3.92133
3.46484
3.03546
2.63125
2.23624
1.83551
1.57139
1.48532
4.73607
4.4429
3.97072
3.51037
3.07924
2.66953
2.27657
1.87409
1.57154
1.42032
4.76033
4.46156
4.00948
3.54752
3.11564
2.70074
2.30817
1.90851
1.56899
1.37243
4.78297
4.46707
4.04602
3.57963
3.14429
2.72427
2.33187
1.9382
1.56627
1.33567
4.80204
4.47489
4.07101
3.60528
3.16589
2.74112
2.34927
1.9631
1.5653
1.31023
4.81666
4.49253
4.085
3.62568
3.18168
2.75219
2.36087
1.98182
1.56545
1.29153
4.82611
4.51227
4.09333
3.6346
3.19009
2.75909
2.36946
1.99677
1.56775
1.28145
4.83081
4.53054
4.09903
3.642
3.19693
2.7636
2.37425
2.00599
1.56993
1.27224
3.07949
4.51828
4.82378
4.75441
4.70188
4.6487
4.58854
4.50835
4.40653
4.27906
2.27392
3.87929
4.88565
4.83086
4.78908
4.73253
4.66305
4.57277
4.46654
4.34005
1.75845
2.81589
4.80862
4.95942
4.89269
4.81523
4.73216
4.63852
4.52914
4.39858
1.50571
1.77486
4.21312
5.05621
4.9741
4.90801
4.81795
4.72088
4.60843
4.48292
1.3839
1.431
3.15713
5.06584
5.06754
4.98847
4.90005
4.82277
4.70208
4.57609
1.3016
1.32423
2.09174
4.88331
5.12048
5.06317
4.99878
4.90258
4.79622
4.66471
1.23789
1.25571
1.38712
4.36232
5.28532
5.22148
5.11132
5.00998
4.88831
4.75106
1.19608
1.21174
1.23143
3.54454
5.30147
5.25855
5.2148
5.11073
4.98065
4.8438
1.16841
1.18155
1.19189
2.88503
5.25202
5.23066
5.18004
5.13247
5.02056
4.92427
1.14949
1.15908
1.16735
2.41428
5.13646
5.21901
5.15535
5.09492
5.02052
4.93252
1.13564
1.14335
1.14976
2.07812
4.97686
5.21404
5.14297
5.06938
5.0066
4.9044
1.12488
1.13136
1.13678
1.79932
4.80926
5.23008
5.14229
5.06066
4.98629
4.88309
1.11663
1.12197
1.12656
1.56839
4.62667
5.25116
5.15082
5.06373
4.97267
4.87576
1.11026
1.11488
1.11879
1.34929
4.44879
5.29533
5.17429
5.07413
4.96814
4.87944
1.10535
1.10945
1.11297
1.18222
4.2255
5.33893
5.2093
5.09695
4.97869
4.89213
1.10161
1.10528
1.10859
1.12986
3.96678
5.33266
5.23123
5.12225
5.00676
4.91583
1.09888
1.10221
1.10541
1.11501
3.74388
5.30068
5.2287
5.13962
5.03665
4.94605
1.09703
1.10013
1.10323
1.10946
3.57461
5.26461
5.21305
5.15104
5.05976
4.9737
1.09586
1.09879
1.10182
1.10691
3.4602
5.23693
5.19638
5.15562
5.07539
4.99079
1.09521
1.09797
1.10096
1.1057
3.40287
5.21266
5.18372
5.15623
5.08389
5.00053
1.00227
1.00709
1.01244
1.01838
1.02507
1.03249
1.04091
1.05117
1.05872
1.65086
1.00227
1.00709
1.01244
1.01838
1.02507
1.03249
1.04089
1.05121
1.05883
1.48097
1.00227
1.00708
1.01244
1.01837
1.02507
1.0325
1.04087
1.05121
1.05892
1.36524
1.00227
1.00708
1.01244
1.01837
1.02507
1.03251
1.04085
1.05121
1.05899
1.29267
1.00227
1.00708
1.01244
1.01838
1.02507
1.03252
1.04084
1.0512
1.05905
1.23697
1.00227
1.00708
1.01244
1.01838
1.02507
1.03252
1.04082
1.0512
1.05912
1.19048
1.00227
1.00708
1.01244
1.01838
1.02506
1.03253
1.04081
1.05119
1.05922
1.15831
1.00227
1.00709
1.01244
1.01838
1.02506
1.03254
1.04081
1.05118
1.0593
1.13808
1.00227
1.00709
1.01244
1.01838
1.02505
1.03254
1.0408
1.05116
1.05938
1.12403
1.00227
1.00709
1.01244
1.01839
1.02505
1.03255
1.0408
1.05115
1.05945
1.11345
1.00227
1.00709
1.01244
1.01839
1.02504
1.03255
1.04079
1.05113
1.05953
1.10532
1.00227
1.00709
1.01243
1.01839
1.02504
1.03256
1.04079
1.05112
1.05961
1.0991
1.00227
1.00709
1.01243
1.01839
1.02503
1.03256
1.04079
1.05111
1.05969
1.09426
1.00227
1.00709
1.01243
1.01839
1.02503
1.03257
1.04079
1.05111
1.05977
1.09048
1.00227
1.00709
1.01243
1.0184
1.02503
1.03257
1.04079
1.05111
1.05985
1.08758
1.00227
1.00709
1.01243
1.0184
1.02503
1.03258
1.04078
1.05113
1.05993
1.08538
1.00227
1.00709
1.01243
1.0184
1.02502
1.03258
1.04078
1.05115
1.05999
1.08379
1.00227
1.00709
1.01243
1.0184
1.02502
1.03259
1.04077
1.05119
1.06003
1.0827
1.00227
1.00709
1.01243
1.0184
1.02502
1.03258
1.04076
1.05122
1.06006
1.08199
1.00227
1.00709
1.01243
1.0184
1.02502
1.0326
1.04076
1.05127
1.06007
1.08157
1.00227
1.00709
1.01243
1.0184
1.02502
1.0326
1.04076
1.05127
1.06007
1.08157
1.00227
1.00709
1.01243
1.0184
1.02502
1.03258
1.04076
1.05122
1.06006
1.08199
1.00227
1.00709
1.01243
1.0184
1.02502
1.03259
1.04077
1.05119
1.06003
1.0827
1.00227
1.00709
1.01243
1.0184
1.02502
1.03258
1.04078
1.05115
1.05999
1.08379
1.00227
1.00709
1.01243
1.0184
1.02503
1.03258
1.04078
1.05113
1.05993
1.08538
1.00227
1.00709
1.01243
1.0184
1.02503
1.03257
1.04079
1.05111
1.05985
1.08758
1.00227
1.00709
1.01243
1.01839
1.02503
1.03257
1.04079
1.05111
1.05977
1.09049
1.00227
1.00709
1.01243
1.01839
1.02503
1.03256
1.04079
1.05111
1.05969
1.09427
1.00227
1.00709
1.01243
1.01839
1.02504
1.03256
1.04079
1.05112
1.05961
1.09911
1.00227
1.00709
1.01244
1.01839
1.02504
1.03255
1.04079
1.05113
1.05953
1.10535
1.00227
1.00709
1.01244
1.01839
1.02505
1.03255
1.0408
1.05115
1.05945
1.11351
1.00227
1.00709
1.01244
1.01838
1.02505
1.03254
1.0408
1.05116
1.05938
1.12412
1.00227
1.00709
1.01244
1.01838
1.02506
1.03254
1.04081
1.05118
1.0593
1.13819
1.00227
1.00708
1.01244
1.01838
1.02506
1.03253
1.04081
1.05119
1.05922
1.15843
1.00227
1.00708
1.01244
1.01838
1.02507
1.03252
1.04082
1.0512
1.05912
1.19058
1.00227
1.00708
1.01244
1.01838
1.02507
1.03252
1.04084
1.0512
1.05905
1.23698
1.00227
1.00708
1.01244
1.01837
1.02507
1.03251
1.04085
1.05121
1.05899
1.29253
1.00227
1.00708
1.01244
1.01837
1.02507
1.0325
1.04087
1.05121
1.05892
1.3649
1.00227
1.00709
1.01244
1.01838
1.02507
1.03249
1.04089
1.05121
1.05883
1.48032
1.00227
1.00709
1.01244
1.01838
1.02507
1.03249
1.04091
1.05117
1.05871
1.6499
1.09521
1.09796
1.10096
1.10558
3.39302
5.21251
5.18457
5.1596
5.08838
5.00577
1.09586
1.09878
1.10182
1.10679
3.45175
5.23719
5.19742
5.15876
5.07951
4.99545
1.09702
1.10012
1.10322
1.10931
3.56903
5.26503
5.21405
5.15377
5.06326
4.97761
1.09887
1.1022
1.10539
1.11484
3.74198
5.30134
5.22998
5.14178
5.03928
4.94868
1.1016
1.10527
1.10857
1.12999
3.96933
5.33329
5.23221
5.12351
5.00809
4.91696
1.10534
1.10944
1.11295
1.18472
4.23196
5.33844
5.20916
5.09689
4.97878
4.89207
1.11026
1.11488
1.11879
1.35717
4.4548
5.29349
5.17296
5.07328
4.9674
4.87823
1.11664
1.12198
1.12658
1.57762
4.63368
5.25
5.14966
5.06231
4.97092
4.87329
1.12492
1.1314
1.13683
1.81004
4.81626
5.22869
5.14081
5.05864
4.98361
4.87964
1.1357
1.14342
1.14984
2.08939
4.9816
5.21272
5.14135
5.06713
5.00328
4.90026
1.1496
1.15921
1.16751
2.42439
5.13901
5.21784
5.15372
5.09291
5.01742
4.92768
1.16857
1.18175
1.19211
2.89227
5.25262
5.22939
5.17847
5.13042
5.01727
4.91927
1.19628
1.21197
1.23164
3.54682
5.30039
5.25708
5.21267
5.1078
4.97774
4.84058
1.2381
1.25596
1.38636
4.3591
5.28366
5.2194
5.10928
5.00799
4.88686
4.74979
1.3018
1.32448
2.0864
4.87879
5.11839
5.06111
4.99736
4.90189
4.79615
4.6652
1.38396
1.43089
3.14874
5.06056
5.06423
4.98663
4.89923
4.82306
4.70352
4.57792
1.50533
1.7728
4.20437
5.05186
4.97131
4.907
4.8187
4.72258
4.61063
4.48553
1.75714
2.80999
4.80309
4.95626
4.89151
4.81607
4.73369
4.64092
4.53161
4.4021
2.27116
3.87587
4.88291
4.8296
4.7891
4.73377
4.66523
4.57546
4.46992
4.34474
3.07579
4.5174
4.82415
4.75525
4.70343
4.6506
4.59142
4.51145
4.4107
4.28497
)
;

boundaryField
{
    inlet
    {
        type            fixedValue;
        value           uniform 1;
    }
    outlet
    {
        type            zeroGradient;
    }
    triangle
    {
        type            zeroGradient;
    }
    top
    {
        type            symmetryPlane;
    }
    bottom
    {
        type            symmetryPlane;
    }
    defaultFaces
    {
        type            empty;
    }
}


// ************************************************************************* //
