/*--------------------------------*- C++ -*----------------------------------*\
  =========                 |
  \\      /  F ield         | OpenFOAM: The Open Source CFD Toolbox
   \\    /   O peration     | Website:  https://openfoam.org
    \\  /    A nd           | Version:  8
     \\/     M anipulation  |
\*---------------------------------------------------------------------------*/
FoamFile
{
    version     2.0;
    format      ascii;
    class       volScalarField;
    location    "4.1";
    object      T;
}
// * * * * * * * * * * * * * * * * * * * * * * * * * * * * * * * * * * * * * //

dimensions      [0 0 0 1 0 0 0];

internalField   nonuniform List<scalar> 
2600
(
1.60457
1.5523
1.58759
1.57855
1.4978
1.51435
1.51476
1.55174
1.57809
1.4921
1.62475
1.62617
1.65701
1.65017
1.54755
1.53302
1.52778
1.58118
1.62548
1.52575
1.63405
1.65785
1.70656
1.71824
1.60385
1.55565
1.54405
1.61334
1.6693
1.55948
1.63919
1.6578
1.72882
1.77605
1.66762
1.58401
1.5638
1.64603
1.7015
1.58834
1.64524
1.65286
1.73595
1.8128
1.73275
1.61804
1.58631
1.67711
1.7219
1.61143
1.65878
1.6495
1.73761
1.82521
1.77416
1.65614
1.61092
1.70458
1.72998
1.62761
1.67003
1.64887
1.73288
1.81602
1.79313
1.69698
1.64004
1.7291
1.73427
1.63656
1.68049
1.64809
1.72204
1.79928
1.80432
1.74186
1.67554
1.74659
1.73203
1.64071
1.6851
1.64599
1.70147
1.7857
1.80765
1.78582
1.71362
1.75775
1.72607
1.63889
1.68785
1.64043
1.68023
1.77309
1.80744
1.82621
1.75129
1.75878
1.70518
1.63516
1.69056
1.63648
1.66025
1.75504
1.81461
1.85208
1.78319
1.75009
1.6731
1.62539
1.6916
1.63514
1.63709
1.7264
1.81441
1.86967
1.8057
1.73579
1.63415
1.61358
1.69512
1.63256
1.60244
1.68114
1.80836
1.88092
1.82155
1.71822
1.59913
1.59507
1.69736
1.62376
1.55951
1.62538
1.78755
1.89
1.82934
1.70158
1.56926
1.57331
1.69832
1.6087
1.50925
1.56502
1.74455
1.88626
1.83807
1.68864
1.54462
1.54913
1.69417
1.59044
1.45809
1.51649
1.69044
1.87612
1.83842
1.67446
1.52318
1.52415
1.687
1.56844
1.41722
1.47494
1.63225
1.84749
1.82938
1.65387
1.50466
1.5001
1.67981
1.55394
1.38301
1.4431
1.58288
1.80133
1.79779
1.62176
1.48914
1.47712
1.66983
1.54155
1.35586
1.41501
1.54707
1.7414
1.73908
1.58062
1.4755
1.45677
1.64244
1.518
1.33168
1.39071
1.52312
1.68056
1.6676
1.5404
1.46325
1.43981
1.60427
1.46942
1.3066
1.36605
1.50425
1.62176
1.6011
1.50678
1.45245
1.42563
1.55703
1.42728
1.28588
1.34046
1.48662
1.57428
1.54804
1.48054
1.44219
1.41445
1.55041
1.39695
1.27168
1.31941
1.47029
1.54136
1.51052
1.46032
1.43318
1.40649
1.55088
1.38753
1.26533
1.30337
1.45162
1.52028
1.49113
1.44577
1.42487
1.40019
1.55565
1.38986
1.26354
1.29286
1.42886
1.50594
1.48087
1.4367
1.41763
1.39447
1.56193
1.39743
1.26645
1.28758
1.40415
1.49527
1.47382
1.43234
1.41173
1.38885
1.56856
1.40967
1.27575
1.28441
1.37937
1.48665
1.46976
1.4315
1.40811
1.38334
1.57446
1.42171
1.29256
1.28244
1.35926
1.47576
1.46797
1.43356
1.4068
1.3779
1.57903
1.43481
1.30984
1.28252
1.34399
1.4598
1.46976
1.43898
1.40719
1.37265
1.5827
1.44692
1.32658
1.28901
1.33259
1.43953
1.47584
1.44721
1.40935
1.36791
1.5857
1.45908
1.34545
1.29701
1.32613
1.41998
1.48178
1.45575
1.41252
1.36362
1.58847
1.47119
1.36498
1.30618
1.32389
1.4031
1.48384
1.46248
1.41689
1.36073
1.59151
1.48301
1.38462
1.31582
1.32443
1.38675
1.48173
1.46655
1.42176
1.35986
1.59497
1.49491
1.40206
1.32759
1.32849
1.37035
1.47247
1.46656
1.42755
1.36089
1.59892
1.50597
1.41803
1.34318
1.32958
1.35544
1.45518
1.46758
1.43399
1.36348
1.60308
1.5162
1.43243
1.35917
1.32895
1.34479
1.43219
1.46952
1.43999
1.3669
1.607
1.52532
1.44597
1.37427
1.32838
1.33868
1.40914
1.47052
1.44392
1.3696
1.61039
1.53356
1.45843
1.38739
1.33167
1.33518
1.3883
1.46976
1.44606
1.37181
1.61309
1.54094
1.46973
1.39964
1.33899
1.33362
1.37094
1.46768
1.44645
1.37363
1.61473
1.54729
1.47975
1.41077
1.3479
1.33092
1.35634
1.4632
1.4455
1.37633
2.12046
2.09134
2.06775
2.04366
2.02044
1.99791
1.9739
1.94622
1.90557
1.87243
2.06406
2.036
2.02026
2.00325
1.9866
1.96798
1.94605
1.91801
1.87628
1.81705
2.02249
2.00062
1.98853
1.97328
1.95845
1.94157
1.92115
1.89439
1.85447
1.78843
1.97967
1.96241
1.95159
1.93678
1.92287
1.90667
1.88757
1.86213
1.82455
1.75712
1.94267
1.92929
1.9201
1.90648
1.89351
1.87748
1.8585
1.83287
1.79652
1.73164
1.91203
1.9014
1.89344
1.88134
1.86954
1.8539
1.83521
1.80941
1.77381
1.71328
1.88828
1.8798
1.87267
1.86171
1.85037
1.83481
1.81662
1.79118
1.75653
1.7007
1.86881
1.86211
1.85536
1.84528
1.83449
1.81938
1.80141
1.77633
1.74284
1.69151
1.85162
1.84672
1.84017
1.83082
1.82049
1.8058
1.78843
1.76391
1.7317
1.68451
1.83472
1.83183
1.82547
1.81665
1.80663
1.79257
1.77593
1.75255
1.72189
1.67857
1.81718
1.81678
1.81009
1.802
1.7925
1.77925
1.7633
1.74145
1.71284
1.67334
1.79812
1.80162
1.7937
1.78652
1.77765
1.76526
1.75043
1.73031
1.70404
1.66846
1.77668
1.78482
1.77648
1.77017
1.76201
1.75101
1.73765
1.71954
1.69573
1.66411
1.75255
1.76613
1.75839
1.75345
1.74636
1.73696
1.72514
1.70918
1.68807
1.66045
1.72638
1.74636
1.73971
1.73646
1.73083
1.72323
1.71322
1.69965
1.68139
1.65764
1.69857
1.72629
1.72121
1.71943
1.71562
1.71019
1.70233
1.69135
1.67596
1.65572
1.66859
1.7063
1.70288
1.70296
1.70112
1.69795
1.69255
1.68424
1.67162
1.6544
1.63488
1.68629
1.6851
1.68715
1.68737
1.68681
1.68407
1.67823
1.66799
1.65331
1.59421
1.6631
1.6679
1.67321
1.67604
1.6775
1.67644
1.67269
1.66459
1.6521
1.54004
1.63468
1.65631
1.6623
1.66633
1.66943
1.66938
1.66706
1.66079
1.65043
1.00065
1.00202
1.00353
1.00522
1.00709
1.00917
1.01167
1.01365
1.01761
1.69946
1.00065
1.00202
1.00353
1.00522
1.00709
1.00917
1.01166
1.01371
1.01745
1.68813
1.00065
1.00202
1.00353
1.00522
1.00709
1.00917
1.01164
1.0138
1.01729
1.66548
1.00065
1.00202
1.00353
1.00522
1.00709
1.00916
1.01163
1.01385
1.01756
1.63572
1.00065
1.00202
1.00353
1.00522
1.00709
1.00916
1.01162
1.01388
1.01786
1.60561
1.00065
1.00202
1.00353
1.00522
1.00709
1.00916
1.01163
1.01391
1.01791
1.57798
1.00065
1.00202
1.00353
1.00522
1.00709
1.00916
1.01163
1.01394
1.01782
1.55368
1.00065
1.00202
1.00353
1.00522
1.00709
1.00915
1.01164
1.01398
1.01737
1.53163
1.00065
1.00202
1.00354
1.00522
1.00709
1.00915
1.01164
1.01402
1.01695
1.51053
1.00065
1.00202
1.00354
1.00522
1.00709
1.00916
1.01162
1.01407
1.01659
1.48946
1.00065
1.00202
1.00354
1.00522
1.00709
1.00916
1.0116
1.01413
1.01637
1.46781
1.00065
1.00202
1.00354
1.00522
1.00709
1.00917
1.01157
1.01417
1.01629
1.44525
1.00065
1.00202
1.00354
1.00522
1.00709
1.00917
1.01155
1.01421
1.01626
1.42171
1.00065
1.00202
1.00354
1.00522
1.00709
1.00917
1.01153
1.01424
1.01628
1.397
1.00065
1.00202
1.00354
1.00522
1.00709
1.00917
1.01152
1.01427
1.0163
1.37088
1.00065
1.00202
1.00354
1.00522
1.00709
1.00917
1.01152
1.01429
1.01632
1.34293
1.00065
1.00202
1.00354
1.00522
1.0071
1.00917
1.01152
1.01431
1.01634
1.31287
1.00065
1.00202
1.00354
1.00522
1.0071
1.00917
1.01152
1.01433
1.01636
1.28003
1.00065
1.00202
1.00354
1.00522
1.0071
1.00917
1.01152
1.01434
1.01638
1.24364
1.00065
1.00202
1.00354
1.00522
1.0071
1.00917
1.01152
1.01435
1.0164
1.20674
1.00065
1.00202
1.00354
1.00522
1.0071
1.00917
1.01152
1.01435
1.0164
1.20644
1.00065
1.00202
1.00354
1.00522
1.0071
1.00917
1.01152
1.01434
1.01638
1.24329
1.00065
1.00202
1.00354
1.00522
1.0071
1.00917
1.01152
1.01433
1.01636
1.2797
1.00065
1.00202
1.00354
1.00522
1.0071
1.00917
1.01152
1.01431
1.01634
1.31259
1.00065
1.00202
1.00354
1.00522
1.00709
1.00917
1.01152
1.01429
1.01632
1.3427
1.00065
1.00202
1.00354
1.00522
1.00709
1.00917
1.01152
1.01427
1.0163
1.3707
1.00065
1.00202
1.00354
1.00522
1.00709
1.00917
1.01153
1.01424
1.01628
1.39687
1.00065
1.00202
1.00354
1.00522
1.00709
1.00917
1.01155
1.01421
1.01626
1.42161
1.00065
1.00202
1.00354
1.00522
1.00709
1.00917
1.01157
1.01417
1.01629
1.44518
1.00065
1.00202
1.00354
1.00522
1.00709
1.00916
1.0116
1.01413
1.01637
1.46777
1.00065
1.00202
1.00354
1.00522
1.00709
1.00916
1.01162
1.01407
1.01659
1.48944
1.00065
1.00202
1.00354
1.00522
1.00709
1.00915
1.01164
1.01402
1.01695
1.51051
1.00065
1.00202
1.00353
1.00522
1.00709
1.00915
1.01164
1.01398
1.01737
1.53163
1.00065
1.00202
1.00353
1.00522
1.00709
1.00916
1.01163
1.01394
1.01782
1.55369
1.00065
1.00202
1.00353
1.00522
1.00709
1.00916
1.01163
1.01391
1.01791
1.57799
1.00065
1.00202
1.00353
1.00522
1.00709
1.00916
1.01162
1.01388
1.01786
1.60562
1.00065
1.00202
1.00353
1.00522
1.00709
1.00916
1.01163
1.01385
1.01756
1.63572
1.00065
1.00202
1.00353
1.00522
1.00709
1.00917
1.01164
1.0138
1.01729
1.66548
1.00065
1.00202
1.00353
1.00522
1.00709
1.00917
1.01166
1.01371
1.01745
1.68812
1.00065
1.00202
1.00353
1.00522
1.00709
1.00917
1.01167
1.01365
1.0176
1.69946
1.53952
1.63439
1.65632
1.66231
1.66642
1.66957
1.6696
1.66737
1.66128
1.65127
1.59386
1.66285
1.6679
1.67325
1.67614
1.67762
1.67665
1.67301
1.66512
1.653
1.63457
1.68617
1.6851
1.68716
1.68745
1.68692
1.68428
1.67857
1.66858
1.65426
1.66835
1.7062
1.7029
1.70299
1.7012
1.69808
1.69278
1.68461
1.67226
1.65539
1.69842
1.72623
1.72124
1.71949
1.71573
1.71035
1.7026
1.69175
1.67666
1.65672
1.72633
1.74635
1.73978
1.73656
1.73098
1.72341
1.71355
1.7001
1.68215
1.65865
1.75258
1.76617
1.7585
1.75359
1.74655
1.73719
1.72554
1.70968
1.68886
1.66143
1.77678
1.7849
1.77661
1.77035
1.76225
1.75129
1.73811
1.72006
1.69654
1.665
1.79826
1.80175
1.79386
1.78674
1.77793
1.7656
1.75095
1.73084
1.70484
1.6692
1.81733
1.81697
1.81028
1.80225
1.79282
1.77964
1.76385
1.74197
1.71359
1.67385
1.8349
1.83205
1.82571
1.81694
1.80698
1.79298
1.77649
1.75305
1.72257
1.67881
1.85183
1.84697
1.84042
1.83112
1.82086
1.80624
1.78898
1.76437
1.73225
1.68444
1.86904
1.86238
1.85563
1.8456
1.83487
1.81982
1.80195
1.77674
1.74325
1.6911
1.8885
1.88007
1.87296
1.86206
1.85077
1.83527
1.81717
1.79157
1.7568
1.6998
1.91225
1.90167
1.89374
1.88171
1.86998
1.85439
1.83574
1.80977
1.77395
1.71173
1.94286
1.92954
1.92039
1.90684
1.89395
1.87798
1.85903
1.83324
1.79655
1.72929
1.97981
1.96261
1.95184
1.93709
1.92327
1.90716
1.88811
1.86251
1.82449
1.75433
2.02259
2.00079
1.98876
1.97358
1.95883
1.94206
1.92168
1.89476
1.85417
1.78652
2.06412
2.03613
2.02044
2.0035
1.98693
1.96841
1.94657
1.91836
1.87605
1.8153
2.12045
2.09139
2.06784
2.04382
2.02067
1.99824
1.97433
1.94656
1.9054
1.87113
1.61679
1.55193
1.48871
1.42213
1.34459
1.31962
1.34093
1.44543
1.43704
1.36787
1.61533
1.54561
1.47962
1.41211
1.33275
1.31857
1.35029
1.45039
1.43666
1.36481
1.6127
1.53823
1.4693
1.40078
1.32093
1.31659
1.3626
1.45388
1.43377
1.36125
1.60928
1.52987
1.45793
1.38799
1.3109
1.31281
1.37884
1.45722
1.42898
1.35613
1.60526
1.52051
1.44548
1.37365
1.30318
1.30846
1.40055
1.45951
1.42401
1.35172
1.60088
1.51002
1.43241
1.35808
1.29872
1.30582
1.42697
1.46004
1.41918
1.34796
1.59656
1.49867
1.4184
1.34263
1.29594
1.305
1.45416
1.45947
1.415
1.34658
1.59261
1.48646
1.40464
1.32851
1.2943
1.31357
1.47285
1.45982
1.41112
1.34759
1.58897
1.47419
1.39079
1.31768
1.29597
1.33043
1.48118
1.45775
1.4087
1.35063
1.58551
1.46228
1.37883
1.31285
1.29963
1.34969
1.48325
1.45401
1.40769
1.35557
1.58199
1.45081
1.37006
1.31427
1.30781
1.36919
1.48281
1.45083
1.40805
1.36146
1.57803
1.44122
1.36507
1.31856
1.31523
1.38846
1.48208
1.44973
1.41026
1.36763
1.57352
1.43325
1.36381
1.32333
1.32242
1.40996
1.48259
1.45072
1.41429
1.37394
1.56902
1.4265
1.36649
1.32804
1.33019
1.43377
1.48356
1.45351
1.41961
1.38014
1.56481
1.42013
1.37446
1.33529
1.34072
1.45712
1.48488
1.45779
1.42609
1.38628
1.56253
1.41215
1.38921
1.34966
1.36038
1.47443
1.48596
1.46331
1.43413
1.39304
1.56157
1.40722
1.40616
1.37277
1.38617
1.4843
1.4871
1.4706
1.4455
1.40148
1.56667
1.4095
1.42726
1.40442
1.41425
1.48758
1.49008
1.48281
1.46359
1.41379
1.57656
1.42504
1.4615
1.44806
1.44069
1.49183
1.49534
1.50164
1.49186
1.43254
1.59598
1.46645
1.51674
1.50883
1.46312
1.50013
1.50386
1.52463
1.53137
1.45984
1.71305
1.65239
1.58083
1.52371
1.47781
1.43123
1.38139
1.32655
1.24918
1.18766
1.71217
1.6498
1.57979
1.52253
1.47704
1.43068
1.38076
1.325
1.24781
1.18916
1.70983
1.64536
1.57733
1.52108
1.47648
1.43029
1.37986
1.32247
1.2459
1.19223
1.70551
1.63945
1.57301
1.51836
1.47569
1.42994
1.3789
1.31918
1.24458
1.19759
1.69908
1.63288
1.56679
1.51602
1.47507
1.42941
1.37735
1.31467
1.24345
1.20561
1.69045
1.62501
1.55981
1.51403
1.47433
1.42844
1.37498
1.30922
1.24413
1.21814
1.67959
1.61509
1.55416
1.51266
1.47321
1.42661
1.37138
1.30299
1.24633
1.23672
1.66814
1.60362
1.54963
1.51145
1.47141
1.42362
1.36618
1.296
1.24956
1.26118
1.6582
1.59229
1.54629
1.51019
1.46898
1.41941
1.3594
1.28832
1.25653
1.28645
1.646
1.58422
1.54403
1.50892
1.46599
1.41397
1.35144
1.2805
1.26632
1.31172
1.63143
1.57918
1.54294
1.50755
1.46228
1.40728
1.34281
1.27581
1.27793
1.33285
1.61917
1.57718
1.54296
1.50558
1.45757
1.39937
1.33373
1.27845
1.28856
1.34889
1.61307
1.57659
1.543
1.5027
1.45145
1.39035
1.32371
1.28473
1.30295
1.35946
1.61035
1.57674
1.54239
1.49842
1.44361
1.38039
1.31433
1.29215
1.33014
1.36774
1.6095
1.57688
1.54047
1.49275
1.43466
1.36951
1.30638
1.30145
1.36823
1.37531
1.60898
1.57602
1.53685
1.48575
1.42404
1.35786
1.3065
1.31349
1.40008
1.38192
1.60935
1.57387
1.53105
1.477
1.41192
1.34501
1.3091
1.33085
1.41728
1.38405
1.61202
1.57057
1.52274
1.4657
1.39825
1.33213
1.31367
1.36016
1.4262
1.38116
1.61541
1.56596
1.51243
1.45234
1.38102
1.3226
1.32039
1.39767
1.43155
1.37714
1.61707
1.55898
1.49986
1.43602
1.36122
1.32049
1.33082
1.43109
1.43427
1.37236
1.6152
1.55463
1.49242
1.42689
1.36259
1.32791
1.34034
1.44353
1.44284
1.38274
1.61384
1.56244
1.50659
1.4458
1.38169
1.32805
1.32465
1.40026
1.43868
1.38778
1.61072
1.56805
1.51832
1.46065
1.39961
1.33577
1.31502
1.35724
1.43518
1.39114
1.60844
1.5721
1.52758
1.47307
1.41422
1.34808
1.3077
1.32509
1.42258
1.38901
1.60846
1.57469
1.53426
1.48293
1.42629
1.36172
1.30292
1.30586
1.39145
1.38107
1.6092
1.57607
1.53883
1.49079
1.43624
1.37364
1.30548
1.29086
1.3442
1.37224
1.6103
1.57647
1.5416
1.49709
1.44466
1.38448
1.31371
1.28114
1.30563
1.36151
1.61327
1.57661
1.5428
1.50197
1.45173
1.39377
1.32477
1.27386
1.2854
1.34881
1.61967
1.57748
1.54309
1.50528
1.45756
1.40196
1.3353
1.27034
1.27505
1.33313
1.63201
1.57978
1.54334
1.50756
1.46224
1.40905
1.34469
1.27219
1.26839
1.31503
1.64658
1.58497
1.54459
1.50926
1.4661
1.41494
1.35338
1.27979
1.26144
1.29531
1.65873
1.59297
1.5469
1.51077
1.46936
1.42008
1.36091
1.2892
1.25425
1.2759
1.66854
1.60421
1.55024
1.51213
1.47202
1.42426
1.36725
1.29805
1.24964
1.2564
1.67985
1.61558
1.55472
1.51336
1.47401
1.42751
1.37231
1.30493
1.24803
1.23693
1.69058
1.62531
1.56021
1.51468
1.47524
1.42963
1.37596
1.31053
1.24671
1.22145
1.69908
1.63292
1.56699
1.51657
1.47599
1.43079
1.37847
1.31518
1.2453
1.20995
1.70536
1.63933
1.57301
1.5188
1.47655
1.43135
1.38018
1.31907
1.24449
1.20225
1.70956
1.64508
1.57717
1.52128
1.47723
1.4316
1.38125
1.32205
1.2442
1.19676
1.71182
1.64937
1.57953
1.52266
1.47768
1.43183
1.3822
1.32458
1.24454
1.19377
1.71264
1.65187
1.58052
1.52371
1.4784
1.43225
1.38284
1.32623
1.24497
1.19118
1.42503
1.59895
1.65175
1.65057
1.65383
1.65753
1.65945
1.65826
1.6542
1.64627
1.28511
1.51514
1.6378
1.63765
1.64112
1.64432
1.6471
1.64681
1.6445
1.63902
1.18218
1.37096
1.61768
1.64259
1.63782
1.63575
1.63591
1.63593
1.63461
1.63079
1.12687
1.1845
1.5586
1.64842
1.64063
1.63719
1.63297
1.63028
1.62774
1.62504
1.09892
1.10956
1.44752
1.66525
1.65891
1.64632
1.63655
1.63205
1.62577
1.62175
1.07934
1.08466
1.26573
1.66489
1.673
1.66407
1.65162
1.63815
1.62871
1.62095
1.0636
1.06798
1.10052
1.63475
1.70424
1.69289
1.6748
1.65666
1.63885
1.62432
1.05296
1.05692
1.06178
1.56019
1.73521
1.71867
1.70186
1.68113
1.65831
1.63574
1.04579
1.04918
1.05178
1.45864
1.75418
1.73971
1.71899
1.70156
1.67827
1.65499
1.04083
1.04332
1.04545
1.36879
1.75455
1.75298
1.73652
1.71593
1.69532
1.67215
1.03716
1.03918
1.04084
1.29624
1.74137
1.75874
1.74814
1.72995
1.71075
1.68634
1.03429
1.036
1.03742
1.22908
1.719
1.76495
1.75525
1.74054
1.72237
1.69992
1.03208
1.0335
1.03471
1.1675
1.69225
1.76939
1.75976
1.74749
1.73053
1.71108
1.03038
1.0316
1.03264
1.10374
1.6694
1.77426
1.76361
1.75196
1.73591
1.71938
1.02905
1.03015
1.03108
1.05096
1.64701
1.77871
1.76734
1.75583
1.74028
1.72559
1.02805
1.02903
1.02991
1.03571
1.62342
1.77911
1.76946
1.75892
1.745
1.73111
1.02732
1.02821
1.02906
1.03162
1.60089
1.77778
1.76951
1.76085
1.74914
1.73626
1.02682
1.02765
1.02847
1.03013
1.58093
1.77607
1.76851
1.76215
1.75222
1.74042
1.0265
1.02729
1.0281
1.02945
1.56561
1.77452
1.76738
1.76279
1.75425
1.74291
1.02633
1.02707
1.02787
1.02913
1.55746
1.77258
1.76637
1.76294
1.75524
1.74412
1.00065
1.00202
1.00354
1.00521
1.0071
1.00917
1.01152
1.01436
1.01642
1.16446
1.00065
1.00202
1.00354
1.00521
1.0071
1.00918
1.01151
1.01438
1.01646
1.12233
1.00065
1.00202
1.00354
1.00521
1.0071
1.00918
1.01151
1.01437
1.01648
1.09438
1.00065
1.00202
1.00354
1.00521
1.0071
1.00918
1.0115
1.01437
1.0165
1.07688
1.00065
1.00202
1.00354
1.00521
1.0071
1.00918
1.0115
1.01437
1.01652
1.06317
1.00065
1.00202
1.00354
1.00522
1.0071
1.00918
1.01149
1.01437
1.01654
1.05146
1.00065
1.00202
1.00354
1.00522
1.0071
1.00919
1.01149
1.01437
1.01656
1.04316
1.00065
1.00202
1.00354
1.00522
1.00709
1.00919
1.01149
1.01437
1.01659
1.03784
1.00065
1.00202
1.00354
1.00522
1.00709
1.00919
1.01149
1.01436
1.01661
1.0341
1.00065
1.00202
1.00354
1.00522
1.00709
1.00919
1.01149
1.01436
1.01663
1.03127
1.00065
1.00202
1.00354
1.00522
1.00709
1.00919
1.01149
1.01435
1.01665
1.02908
1.00065
1.00202
1.00354
1.00522
1.00709
1.00919
1.01149
1.01435
1.01667
1.0274
1.00065
1.00202
1.00354
1.00522
1.00709
1.0092
1.01148
1.01435
1.01669
1.02609
1.00065
1.00202
1.00354
1.00522
1.00709
1.0092
1.01148
1.01434
1.01672
1.02506
1.00065
1.00202
1.00354
1.00522
1.00709
1.0092
1.01148
1.01435
1.01674
1.02428
1.00065
1.00202
1.00353
1.00522
1.00709
1.0092
1.01148
1.01435
1.01676
1.02368
1.00065
1.00202
1.00353
1.00522
1.00708
1.0092
1.01148
1.01436
1.01678
1.02325
1.00065
1.00202
1.00353
1.00522
1.00708
1.0092
1.01148
1.01437
1.01679
1.02295
1.00065
1.00202
1.00353
1.00522
1.00708
1.0092
1.01148
1.01437
1.0168
1.02276
1.00065
1.00202
1.00353
1.00522
1.00708
1.0092
1.01148
1.01439
1.0168
1.02265
1.00065
1.00202
1.00353
1.00522
1.00708
1.0092
1.01148
1.01439
1.0168
1.02265
1.00065
1.00202
1.00353
1.00522
1.00708
1.0092
1.01148
1.01437
1.0168
1.02276
1.00065
1.00202
1.00353
1.00522
1.00708
1.0092
1.01148
1.01437
1.01679
1.02295
1.00065
1.00202
1.00353
1.00522
1.00708
1.0092
1.01148
1.01436
1.01678
1.02325
1.00065
1.00202
1.00353
1.00522
1.00709
1.0092
1.01148
1.01435
1.01676
1.02368
1.00065
1.00202
1.00354
1.00522
1.00709
1.0092
1.01148
1.01435
1.01674
1.02428
1.00065
1.00202
1.00354
1.00522
1.00709
1.0092
1.01148
1.01434
1.01672
1.02506
1.00065
1.00202
1.00354
1.00522
1.00709
1.0092
1.01148
1.01435
1.01669
1.02609
1.00065
1.00202
1.00354
1.00522
1.00709
1.00919
1.01149
1.01435
1.01667
1.0274
1.00065
1.00202
1.00354
1.00522
1.00709
1.00919
1.01149
1.01435
1.01665
1.02909
1.00065
1.00202
1.00354
1.00522
1.00709
1.00919
1.01149
1.01436
1.01663
1.03128
1.00065
1.00202
1.00354
1.00522
1.00709
1.00919
1.01149
1.01436
1.01661
1.03413
1.00065
1.00202
1.00354
1.00522
1.00709
1.00919
1.01149
1.01437
1.01659
1.03787
1.00065
1.00202
1.00354
1.00522
1.0071
1.00919
1.01149
1.01437
1.01656
1.04319
1.00065
1.00202
1.00354
1.00522
1.0071
1.00918
1.01149
1.01437
1.01654
1.05148
1.00065
1.00202
1.00354
1.00521
1.0071
1.00918
1.0115
1.01437
1.01652
1.06317
1.00065
1.00202
1.00354
1.00521
1.0071
1.00918
1.0115
1.01437
1.0165
1.07685
1.00065
1.00202
1.00354
1.00521
1.0071
1.00918
1.01151
1.01437
1.01648
1.09432
1.00065
1.00202
1.00354
1.00521
1.0071
1.00918
1.01151
1.01438
1.01646
1.12219
1.00065
1.00202
1.00354
1.00521
1.0071
1.00917
1.01152
1.01436
1.01642
1.16423
1.02633
1.02706
1.02787
1.0291
1.5562
1.77267
1.76642
1.76311
1.7555
1.74451
1.0265
1.02728
1.0281
1.02942
1.56458
1.77463
1.76744
1.76295
1.75449
1.74324
1.02681
1.02764
1.02847
1.03009
1.58036
1.77616
1.76856
1.7623
1.75244
1.7407
1.02731
1.0282
1.02905
1.03157
1.60079
1.77786
1.7696
1.76099
1.74932
1.73646
1.02805
1.02903
1.0299
1.03575
1.62375
1.77919
1.76957
1.75905
1.74512
1.7312
1.02905
1.03015
1.03108
1.05172
1.64767
1.77875
1.76743
1.75589
1.74031
1.72559
1.03038
1.0316
1.03264
1.10616
1.67014
1.77426
1.76365
1.75199
1.73591
1.71931
1.03209
1.0335
1.03472
1.17013
1.69339
1.76951
1.75984
1.74748
1.73046
1.71093
1.0343
1.03601
1.03743
1.23187
1.72016
1.76504
1.75529
1.74045
1.72221
1.69973
1.03717
1.0392
1.04087
1.29889
1.74212
1.75882
1.74812
1.72978
1.71052
1.6861
1.04085
1.04335
1.04549
1.37092
1.75488
1.75305
1.73638
1.71576
1.6951
1.67174
1.04583
1.04923
1.05184
1.45997
1.75418
1.73956
1.71881
1.70137
1.67796
1.6545
1.05301
1.05698
1.06183
1.56045
1.73492
1.71841
1.70159
1.68081
1.65799
1.6354
1.06365
1.06804
1.10031
1.63424
1.7039
1.69254
1.67447
1.65638
1.63868
1.62422
1.07939
1.08472
1.26446
1.6642
1.67258
1.66367
1.65135
1.63804
1.62875
1.62106
1.09894
1.10954
1.4461
1.6646
1.6584
1.64603
1.63647
1.63214
1.62599
1.62202
1.1268
1.18408
1.55754
1.64797
1.64035
1.63712
1.63309
1.63055
1.62807
1.62542
1.18193
1.37003
1.61693
1.64232
1.63775
1.63588
1.63609
1.63628
1.63498
1.63126
1.28463
1.51477
1.63747
1.63749
1.64106
1.64441
1.64738
1.64715
1.64493
1.63961
1.42443
1.59881
1.6516
1.65049
1.65389
1.65767
1.65975
1.65858
1.65466
1.64697
)
;

boundaryField
{
    inlet
    {
        type            fixedValue;
        value           uniform 1;
    }
    outlet
    {
        type            inletOutlet;
        inletValue      uniform 1;
        value           nonuniform List<scalar> 
100
(
1.38249
1.38756
1.39086
1.38869
1.38074
1.37199
1.36137
1.34877
1.33318
1.31513
1.29539
1.27593
1.25641
1.23691
1.22144
1.20996
1.20226
1.19677
1.19378
1.19119
1.42574
1.41458
1.40663
1.40031
1.39455
1.3889
1.3834
1.37797
1.37272
1.36793
1.36356
1.3606
1.3597
1.36069
1.36326
1.36664
1.36928
1.37145
1.37324
1.37596
1.49152
1.52508
1.55875
1.58761
1.6107
1.6269
1.63609
1.64041
1.63862
1.6351
1.62546
1.61383
1.59541
1.57359
1.54942
1.52442
1.50041
1.47741
1.45698
1.43994
1.36753
1.36451
1.36099
1.35589
1.35148
1.34776
1.34637
1.34743
1.35052
1.35549
1.36144
1.36765
1.37394
1.38011
1.38623
1.39297
1.40137
1.41362
1.43227
1.45941
1.18771
1.1892
1.19226
1.19759
1.20557
1.21803
1.23653
1.261
1.28636
1.31174
1.33297
1.34901
1.35949
1.36767
1.37515
1.38176
1.38392
1.38099
1.37688
1.37204
)
;
    }
    triangle
    {
        type            zeroGradient;
    }
    top
    {
        type            symmetryPlane;
    }
    bottom
    {
        type            symmetryPlane;
    }
    defaultFaces
    {
        type            empty;
    }
}


// ************************************************************************* //
