/*--------------------------------*- C++ -*----------------------------------*\
  =========                 |
  \\      /  F ield         | OpenFOAM: The Open Source CFD Toolbox
   \\    /   O peration     | Website:  https://openfoam.org
    \\  /    A nd           | Version:  8
     \\/     M anipulation  |
\*---------------------------------------------------------------------------*/
FoamFile
{
    version     2.0;
    format      ascii;
    class       volVectorField;
    location    "4.1";
    object      U;
}
// * * * * * * * * * * * * * * * * * * * * * * * * * * * * * * * * * * * * * //

dimensions      [0 1 -1 0 0 0 0];

internalField   nonuniform List<vector> 
2600
(
(0.865041 0.106157 0)
(1.38869 0.224631 0)
(1.44199 0.146463 0)
(1.55145 0.065785 0)
(1.72455 0.185373 0)
(1.55225 0.236443 0)
(1.30607 0.164009 0)
(1.24547 0.0482165 0)
(1.31869 -0.0279832 0)
(1.48272 -0.00521576 0)
(0.309092 -0.107068 0)
(0.964401 0.174777 0)
(1.14348 0.135838 0)
(1.33045 0.0347767 0)
(1.66832 0.132257 0)
(1.53057 0.237211 0)
(1.28956 0.168866 0)
(1.20302 0.0466329 0)
(1.25388 -0.0295831 0)
(1.43966 -0.0118659 0)
(0.0286289 -0.0906991 0)
(0.487488 0.155924 0)
(0.725339 0.1128 0)
(0.983224 -0.00806914 0)
(1.54808 0.0888832 0)
(1.50198 0.237444 0)
(1.2702 0.174974 0)
(1.15015 0.0507144 0)
(1.167 -0.0300607 0)
(1.37636 -0.0198869 0)
(-0.102106 -0.112308 0)
(0.129058 0.111489 0)
(0.292344 0.0940999 0)
(0.572468 -0.0532159 0)
(1.33166 0.0386176 0)
(1.45806 0.234381 0)
(1.24477 0.183374 0)
(1.089 0.0585037 0)
(1.07131 -0.0347028 0)
(1.29957 -0.0297941 0)
(-0.179063 -0.0771628 0)
(-0.100944 0.121782 0)
(-0.0705828 0.0808771 0)
(0.186334 -0.109941 0)
(1.02596 -0.0508378 0)
(1.39015 0.217519 0)
(1.20913 0.193956 0)
(1.02298 0.0724653 0)
(0.986957 -0.0302272 0)
(1.22095 -0.0371997 0)
(-0.239953 -0.0536791 0)
(-0.259325 0.136021 0)
(-0.324984 0.0885178 0)
(-0.102569 -0.151484 0)
(0.681314 -0.142882 0)
(1.29276 0.19398 0)
(1.15887 0.208338 0)
(0.954765 0.0857874 0)
(0.928287 -0.0393392 0)
(1.15246 -0.0478908 0)
(-0.270998 -0.00686587 0)
(-0.37135 0.168349 0)
(-0.473698 0.0927928 0)
(-0.267561 -0.195412 0)
(0.367257 -0.23476 0)
(1.16763 0.160194 0)
(1.09157 0.219605 0)
(0.888578 0.10558 0)
(0.897297 -0.0338475 0)
(1.10369 -0.0571105 0)
(-0.293788 0.0400401 0)
(-0.442126 0.195045 0)
(-0.538704 0.105997 0)
(-0.334335 -0.226013 0)
(0.142553 -0.298654 0)
(1.01124 0.134106 0)
(1.0064 0.228943 0)
(0.826504 0.105767 0)
(0.887301 -0.0402357 0)
(1.08042 -0.0599027 0)
(-0.293161 0.0877556 0)
(-0.474339 0.217046 0)
(-0.558791 0.121196 0)
(-0.338015 -0.269021 0)
(0.0262104 -0.349982 0)
(0.821582 0.0840564 0)
(0.905274 0.225626 0)
(0.779878 0.117565 0)
(0.894986 -0.0542574 0)
(1.07674 -0.0659698 0)
(-0.299931 0.131252 0)
(-0.476675 0.233148 0)
(-0.534954 0.127949 0)
(-0.238829 -0.298876 0)
(-0.0104672 -0.382627 0)
(0.596053 0.058165 0)
(0.790816 0.229525 0)
(0.7549 0.109713 0)
(0.939077 -0.0555011 0)
(1.08115 -0.0718891 0)
(-0.299548 0.175033 0)
(-0.459666 0.237605 0)
(-0.405436 0.120031 0)
(-0.00326294 -0.315562 0)
(0.00497515 -0.400986 0)
(0.389256 0.00201198 0)
(0.673125 0.220713 0)
(0.753667 0.0960414 0)
(1.01321 -0.0767351 0)
(1.0963 -0.0671051 0)
(-0.276462 0.213792 0)
(-0.404285 0.235338 0)
(-0.158541 0.102894 0)
(0.322117 -0.340015 0)
(0.13077 -0.384071 0)
(0.264682 -0.0166263 0)
(0.572882 0.211749 0)
(0.787549 0.083421 0)
(1.09842 -0.0799123 0)
(1.12932 -0.0718141 0)
(-0.23989 0.24883 0)
(-0.296889 0.23898 0)
(0.137728 0.0402259 0)
(0.700229 -0.333547 0)
(0.360281 -0.354756 0)
(0.242362 -0.043127 0)
(0.515044 0.18978 0)
(0.863089 0.0597756 0)
(1.17551 -0.0957436 0)
(1.17741 -0.066982 0)
(-0.187197 0.266853 0)
(-0.15452 0.218548 0)
(0.427486 -0.0211231 0)
(1.05511 -0.356693 0)
(0.61836 -0.332684 0)
(0.282396 -0.0489497 0)
(0.506293 0.150667 0)
(0.958712 0.0331327 0)
(1.2423 -0.102213 0)
(1.22917 -0.063141 0)
(-0.127692 0.283857 0)
(0.00705074 0.2079 0)
(0.67412 -0.135221 0)
(1.32932 -0.38251 0)
(0.855488 -0.276587 0)
(0.386093 -0.0280869 0)
(0.54898 0.119218 0)
(1.05686 -0.000139839 0)
(1.29592 -0.110849 0)
(1.27817 -0.0619482 0)
(-0.0633212 0.2777 0)
(0.171869 0.15157 0)
(0.936821 -0.218345 0)
(1.51857 -0.406648 0)
(1.04738 -0.249948 0)
(0.560361 -0.0242123 0)
(0.660117 0.0928493 0)
(1.15909 -0.0317616 0)
(1.33802 -0.11446 0)
(1.32211 -0.0573899 0)
(0.00526396 0.276464 0)
(0.374347 0.0986875 0)
(1.20899 -0.323887 0)
(1.64074 -0.438953 0)
(1.18162 -0.223439 0)
(0.773569 0.00954505 0)
(0.841194 0.0800289 0)
(1.26475 -0.0595984 0)
(1.3704 -0.116944 0)
(1.36039 -0.054598 0)
(0.0650216 0.221853 0)
(0.656399 0.00975958 0)
(1.48064 -0.397725 0)
(1.71124 -0.44319 0)
(1.26544 -0.214512 0)
(0.984985 0.0140326 0)
(1.05382 0.0578376 0)
(1.35899 -0.080247 0)
(1.39515 -0.114583 0)
(1.39232 -0.0504088 0)
(0.237184 0.18617 0)
(1.06525 -0.0700572 0)
(1.69391 -0.464113 0)
(1.73552 -0.450294 0)
(1.31207 -0.209455 0)
(1.15598 0.0298024 0)
(1.24032 0.0490561 0)
(1.42385 -0.091123 0)
(1.41375 -0.113218 0)
(1.41792 -0.0469536 0)
(0.680154 -0.000443105 0)
(1.50988 -0.14395 0)
(1.82678 -0.481249 0)
(1.74 -0.437028 0)
(1.33923 -0.210031 0)
(1.27316 0.0268719 0)
(1.36641 0.0238021 0)
(1.4559 -0.093204 0)
(1.42795 -0.112102 0)
(1.43789 -0.0454072 0)
(1.33883 0.0376363 0)
(1.83949 -0.17382 0)
(1.88643 -0.484655 0)
(1.74486 -0.428755 0)
(1.36106 -0.217037 0)
(1.34274 0.0232646 0)
(1.44527 0.0126153 0)
(1.46842 -0.0840775 0)
(1.44032 -0.107469 0)
(1.45492 -0.0433932 0)
(1.52949 0.192768 0)
(1.97693 -0.177756 0)
(1.90111 -0.46787 0)
(1.75862 -0.433229 0)
(1.38964 -0.227694 0)
(1.38463 0.0152196 0)
(1.4923 -0.00261636 0)
(1.47658 -0.075175 0)
(1.44958 -0.0997575 0)
(1.46961 -0.0402863 0)
(1.57203 0.205368 0)
(1.95634 -0.176715 0)
(1.89282 -0.451265 0)
(1.77965 -0.440135 0)
(1.43102 -0.23414 0)
(1.41342 -0.00518386 0)
(1.51818 -0.0287852 0)
(1.48523 -0.07464 0)
(1.45731 -0.091881 0)
(1.4811 -0.0361891 0)
(1.54204 0.238583 0)
(1.88879 -0.129906 0)
(1.88008 -0.421407 0)
(1.79392 -0.45206 0)
(1.47498 -0.252473 0)
(1.44255 -0.0262471 0)
(1.54157 -0.0339027 0)
(1.49463 -0.0773279 0)
(1.46608 -0.0862438 0)
(1.49105 -0.0328617 0)
(1.50646 0.247519 0)
(1.82979 -0.107238 0)
(1.8653 -0.398574 0)
(1.80888 -0.455681 0)
(1.52716 -0.264324 0)
(1.4704 -0.0496997 0)
(1.55977 -0.0422391 0)
(1.50435 -0.0796853 0)
(1.47616 -0.0819106 0)
(1.50039 -0.0304547 0)
(1.47332 0.252771 0)
(1.77482 -0.0597947 0)
(1.83959 -0.356332 0)
(1.80934 -0.459017 0)
(1.57615 -0.282629 0)
(1.50691 -0.0651052 0)
(1.57876 -0.0500517 0)
(1.51549 -0.0798638 0)
(1.487 -0.0798529 0)
(1.50986 -0.0297878 0)
(1.44331 0.257472 0)
(1.73578 -0.0325717 0)
(1.82026 -0.325823 0)
(1.80109 -0.454862 0)
(1.62418 -0.299648 0)
(1.54602 -0.0824698 0)
(1.59965 -0.0570872 0)
(1.52838 -0.0776824 0)
(1.49831 -0.0767869 0)
(1.51935 -0.028557 0)
(1.41972 0.257587 0)
(1.69371 0.0027158 0)
(1.80966 -0.288524 0)
(1.78396 -0.440867 0)
(1.66938 -0.318784 0)
(1.58327 -0.10304 0)
(1.62113 -0.0613278 0)
(1.54382 -0.0765667 0)
(1.51188 -0.074663 0)
(1.52839 -0.0270686 0)
(1.3999 0.258816 0)
(1.65843 0.0238579 0)
(1.79935 -0.266372 0)
(1.77404 -0.427783 0)
(1.70607 -0.338515 0)
(1.61598 -0.127434 0)
(1.64287 -0.065881 0)
(1.55929 -0.0686827 0)
(1.52515 -0.0689956 0)
(1.53628 -0.0236955 0)
(1.38427 0.25741 0)
(1.6265 0.0391221 0)
(1.77496 -0.225583 0)
(1.77508 -0.415729 0)
(1.72949 -0.356916 0)
(1.64307 -0.156158 0)
(1.66777 -0.0700362 0)
(1.57807 -0.0603798 0)
(1.53919 -0.0654223 0)
(1.54323 -0.0201351 0)
(1.37135 0.255426 0)
(1.59638 0.0518348 0)
(1.75427 -0.211365 0)
(1.77384 -0.402597 0)
(1.74804 -0.367839 0)
(1.6733 -0.186607 0)
(1.69683 -0.0731386 0)
(1.59697 -0.0499418 0)
(1.54962 -0.0577003 0)
(1.54812 -0.0166946 0)
(1.3598 0.25183 0)
(1.57122 0.0565177 0)
(1.7313 -0.185079 0)
(1.7681 -0.387755 0)
(1.76191 -0.37657 0)
(1.70505 -0.217743 0)
(1.72706 -0.0839142 0)
(1.61537 -0.040644 0)
(1.56087 -0.0503974 0)
(1.55213 -0.0131902 0)
(1.34858 0.246922 0)
(1.54797 0.0630918 0)
(1.71085 -0.174749 0)
(1.76091 -0.376434 0)
(1.77327 -0.3799 0)
(1.7372 -0.249486 0)
(1.74933 -0.100906 0)
(1.63088 -0.0343013 0)
(1.57197 -0.0418315 0)
(1.55775 -0.00895646 0)
(1.33675 0.24017 0)
(1.52758 0.065297 0)
(1.68807 -0.155522 0)
(1.75524 -0.359283 0)
(1.77723 -0.382997 0)
(1.75615 -0.279231 0)
(1.75412 -0.115845 0)
(1.64514 -0.034128 0)
(1.58699 -0.0348121 0)
(1.56768 -0.00444496 0)
(1.32416 0.231963 0)
(1.50796 0.0690538 0)
(1.66523 -0.143075 0)
(1.75307 -0.346644 0)
(1.76851 -0.386942 0)
(1.76571 -0.304809 0)
(1.7543 -0.140511 0)
(1.66067 -0.0385025 0)
(1.60617 -0.0295604 0)
(1.58085 0.000600705 0)
(1.31073 0.222751 0)
(1.48867 0.071485 0)
(1.64202 -0.127741 0)
(1.74439 -0.323512 0)
(1.75735 -0.386087 0)
(1.77742 -0.329231 0)
(1.75708 -0.169675 0)
(1.6776 -0.0453591 0)
(1.62721 -0.0254074 0)
(1.59579 0.0061555 0)
(1.29692 0.213651 0)
(1.46905 0.0740442 0)
(1.6202 -0.115837 0)
(1.72962 -0.305032 0)
(1.74316 -0.385031 0)
(1.79295 -0.351157 0)
(1.76119 -0.200772 0)
(1.69653 -0.0538953 0)
(1.64322 -0.0223887 0)
(1.60723 0.0118743 0)
(1.28318 0.205624 0)
(1.44951 0.0759721 0)
(1.59848 -0.103393 0)
(1.70915 -0.283647 0)
(1.73575 -0.378704 0)
(1.79713 -0.364496 0)
(1.76446 -0.230244 0)
(1.71779 -0.06469 0)
(1.65837 -0.0176644 0)
(1.62048 0.0168998 0)
(1.26931 0.198839 0)
(1.43015 0.0775495 0)
(1.57716 -0.0926629 0)
(1.6874 -0.265055 0)
(1.73343 -0.375903 0)
(1.79492 -0.370114 0)
(1.76987 -0.25696 0)
(1.73659 -0.0766782 0)
(1.66632 -0.0137668 0)
(1.62904 0.0216002 0)
(1.25546 0.193248 0)
(1.41107 0.0791935 0)
(1.55532 -0.0817507 0)
(1.66491 -0.246672 0)
(1.7282 -0.362333 0)
(1.78165 -0.373919 0)
(1.77476 -0.279726 0)
(1.74884 -0.0878213 0)
(1.67138 -0.00874863 0)
(1.64017 0.0263311 0)
(0.479131 0.176301 0)
(0.556441 0.214878 0)
(0.598845 0.274306 0)
(0.645219 0.317507 0)
(0.686827 0.352738 0)
(0.730318 0.381813 0)
(0.778771 0.411051 0)
(0.839783 0.441878 0)
(0.923727 0.482893 0)
(1.07739 0.522481 0)
(0.508551 0.212837 0)
(0.564011 0.237765 0)
(0.593401 0.283501 0)
(0.637731 0.319575 0)
(0.680179 0.352896 0)
(0.725998 0.381818 0)
(0.776537 0.411701 0)
(0.83936 0.44334 0)
(0.927205 0.484547 0)
(1.07783 0.5165 0)
(0.575061 0.216522 0)
(0.614527 0.23165 0)
(0.630627 0.262746 0)
(0.665054 0.291669 0)
(0.699324 0.324699 0)
(0.741543 0.355807 0)
(0.790849 0.388185 0)
(0.854463 0.421084 0)
(0.946356 0.460721 0)
(1.10324 0.480643 0)
(0.643419 0.241965 0)
(0.67387 0.256373 0)
(0.682217 0.28117 0)
(0.709581 0.30142 0)
(0.735454 0.327092 0)
(0.772336 0.35176 0)
(0.816932 0.380712 0)
(0.877917 0.409089 0)
(0.968522 0.442643 0)
(1.11772 0.447128 0)
(0.698331 0.249554 0)
(0.722716 0.262745 0)
(0.729569 0.285851 0)
(0.753994 0.305068 0)
(0.774709 0.329966 0)
(0.807843 0.352289 0)
(0.848746 0.376941 0)
(0.906503 0.399286 0)
(0.993589 0.426789 0)
(1.13791 0.423993 0)
(0.738868 0.257333 0)
(0.758169 0.269302 0)
(0.764965 0.290272 0)
(0.787524 0.307449 0)
(0.806802 0.329109 0)
(0.838527 0.347637 0)
(0.877393 0.371974 0)
(0.93389 0.392586 0)
(1.01688 0.412781 0)
(1.15284 0.405815 0)
(0.773536 0.262243 0)
(0.788626 0.272756 0)
(0.795113 0.291148 0)
(0.815312 0.306848 0)
(0.833072 0.327134 0)
(0.863167 0.343973 0)
(0.90046 0.363919 0)
(0.955644 0.381055 0)
(1.03511 0.397124 0)
(1.16056 0.387971 0)
(0.804721 0.268383 0)
(0.816847 0.278116 0)
(0.823589 0.294187 0)
(0.841625 0.308183 0)
(0.858522 0.326077 0)
(0.887193 0.340304 0)
(0.922993 0.357783 0)
(0.975905 0.37126 0)
(1.05033 0.381914 0)
(1.16528 0.372253 0)
(0.83428 0.272508 0)
(0.843169 0.282873 0)
(0.850808 0.297714 0)
(0.867631 0.310495 0)
(0.88448 0.326612 0)
(0.911968 0.338414 0)
(0.946258 0.352724 0)
(0.996752 0.362997 0)
(1.0658 0.369268 0)
(1.17025 0.359288 0)
(0.863727 0.276338 0)
(0.866423 0.287612 0)
(0.876297 0.300628 0)
(0.892671 0.311619 0)
(0.909851 0.325536 0)
(0.936349 0.336287 0)
(0.96926 0.347816 0)
(1.01719 0.356157 0)
(1.08066 0.358228 0)
(1.17534 0.347843 0)
(0.891964 0.281973 0)
(0.887276 0.29306 0)
(0.90097 0.302246 0)
(0.915943 0.313172 0)
(0.933498 0.326229 0)
(0.959425 0.335477 0)
(0.991068 0.343915 0)
(1.03643 0.350128 0)
(1.09493 0.349355 0)
(1.18068 0.338317 0)
(0.917078 0.288094 0)
(0.909671 0.299134 0)
(0.925241 0.30468 0)
(0.937949 0.313595 0)
(0.955117 0.323862 0)
(0.979794 0.331884 0)
(1.01026 0.339624 0)
(1.05312 0.343477 0)
(1.10709 0.340379 0)
(1.1847 0.328568 0)
(0.943317 0.293813 0)
(0.931997 0.3047 0)
(0.948086 0.308858 0)
(0.958806 0.315972 0)
(0.975054 0.323922 0)
(0.997987 0.330813 0)
(1.02691 0.335482 0)
(1.06731 0.337625 0)
(1.11721 0.332636 0)
(1.18727 0.319503 0)
(0.972198 0.303064 0)
(0.953102 0.311524 0)
(0.968214 0.314549 0)
(0.977712 0.31962 0)
(0.992862 0.324133 0)
(1.01392 0.328168 0)
(1.04051 0.330095 0)
(1.07774 0.330134 0)
(1.12372 0.323272 0)
(1.18704 0.308868 0)
(1.00421 0.31734 0)
(0.973649 0.320404 0)
(0.986831 0.321678 0)
(0.994907 0.323536 0)
(1.00842 0.325648 0)
(1.02719 0.327101 0)
(1.05136 0.326038 0)
(1.08555 0.323349 0)
(1.12787 0.314165 0)
(1.18488 0.298012 0)
(1.03923 0.336062 0)
(0.994805 0.331845 0)
(1.00552 0.330238 0)
(1.01026 0.329313 0)
(1.02157 0.327447 0)
(1.03787 0.325229 0)
(1.05928 0.320617 0)
(1.08999 0.314693 0)
(1.12899 0.303421 0)
(1.18036 0.286019 0)
(1.07962 0.357438 0)
(1.0173 0.347798 0)
(1.02377 0.341481 0)
(1.02513 0.336644 0)
(1.03296 0.330718 0)
(1.04615 0.324398 0)
(1.065 0.316209 0)
(1.09235 0.306478 0)
(1.12834 0.293015 0)
(1.17489 0.27458 0)
(1.12998 0.383458 0)
(1.04235 0.368937 0)
(1.04265 0.35742 0)
(1.03956 0.346347 0)
(1.04301 0.334396 0)
(1.0525 0.32253 0)
(1.06839 0.310037 0)
(1.09239 0.296961 0)
(1.12522 0.2818 0)
(1.16805 0.263324 0)
(1.20412 0.417294 0)
(1.07555 0.396848 0)
(1.06705 0.378383 0)
(1.0557 0.359298 0)
(1.05362 0.339662 0)
(1.05848 0.321596 0)
(1.07075 0.304917 0)
(1.09166 0.289166 0)
(1.1218 0.272669 0)
(1.16092 0.253559 0)
(1.33334 0.459938 0)
(1.12607 0.435653 0)
(1.10313 0.407226 0)
(1.08312 0.375463 0)
(1.07159 0.346628 0)
(1.06899 0.321774 0)
(1.07497 0.300303 0)
(1.09086 0.281414 0)
(1.11729 0.263721 0)
(1.15385 0.245233 0)
(2.39446 1.22159e-07 0)
(2.38633 -4.81482e-07 0)
(2.37746 9.95438e-07 0)
(2.36772 -2.37548e-06 0)
(2.35706 4.18478e-06 0)
(2.34546 -1.27799e-05 0)
(2.33202 2.8802e-05 0)
(2.31882 -4.20522e-05 0)
(2.29946 0.00227496 0)
(0.743339 0.0282536 0)
(2.39446 3.49048e-07 0)
(2.38633 -1.36117e-06 0)
(2.37746 2.77269e-06 0)
(2.36772 -6.15318e-06 0)
(2.35705 1.07671e-05 0)
(2.34546 -3.04867e-05 0)
(2.332 8.04374e-05 0)
(2.31912 -8.46028e-05 0)
(2.30427 0.00467603 0)
(0.800334 0.0826899 0)
(2.39446 5.75383e-07 0)
(2.38633 -2.23453e-06 0)
(2.37746 4.56595e-06 0)
(2.36772 -9.9934e-06 0)
(2.35705 1.70136e-05 0)
(2.34546 -4.3476e-05 0)
(2.33199 0.00012207 0)
(2.31943 -0.000185566 0)
(2.31284 0.00517413 0)
(0.886709 0.123063 0)
(2.39446 7.97133e-07 0)
(2.38633 -3.07474e-06 0)
(2.37746 6.30924e-06 0)
(2.36773 -1.35444e-05 0)
(2.35705 2.26269e-05 0)
(2.34547 -5.23508e-05 0)
(2.332 0.000148753 0)
(2.31959 -0.000241427 0)
(2.31985 0.00692889 0)
(0.973357 0.162749 0)
(2.39446 1.01182e-06 0)
(2.38633 -3.87254e-06 0)
(2.37745 8.00898e-06 0)
(2.36773 -1.69542e-05 0)
(2.35705 2.77644e-05 0)
(2.34548 -5.87698e-05 0)
(2.33203 0.000172303 0)
(2.31963 -0.000300119 0)
(2.3228 0.00645845 0)
(1.05301 0.191928 0)
(2.39446 1.21655e-06 0)
(2.38633 -4.61331e-06 0)
(2.37745 9.63645e-06 0)
(2.36773 -2.0206e-05 0)
(2.35705 3.26906e-05 0)
(2.34548 -6.29185e-05 0)
(2.33207 0.000191688 0)
(2.31959 -0.000371812 0)
(2.32337 0.00471681 0)
(1.12104 0.220008 0)
(2.39446 1.40831e-06 0)
(2.38633 -5.28288e-06 0)
(2.37745 1.11543e-05 0)
(2.36773 -2.32392e-05 0)
(2.35704 3.76865e-05 0)
(2.34548 -6.46231e-05 0)
(2.33214 0.000191946 0)
(2.31944 -0.000429767 0)
(2.32253 0.00266663 0)
(1.18201 0.243428 0)
(2.39446 1.58435e-06 0)
(2.38633 -5.87059e-06 0)
(2.37745 1.25317e-05 0)
(2.36773 -2.5974e-05 0)
(2.35705 4.27349e-05 0)
(2.34548 -6.7685e-05 0)
(2.33225 0.000183992 0)
(2.3192 -0.000473136 0)
(2.31984 0.00194807 0)
(1.23822 0.264411 0)
(2.39446 1.74246e-06 0)
(2.38633 -6.37053e-06 0)
(2.37745 1.37472e-05 0)
(2.36773 -2.83394e-05 0)
(2.35705 4.70319e-05 0)
(2.34547 -6.89903e-05 0)
(2.33237 0.000171091 0)
(2.31888 -0.00046689 0)
(2.31614 0.000754474 0)
(1.29256 0.281803 0)
(2.39446 1.88098e-06 0)
(2.38633 -6.78095e-06 0)
(2.37745 1.47958e-05 0)
(2.36774 -3.04029e-05 0)
(2.35705 5.21291e-05 0)
(2.34546 -7.64045e-05 0)
(2.33247 0.000161699 0)
(2.3185 -0.00042175 0)
(2.31251 0.000109859 0)
(1.34671 0.296193 0)
(2.39446 1.99867e-06 0)
(2.38633 -7.10124e-06 0)
(2.37745 1.56566e-05 0)
(2.36774 -3.19516e-05 0)
(2.35706 5.64221e-05 0)
(2.34544 -8.42138e-05 0)
(2.33259 0.000169774 0)
(2.31813 -0.000365875 0)
(2.3098 -0.000388396 0)
(1.40252 0.306447 0)
(2.39446 2.09471e-06 0)
(2.38633 -7.33377e-06 0)
(2.37745 1.63227e-05 0)
(2.36774 -3.29119e-05 0)
(2.35706 5.96946e-05 0)
(2.34542 -8.99967e-05 0)
(2.3327 0.000175105 0)
(2.31782 -0.000286915 0)
(2.30813 -0.000576335 0)
(1.46078 0.31378 0)
(2.39446 2.16859e-06 0)
(2.38633 -7.48435e-06 0)
(2.37745 1.68092e-05 0)
(2.36774 -3.33568e-05 0)
(2.35707 6.19435e-05 0)
(2.3454 -9.30868e-05 0)
(2.33279 0.000183364 0)
(2.31759 -0.000200796 0)
(2.30729 -0.000699522 0)
(1.52209 0.317656 0)
(2.39446 2.21955e-06 0)
(2.38633 -7.5501e-06 0)
(2.37745 1.71069e-05 0)
(2.36774 -3.32644e-05 0)
(2.35707 6.31692e-05 0)
(2.34538 -9.19779e-05 0)
(2.33284 0.000189211 0)
(2.31745 -0.000130848 0)
(2.30692 -0.000711326 0)
(1.58737 0.318723 0)
(2.39446 2.2472e-06 0)
(2.38633 -7.52822e-06 0)
(2.37745 1.72131e-05 0)
(2.36774 -3.26416e-05 0)
(2.35708 6.2399e-05 0)
(2.34537 -8.6547e-05 0)
(2.33282 0.000187959 0)
(2.31739 -8.31587e-05 0)
(2.30675 -0.000726694 0)
(1.65686 0.316828 0)
(2.39446 2.25163e-06 0)
(2.38633 -7.42807e-06 0)
(2.37745 1.71244e-05 0)
(2.36774 -3.15796e-05 0)
(2.35708 6.01799e-05 0)
(2.34537 -7.84638e-05 0)
(2.33276 0.000152332 0)
(2.31735 -2.0027e-05 0)
(2.30663 -0.000704042 0)
(1.73023 0.312315 0)
(2.39446 2.22995e-06 0)
(2.38633 -7.25094e-06 0)
(2.37745 1.68184e-05 0)
(2.36774 -3.00902e-05 0)
(2.35707 5.65647e-05 0)
(2.34537 -6.81193e-05 0)
(2.33272 0.000110054 0)
(2.31735 3.18391e-05 0)
(2.30654 -0.00066966 0)
(1.80693 0.30485 0)
(2.39446 2.18471e-06 0)
(2.38634 -6.99924e-06 0)
(2.37745 1.63041e-05 0)
(2.36774 -2.82635e-05 0)
(2.35707 5.20776e-05 0)
(2.34536 -5.7199e-05 0)
(2.33268 7.04126e-05 0)
(2.31734 7.78407e-05 0)
(2.30646 -0.000637271 0)
(1.8861 0.292914 0)
(2.39446 2.11589e-06 0)
(2.38634 -6.67082e-06 0)
(2.37745 1.55759e-05 0)
(2.36774 -2.61146e-05 0)
(2.35707 4.68635e-05 0)
(2.34536 -4.60822e-05 0)
(2.33265 3.05564e-05 0)
(2.31734 0.000122758 0)
(2.30639 -0.000594977 0)
(1.96761 0.274268 0)
(2.39446 2.02532e-06 0)
(2.38634 -6.27557e-06 0)
(2.37745 1.46508e-05 0)
(2.36774 -2.37066e-05 0)
(2.35706 4.09637e-05 0)
(2.34536 -3.48427e-05 0)
(2.33263 -4.67298e-06 0)
(2.31734 0.000154393 0)
(2.30632 -0.000554637 0)
(2.04204 0.245266 0)
(2.39446 -2.02524e-06 0)
(2.38634 6.2746e-06 0)
(2.37745 -1.46488e-05 0)
(2.36774 2.37039e-05 0)
(2.35706 -4.09779e-05 0)
(2.34536 3.4901e-05 0)
(2.33263 4.50449e-06 0)
(2.31734 -0.000154274 0)
(2.30632 0.000554966 0)
(2.04238 -0.244728 0)
(2.39446 -2.11592e-06 0)
(2.38634 6.67019e-06 0)
(2.37745 -1.55747e-05 0)
(2.36774 2.61125e-05 0)
(2.35707 -4.68755e-05 0)
(2.34536 4.61397e-05 0)
(2.33265 -3.07235e-05 0)
(2.31734 -0.000122717 0)
(2.30639 0.000595427 0)
(1.96827 -0.2738 0)
(2.39446 -2.18484e-06 0)
(2.38634 6.99895e-06 0)
(2.37745 -1.63036e-05 0)
(2.36774 2.82618e-05 0)
(2.35707 -5.20876e-05 0)
(2.34536 5.7253e-05 0)
(2.33268 -7.05422e-05 0)
(2.31734 -7.78873e-05 0)
(2.30646 0.000637971 0)
(1.88694 -0.292637 0)
(2.39446 -2.23018e-06 0)
(2.38633 7.25098e-06 0)
(2.37745 -1.68186e-05 0)
(2.36774 3.00888e-05 0)
(2.35707 -5.65723e-05 0)
(2.34537 6.81728e-05 0)
(2.33272 -0.000110177 0)
(2.31735 -3.20513e-05 0)
(2.30654 0.000670547 0)
(1.80777 -0.304706 0)
(2.39446 -2.25196e-06 0)
(2.38633 7.42845e-06 0)
(2.37745 -1.71254e-05 0)
(2.36774 3.15789e-05 0)
(2.35708 -6.01846e-05 0)
(2.34537 7.8506e-05 0)
(2.33276 -0.000152471 0)
(2.31735 1.96362e-05 0)
(2.30663 0.000705197 0)
(1.73098 -0.31227 0)
(2.39446 -2.24763e-06 0)
(2.38633 7.52894e-06 0)
(2.37745 -1.72148e-05 0)
(2.36774 3.26414e-05 0)
(2.35708 -6.23982e-05 0)
(2.34537 8.65739e-05 0)
(2.33282 -0.000188072 0)
(2.31738 8.27298e-05 0)
(2.30675 0.00072821 0)
(1.65749 -0.316867 0)
(2.39446 -2.22008e-06 0)
(2.38633 7.55117e-06 0)
(2.37745 -1.71092e-05 0)
(2.36774 3.32645e-05 0)
(2.35707 -6.31669e-05 0)
(2.34538 9.19948e-05 0)
(2.33284 -0.000189174 0)
(2.31745 0.000130205 0)
(2.30692 0.000712711 0)
(1.58787 -0.318824 0)
(2.39446 -2.16921e-06 0)
(2.38633 7.48578e-06 0)
(2.37745 -1.68121e-05 0)
(2.36774 3.33573e-05 0)
(2.35707 -6.19355e-05 0)
(2.3454 9.30625e-05 0)
(2.33279 -0.000183314 0)
(2.31759 0.00020035 0)
(2.30729 0.00070003 0)
(1.52247 -0.317806 0)
(2.39446 -2.09542e-06 0)
(2.38633 7.33553e-06 0)
(2.37745 -1.63262e-05 0)
(2.36774 3.29129e-05 0)
(2.35706 -5.96839e-05 0)
(2.34542 8.99431e-05 0)
(2.3327 -0.000174926 0)
(2.31782 0.000286695 0)
(2.30813 0.000575851 0)
(1.46104 -0.313958 0)
(2.39446 -1.99947e-06 0)
(2.38633 7.10334e-06 0)
(2.37745 -1.56608e-05 0)
(2.36774 3.19536e-05 0)
(2.35706 -5.64111e-05 0)
(2.34544 8.41594e-05 0)
(2.33259 -0.000169683 0)
(2.31813 0.000365812 0)
(2.30979 0.000389116 0)
(1.40269 -0.306626 0)
(2.39446 -1.88185e-06 0)
(2.38633 6.78341e-06 0)
(2.37745 -1.48006e-05 0)
(2.36774 3.04064e-05 0)
(2.35705 -5.21195e-05 0)
(2.34546 7.63539e-05 0)
(2.33247 -0.000161675 0)
(2.3185 0.000421762 0)
(2.3125 -0.000110343 0)
(1.3468 -0.296406 0)
(2.39446 -1.74341e-06 0)
(2.38633 6.37334e-06 0)
(2.37745 -1.37527e-05 0)
(2.36773 2.83445e-05 0)
(2.35705 -4.70249e-05 0)
(2.34547 6.89349e-05 0)
(2.33237 -0.000170836 0)
(2.31888 0.000466972 0)
(2.31613 -0.000754414 0)
(1.29259 -0.282033 0)
(2.39446 -1.58535e-06 0)
(2.38633 5.87375e-06 0)
(2.37745 -1.25378e-05 0)
(2.36773 2.59807e-05 0)
(2.35705 -4.27284e-05 0)
(2.34548 6.76166e-05 0)
(2.33225 -0.00018383 0)
(2.3192 0.000473306 0)
(2.31984 -0.00194909 0)
(1.23821 -0.264648 0)
(2.39446 -1.40937e-06 0)
(2.38633 5.28636e-06 0)
(2.37745 -1.1161e-05 0)
(2.36773 2.32474e-05 0)
(2.35704 -3.76821e-05 0)
(2.34548 6.45602e-05 0)
(2.33214 -0.00019178 0)
(2.31944 0.000429939 0)
(2.32253 -0.00266728 0)
(1.18199 -0.243632 0)
(2.39446 -1.21765e-06 0)
(2.38633 4.6171e-06 0)
(2.37745 -9.64368e-06 0)
(2.36773 2.02154e-05 0)
(2.35705 -3.26884e-05 0)
(2.34548 6.28584e-05 0)
(2.33207 -0.000191568 0)
(2.31959 0.000371874 0)
(2.32336 -0.00471468 0)
(1.12101 -0.220177 0)
(2.39446 -1.01295e-06 0)
(2.38633 3.8766e-06 0)
(2.37745 -8.01681e-06 0)
(2.36773 1.69657e-05 0)
(2.35705 -2.77672e-05 0)
(2.34548 5.87229e-05 0)
(2.33203 -0.000172212 0)
(2.31963 0.000300061 0)
(2.32279 -0.00645492 0)
(1.05299 -0.192065 0)
(2.39446 -7.98286e-07 0)
(2.38633 3.07904e-06 0)
(2.37746 -6.31767e-06 0)
(2.36773 1.35588e-05 0)
(2.35705 -2.26355e-05 0)
(2.34547 5.23144e-05 0)
(2.332 -0.000148635 0)
(2.31959 0.000241216 0)
(2.31985 -0.0069223 0)
(0.973368 -0.162835 0)
(2.39446 -5.76542e-07 0)
(2.38633 2.23897e-06 0)
(2.37746 -4.57469e-06 0)
(2.36772 1.00096e-05 0)
(2.35705 -1.70249e-05 0)
(2.34546 4.3449e-05 0)
(2.33199 -0.000121948 0)
(2.31943 0.000185336 0)
(2.31284 -0.00517306 0)
(0.886746 -0.123146 0)
(2.39446 -3.502e-07 0)
(2.38633 1.36564e-06 0)
(2.37746 -2.7814e-06 0)
(2.36772 6.16973e-06 0)
(2.35705 -1.07776e-05 0)
(2.34546 3.04555e-05 0)
(2.332 -8.03209e-05 0)
(2.31912 8.45956e-05 0)
(2.30427 -0.00466389 0)
(0.800395 -0.0827364 0)
(2.39446 -1.23305e-07 0)
(2.38633 4.85909e-07 0)
(2.37746 -1.00386e-06 0)
(2.36772 2.39071e-06 0)
(2.35706 -4.19339e-06 0)
(2.34546 1.27484e-05 0)
(2.33202 -2.86852e-05 0)
(2.31882 4.17124e-05 0)
(2.29946 -0.00227882 0)
(0.74337 -0.0283144 0)
(1.33446 -0.459839 0)
(1.12632 -0.435795 0)
(1.10326 -0.407465 0)
(1.0832 -0.375767 0)
(1.07159 -0.346964 0)
(1.06879 -0.322186 0)
(1.07466 -0.300781 0)
(1.0903 -0.281983 0)
(1.11662 -0.264519 0)
(1.15264 -0.246357 0)
(1.20494 -0.417436 0)
(1.07582 -0.397045 0)
(1.0672 -0.378565 0)
(1.05573 -0.359521 0)
(1.05357 -0.339929 0)
(1.05822 -0.321957 0)
(1.07038 -0.305428 0)
(1.09105 -0.289804 0)
(1.12099 -0.273561 0)
(1.15954 -0.254784 0)
(1.1306 -0.383676 0)
(1.04259 -0.369159 0)
(1.04267 -0.357624 0)
(1.03945 -0.346573 0)
(1.04285 -0.334659 0)
(1.05216 -0.322853 0)
(1.06794 -0.310534 0)
(1.09169 -0.297624 0)
(1.12427 -0.282813 0)
(1.16645 -0.264614 0)
(1.08006 -0.35767 0)
(1.01744 -0.348048 0)
(1.02369 -0.341677 0)
(1.02494 -0.336856 0)
(1.03271 -0.330999 0)
(1.04575 -0.324727 0)
(1.06448 -0.316739 0)
(1.09155 -0.307164 0)
(1.12719 -0.294066 0)
(1.17308 -0.275896 0)
(1.03949 -0.336261 0)
(0.994848 -0.33206 0)
(1.00536 -0.330451 0)
(1.01002 -0.329545 0)
(1.02126 -0.327734 0)
(1.0374 -0.325496 0)
(1.05865 -0.321121 0)
(1.08907 -0.315393 0)
(1.12766 -0.304508 0)
(1.17838 -0.287345 0)
(1.00432 -0.31751 0)
(0.973607 -0.320586 0)
(0.986641 -0.321844 0)
(0.994628 -0.323732 0)
(1.00803 -0.325947 0)
(1.02661 -0.32736 0)
(1.05061 -0.32659 0)
(1.08447 -0.32401 0)
(1.12639 -0.315226 0)
(1.18273 -0.299269 0)
(0.972183 -0.303228 0)
(0.952987 -0.311694 0)
(0.967963 -0.314729 0)
(0.977364 -0.319773 0)
(0.992395 -0.324379 0)
(1.01324 -0.328321 0)
(1.03962 -0.330632 0)
(1.07653 -0.330778 0)
(1.12213 -0.324296 0)
(1.18481 -0.310016 0)
(0.943214 -0.293957 0)
(0.931827 -0.30485 0)
(0.947801 -0.309006 0)
(0.958399 -0.316104 0)
(0.974496 -0.324137 0)
(0.997226 -0.330908 0)
(1.02592 -0.336045 0)
(1.06599 -0.33818 0)
(1.11552 -0.333531 0)
(1.185 -0.320407 0)
(0.916889 -0.288241 0)
(0.909421 -0.299283 0)
(0.924922 -0.304808 0)
(0.937496 -0.313674 0)
(0.954475 -0.324003 0)
(0.978955 -0.331885 0)
(1.00921 -0.340135 0)
(1.05177 -0.343911 0)
(1.10542 -0.341142 0)
(1.18256 -0.329186 0)
(0.891735 -0.282097 0)
(0.886904 -0.293247 0)
(0.900577 -0.302335 0)
(0.915428 -0.313201 0)
(0.932784 -0.326314 0)
(0.958542 -0.335516 0)
(0.989998 -0.344479 0)
(1.03508 -0.350374 0)
(1.09334 -0.349883 0)
(1.17874 -0.338547 0)
(0.863483 -0.276404 0)
(0.865968 -0.287731 0)
(0.875805 -0.300702 0)
(0.892104 -0.3116 0)
(0.909092 -0.325563 0)
(0.935452 -0.336244 0)
(0.968158 -0.348279 0)
(1.01586 -0.356236 0)
(1.07929 -0.358543 0)
(1.17372 -0.347754 0)
(0.833951 -0.272463 0)
(0.842697 -0.282934 0)
(0.850256 -0.297804 0)
(0.867009 -0.310505 0)
(0.883671 -0.326665 0)
(0.911035 -0.33841 0)
(0.945121 -0.353058 0)
(0.995495 -0.362889 0)
(1.06471 -0.369358 0)
(1.16897 -0.358977 0)
(0.804314 -0.268388 0)
(0.816348 -0.278126 0)
(0.823002 -0.29417 0)
(0.840952 -0.308111 0)
(0.857662 -0.326033 0)
(0.886216 -0.340209 0)
(0.921836 -0.358031 0)
(0.97478 -0.371025 0)
(1.04962 -0.381848 0)
(1.16448 -0.371894 0)
(0.773111 -0.262252 0)
(0.788085 -0.272758 0)
(0.794483 -0.29114 0)
(0.814596 -0.306807 0)
(0.832176 -0.327114 0)
(0.86217 -0.343825 0)
(0.899303 -0.363982 0)
(0.954647 -0.380797 0)
(1.03479 -0.396993 0)
(1.1604 -0.387561 0)
(0.738448 -0.257279 0)
(0.757623 -0.269223 0)
(0.76433 -0.290139 0)
(0.786781 -0.307244 0)
(0.805892 -0.328873 0)
(0.837554 -0.347391 0)
(0.876303 -0.372052 0)
(0.932967 -0.392149 0)
(1.01684 -0.412611 0)
(1.15406 -0.405093 0)
(0.697933 -0.249519 0)
(0.722185 -0.262705 0)
(0.728956 -0.285776 0)
(0.753272 -0.304944 0)
(0.773818 -0.329839 0)
(0.806897 -0.352007 0)
(0.847701 -0.37671 0)
(0.905643 -0.398757 0)
(0.993832 -0.42678 0)
(1.14149 -0.423497 0)
(0.643102 -0.241896 0)
(0.673418 -0.256265 0)
(0.681683 -0.280994 0)
(0.708935 -0.301159 0)
(0.734646 -0.326778 0)
(0.771429 -0.351388 0)
(0.815913 -0.38048 0)
(0.877074 -0.408518 0)
(0.96942 -0.44323 0)
(1.12168 -0.444764 0)
(0.574839 -0.2165 0)
(0.614163 -0.231596 0)
(0.630167 -0.262628 0)
(0.664481 -0.291468 0)
(0.698592 -0.324447 0)
(0.740703 -0.355439 0)
(0.789899 -0.387763 0)
(0.853615 -0.420671 0)
(0.947039 -0.460621 0)
(1.10786 -0.478805 0)
(0.508432 -0.21282 0)
(0.563738 -0.237735 0)
(0.593023 -0.283391 0)
(0.637229 -0.319369 0)
(0.679516 -0.352619 0)
(0.725189 -0.381437 0)
(0.775623 -0.411264 0)
(0.838509 -0.442827 0)
(0.927678 -0.484666 0)
(1.08201 -0.515267 0)
(0.479031 -0.176353 0)
(0.556199 -0.214892 0)
(0.598476 -0.274237 0)
(0.644719 -0.31734 0)
(0.686167 -0.352495 0)
(0.729494 -0.381469 0)
(0.777824 -0.410625 0)
(0.838869 -0.441354 0)
(0.923934 -0.482893 0)
(1.08124 -0.520614 0)
(1.25218 -0.195383 0)
(1.4017 -0.0867191 0)
(1.54585 0.0620871 0)
(1.66552 0.211434 0)
(1.76764 0.359891 0)
(1.78599 0.414112 0)
(1.76112 0.324608 0)
(1.6864 0.122399 0)
(1.65122 0.000261926 0)
(1.65186 -0.0275608 0)
(1.26569 -0.200933 0)
(1.41948 -0.0847956 0)
(1.56543 0.0706942 0)
(1.68688 0.225278 0)
(1.78301 0.377114 0)
(1.79994 0.418242 0)
(1.75899 0.316678 0)
(1.66799 0.110508 0)
(1.64195 -0.000993215 0)
(1.64358 -0.0228137 0)
(1.27949 -0.207727 0)
(1.43743 -0.0828325 0)
(1.5846 0.0802193 0)
(1.70659 0.23841 0)
(1.79696 0.39391 0)
(1.81052 0.422379 0)
(1.7547 0.305535 0)
(1.64717 0.0982429 0)
(1.63034 -0.001006 0)
(1.63513 -0.0177396 0)
(1.29325 -0.215526 0)
(1.45565 -0.0803817 0)
(1.60333 0.0910485 0)
(1.72548 0.254656 0)
(1.81057 0.410886 0)
(1.81671 0.42571 0)
(1.74491 0.289608 0)
(1.62659 0.0872154 0)
(1.61693 -0.000595891 0)
(1.62332 -0.0123708 0)
(1.30721 -0.224143 0)
(1.47426 -0.0771136 0)
(1.62117 0.102615 0)
(1.74231 0.269674 0)
(1.82319 0.424388 0)
(1.81966 0.428218 0)
(1.72762 0.26766 0)
(1.60464 0.0771322 0)
(1.6047 0.00197639 0)
(1.61433 -0.007023 0)
(1.3209 -0.232502 0)
(1.49312 -0.0732893 0)
(1.638 0.115893 0)
(1.75758 0.286145 0)
(1.83295 0.440299 0)
(1.82244 0.426429 0)
(1.70714 0.2413 0)
(1.58394 0.0695858 0)
(1.59225 0.00491684 0)
(1.60347 -0.00369523 0)
(1.33401 -0.23971 0)
(1.51265 -0.0678597 0)
(1.65247 0.124925 0)
(1.77054 0.298334 0)
(1.83925 0.444929 0)
(1.82332 0.422289 0)
(1.68512 0.215052 0)
(1.5635 0.0629771 0)
(1.58015 0.0081944 0)
(1.59534 0.00024795 0)
(1.34671 -0.24503 0)
(1.53263 -0.0626506 0)
(1.66538 0.137047 0)
(1.78116 0.307999 0)
(1.84352 0.445804 0)
(1.82107 0.405542 0)
(1.65326 0.188976 0)
(1.54474 0.0590451 0)
(1.56632 0.0107727 0)
(1.58917 0.00367861 0)
(1.35938 -0.248445 0)
(1.55403 -0.0536582 0)
(1.67597 0.139311 0)
(1.79063 0.307898 0)
(1.84737 0.437 0)
(1.81618 0.376148 0)
(1.61774 0.16944 0)
(1.52682 0.0589794 0)
(1.55174 0.0123067 0)
(1.58288 0.00598041 0)
(1.37315 -0.250284 0)
(1.57506 -0.0431279 0)
(1.68564 0.148544 0)