/*--------------------------------*- C++ -*----------------------------------*\
  =========                 |
  \\      /  F ield         | OpenFOAM: The Open Source CFD Toolbox
   \\    /   O peration     | Website:  https://openfoam.org
    \\  /    A nd           | Version:  8
     \\/     M anipulation  |
\*---------------------------------------------------------------------------*/
FoamFile
{
    version     2.0;
    format      ascii;
    class       volScalarField;
    location    "1.7";
    object      rho;
}
// * * * * * * * * * * * * * * * * * * * * * * * * * * * * * * * * * * * * * //

dimensions      [1 -3 0 0 0 0 0];

internalField   nonuniform List<scalar> 
2600
(
0.985933
0.934653
0.92599
1.00661
1.17445
1.41575
1.62226
1.67245
1.67552
1.67201
0.947497
0.88682
0.880427
0.979921
1.15785
1.40954
1.61831
1.65114
1.65637
1.65416
0.944794
0.869611
0.848851
0.957764
1.14304
1.38849
1.59061
1.63387
1.64756
1.62676
0.949167
0.859373
0.83168
0.930106
1.12943
1.3749
1.56372
1.62148
1.63434
1.60801
0.953784
0.8535
0.818725
0.901454
1.09205
1.33489
1.53757
1.56719
1.57067
1.57251
0.959185
0.850101
0.809036
0.875277
1.04893
1.26851
1.46319
1.48699
1.50004
1.51926
0.960415
0.845709
0.804805
0.858367
1.01446
1.21591
1.38763
1.42803
1.45416
1.48371
0.963046
0.847383
0.801003
0.848437
0.991461
1.18327
1.34162
1.38585
1.42458
1.45482
0.962253
0.846246
0.794402
0.843727
0.99169
1.18015
1.32622
1.3771
1.42409
1.4334
0.964147
0.84513
0.790778
0.844422
0.996217
1.17718
1.31749
1.37146
1.41896
1.43911
0.963988
0.845118
0.792736
0.84489
0.996281
1.17743
1.32246
1.36504
1.40493
1.45144
0.96196
0.845452
0.792554
0.843656
0.991464
1.18008
1.3343
1.37185
1.40495
1.46051
0.962524
0.846972
0.800553
0.847251
0.990818
1.18345
1.34384
1.38524
1.42377
1.45775
0.960167
0.845755
0.80571
0.85916
1.01523
1.21657
1.38628
1.42603
1.4581
1.47636
0.959349
0.850453
0.809932
0.876657
1.05013
1.26805
1.45907
1.48804
1.50255
1.51274
0.954269
0.853823
0.818687
0.901546
1.09089
1.33251
1.53908
1.57014
1.57551
1.56185
0.949531
0.859444
0.831789
0.929322
1.128
1.37567
1.57035
1.62185
1.62435
1.62028
0.944577
0.869424
0.848351
0.957473
1.14342
1.38886
1.59052
1.63247
1.64107
1.63962
0.946923
0.886716
0.880462
0.980813
1.15865
1.40777
1.6155
1.64885
1.66313
1.64563
0.985943
0.934947
0.926731
1.00727
1.17456
1.41399
1.62012
1.67172
1.68449
1.65895
1.19113
1.00264
0.982875
1.03721
1.17454
1.40224
1.61458
1.67662
1.68659
1.67164
1.4033
1.08547
1.0591
1.06651
1.15968
1.37043
1.59251
1.67129
1.68109
1.67046
1.57443
1.17111
1.1175
1.08384
1.13647
1.32751
1.5659
1.65451
1.67464
1.66428
1.70351
1.27063
1.16107
1.09696
1.12933
1.29296
1.55071
1.64683
1.67161
1.658
1.80781
1.36685
1.20877
1.11441
1.12722
1.26218
1.53409
1.64288
1.67079
1.65431
1.88874
1.44709
1.25647
1.1434
1.12844
1.23064
1.51148
1.63668
1.66759
1.65428
1.95633
1.51813
1.29893
1.17866
1.13199
1.2016
1.47708
1.62803
1.66377
1.65421
2.01398
1.58424
1.34297
1.20936
1.13934
1.18297
1.43141
1.61094
1.66197
1.65047
2.06347
1.64655
1.39429
1.23994
1.14917
1.17661
1.38699
1.59071
1.66192
1.64644
2.10701
1.70386
1.44524
1.27942
1.16185
1.17635
1.34716
1.57373
1.66103
1.6428
2.14489
1.75941
1.49256
1.32118
1.1852
1.17485
1.30847
1.55503
1.65763
1.63986
2.17851
1.81168
1.53935
1.35819
1.21523
1.17266
1.26916
1.52753
1.65127
1.63464
2.20762
1.8585
1.5862
1.39509
1.24445
1.17584
1.23253
1.48777
1.64206
1.62694
2.23198
1.89959
1.62975
1.43276
1.27256
1.17996
1.20528
1.43896
1.63016
1.61902
2.25146
1.9357
1.6695
1.46884
1.30337
1.1874
1.1896
1.39017
1.61445
1.61143
2.2672
1.96731
1.70663
1.50078
1.33366
1.19794
1.18102
1.34496
1.59369
1.60305
2.28011
1.99507
1.74084
1.53162
1.36102
1.21246
1.1764
1.30122
1.56694
1.59258
2.2912
2.01978
1.7714
1.56077
1.38693
1.23031
1.17642
1.25996
1.53321
1.58025
2.30095
2.04181
1.79885
1.58792
1.41281
1.25006
1.17793
1.22674
1.49663
1.56815
2.30951
2.06181
1.82433
1.61394
1.43738
1.27366
1.18195
1.2024
1.45849
1.55617
3.40833
3.29299
3.21181
3.13311
3.05682
2.98205
2.90055
2.80851
2.67402
2.50392
3.26114
3.15242
3.10073
3.04309
2.98494
2.92013
2.8436
2.74754
2.60743
2.40238
3.22153
3.14434
3.10391
3.04975
2.99475
2.93127
2.85455
2.75616
2.61408
2.42029
3.16579
3.1086
3.07552
3.02631
2.97628
2.9136
2.83721
2.73755
2.5975
2.40293
3.11856
3.07301
3.04462
2.99821
2.95074
2.88938
2.81538
2.71698
2.58175
2.3893
3.07343
3.03432
3.00796
2.96489
2.9212
2.86237
2.79186
2.69608
2.56761
2.38358
3.03159
2.99738
2.97323
2.93372
2.89322
2.83692
2.77038
2.6781
2.55706
2.38633
2.9912
2.96154
2.93999
2.90459
2.86761
2.81466
2.75248
2.66444
2.5509
2.39402
2.95471
2.93038
2.91213
2.88086
2.8472
2.79752
2.73936
2.65556
2.54911
2.40526
2.92738
2.9065
2.88999
2.8613
2.83013
2.78339
2.72879
2.64943
2.55001
2.41798
2.90234
2.88337
2.86799
2.84179
2.81316
2.76924
2.71792
2.64311
2.55059
2.42908
2.86978
2.85311
2.83976
2.81696
2.7911
2.75048
2.70294
2.63355
2.54857
2.43775
2.83766
2.82432
2.81273
2.79216
2.76803
2.73031
2.68622
2.62241
2.54473
2.44436
2.81141
2.80101
2.78953
2.76981
2.74675
2.71111
2.66981
2.61113
2.54019
2.44875
2.79162
2.78291
2.77041
2.75005
2.72691
2.69282
2.65415
2.60001
2.53496
2.45135
2.77549
2.76724
2.7546
2.73368
2.7102
2.67736
2.64086
2.59059
2.53036
2.45322
2.76023
2.75043
2.73814
2.71844
2.69622
2.66491
2.63007
2.58286
2.52645
2.45477
2.73837
2.72691
2.71652
2.70007
2.68063
2.65251
2.62024
2.57633
2.52356
2.4564
2.71272
2.6997
2.69171
2.67862
2.66281
2.63903
2.61
2.5694
2.52016
2.45727
2.69764
2.68051
2.67022
2.65734
2.64376
2.6236
2.59796
2.56106
2.51577
2.4575
1.40652
1.42124
1.43928
1.46058
1.49048
1.56865
1.69024
1.82422
2.56519
2.94819
1.40652
1.42124
1.43928
1.46058
1.49048
1.56869
1.69005
1.82407
2.56329
2.94184
1.40652
1.42124
1.43928
1.46058
1.49047
1.56877
1.68974
1.82371
2.55982
2.93416
1.40652
1.42124
1.43928
1.46058
1.49047
1.56888
1.68943
1.8231
2.55485
2.924
1.40652
1.42124
1.43928
1.46057
1.49046
1.56899
1.6892
1.82217
2.5487
2.91215
1.40652
1.42124
1.43928
1.46057
1.49046
1.56909
1.68915
1.82093
2.54175
2.89881
1.40652
1.42124
1.43928
1.46057
1.49046
1.56916
1.68922
1.81934
2.53426
2.88492
1.40652
1.42123
1.43928
1.46057
1.49047
1.5692
1.6894
1.81744
2.52622
2.87063
1.40652
1.42123
1.43929
1.46056
1.49048
1.56922
1.68967
1.81522
2.51747
2.8535
1.40652
1.42123
1.43929
1.46056
1.49049
1.56921
1.69002
1.81265
2.50762
2.83291
1.40652
1.42123
1.43929
1.46055
1.4905
1.5692
1.69047
1.80961
2.49746
2.81148
1.40652
1.42123
1.43929
1.46055
1.49051
1.56919
1.69097
1.80627
2.48755
2.79148
1.40652
1.42123
1.4393
1.46054
1.49051
1.56918
1.69155
1.80231
2.47778
2.77445
1.40652
1.42123
1.4393
1.46054
1.49052
1.56918
1.69217
1.79814
2.46783
2.76086
1.40652
1.42123
1.4393
1.46053
1.49052
1.56919
1.69287
1.7937
2.45776
2.74936
1.40653
1.42123
1.4393
1.46053
1.49051
1.56919
1.69362
1.78907
2.44769
2.73872
1.40653
1.42122
1.4393
1.46053
1.49051
1.5692
1.6944
1.7843
2.4379
2.7289
1.40653
1.42122
1.43931
1.46053
1.49051
1.56919
1.69522
1.77948
2.42848
2.72132
1.40653
1.42122
1.43931
1.46053
1.4905
1.56916
1.69606
1.77471
2.41911
2.71892
1.40653
1.42122
1.43931
1.46053
1.4905
1.5691
1.69699
1.77018
2.40859
2.72077
1.40653
1.42122
1.43931
1.46053
1.4905
1.5691
1.69699
1.77018
2.40859
2.72077
1.40653
1.42122
1.43931
1.46053
1.4905
1.56916
1.69606
1.77471
2.41911
2.71892
1.40653
1.42122
1.43931
1.46053
1.49051
1.56919
1.69522
1.77948
2.42848
2.72132
1.40653
1.42122
1.4393
1.46053
1.49051
1.5692
1.6944
1.7843
2.4379
2.7289
1.40653
1.42123
1.4393
1.46053
1.49051
1.56919
1.69362
1.78907
2.44769
2.73872
1.40652
1.42123
1.4393
1.46053
1.49052
1.56919
1.69287
1.7937
2.45776
2.74936
1.40652
1.42123
1.4393
1.46054
1.49052
1.56918
1.69217
1.79814
2.46783
2.76086
1.40652
1.42123
1.4393
1.46054
1.49051
1.56918
1.69155
1.80231
2.47778
2.77445
1.40652
1.42123
1.43929
1.46055
1.49051
1.56919
1.69097
1.80627
2.48755
2.79148
1.40652
1.42123
1.43929
1.46055
1.4905
1.5692
1.69047
1.80961
2.49746
2.81148
1.40652
1.42123
1.43929
1.46056
1.49049
1.56921
1.69002
1.81265
2.50762
2.83291
1.40652
1.42123
1.43929
1.46056
1.49048
1.56922
1.68967
1.81522
2.51747
2.8535
1.40652
1.42123
1.43928
1.46057
1.49047
1.5692
1.6894
1.81744
2.52622
2.87063
1.40652
1.42124
1.43928
1.46057
1.49046
1.56916
1.68922
1.81934
2.53426
2.88492
1.40652
1.42124
1.43928
1.46057
1.49046
1.56909
1.68915
1.82093
2.54175
2.89881
1.40652
1.42124
1.43928
1.46057
1.49046
1.56899
1.6892
1.82217
2.5487
2.91215
1.40652
1.42124
1.43928
1.46058
1.49047
1.56888
1.68943
1.8231
2.55485
2.924
1.40652
1.42124
1.43928
1.46058
1.49047
1.56877
1.68974
1.82371
2.55982
2.93415
1.40652
1.42124
1.43928
1.46058
1.49048
1.56869
1.69005
1.82407
2.56329
2.94184
1.40652
1.42124
1.43928
1.46058
1.49048
1.56865
1.69024
1.82422
2.56519
2.94819
2.69764
2.68051
2.67022
2.65734
2.64376
2.6236
2.59796
2.56106
2.51577
2.4575
2.71273
2.6997
2.69171
2.67862
2.66281
2.63902
2.61
2.5694
2.52015
2.45727
2.73837
2.72691
2.71652
2.70007
2.68062
2.6525
2.62024
2.57633
2.52356
2.4564
2.76023
2.75043
2.73814
2.71843
2.69622
2.66491
2.63007
2.58286
2.52645
2.45477
2.77549
2.76724
2.7546
2.73367
2.71019
2.67735
2.64085
2.59059
2.53035
2.45322
2.79162
2.7829
2.77041
2.75005
2.72691
2.69282
2.65414
2.60001
2.53497
2.45136
2.81141
2.80101
2.78953
2.76981
2.74674
2.7111
2.66981
2.61113
2.54019
2.44876
2.83766
2.82432
2.81272
2.79216
2.76803
2.73031
2.68622
2.6224
2.54474
2.44437
2.86978
2.85311
2.83976
2.81696
2.7911
2.75048
2.70293
2.63355
2.54858
2.43776
2.90234
2.88336
2.86799
2.84179
2.81316
2.76923
2.71792
2.64311
2.5506
2.42908
2.92738
2.9065
2.88999
2.8613
2.83013
2.78339
2.72879
2.64943
2.55002
2.41799
2.95471
2.93038
2.91213
2.88086
2.84719
2.79752
2.73936
2.65556
2.54911
2.40527
2.9912
2.96154
2.93999
2.90459
2.86761
2.81466
2.75249
2.66444
2.55091
2.39404
3.03159
2.99738
2.97323
2.93372
2.89322
2.83692
2.77038
2.6781
2.55707
2.38636
3.07343
3.03432
3.00796
2.96489
2.9212
2.86237
2.79186
2.69608
2.56762
2.38362
3.11856
3.07301
3.04462
2.99821
2.95074
2.88938
2.81538
2.71698
2.58176
2.38934
3.16579
3.1086
3.07552
3.02631
2.97628
2.9136
2.83721
2.73756
2.59751
2.40295
3.22153
3.14434
3.10391
3.04975
2.99475
2.93127
2.85456
2.75616
2.61409
2.4203
3.26114
3.15242
3.10073
3.04309
2.98494
2.92013
2.8436
2.74754
2.60744
2.4024
3.40833
3.29299
3.21181
3.13311
3.05682
2.98205
2.90055
2.80852
2.67403
2.50394
2.30949
2.06183
1.82438
1.61402
1.43745
1.2736
1.18187
1.20214
1.45814
1.55621
2.30095
2.04177
1.79892
1.58801
1.41285
1.25004
1.17786
1.22659
1.49762
1.56787
2.29122
2.01972
1.7714
1.56084
1.387
1.23045
1.17635
1.25972
1.53447
1.58021
2.28015
1.99502
1.74078
1.53168
1.36112
1.21255
1.17628
1.30067
1.56683
1.5931
2.26723
1.96731
1.70658
1.50072
1.33369
1.19796
1.18088
1.34454
1.59244
1.6038
2.25148
1.93578
1.66945
1.46872
1.30343
1.18753
1.18951
1.39055
1.61337
1.61193
2.23199
1.89968
1.62972
1.43272
1.27264
1.18007
1.20507
1.43966
1.6305
1.61885
2.20761
1.85852
1.58625
1.39512
1.24441
1.17587
1.23204
1.48765
1.64376
1.62619
2.17849
1.81169
1.5394
1.35813
1.21512
1.17276
1.26839
1.52699
1.65239
1.6342
2.14488
1.75945
1.49248
1.32102
1.18529
1.17509
1.30788
1.55505
1.65729
1.64125
2.10704
1.70388
1.44511
1.27933
1.16205
1.17663
1.34688
1.57537
1.65884
1.64452
2.0635
1.64648
1.39433
1.23987
1.14913
1.17685
1.38659
1.59326
1.66024
1.64514
2.014
1.58413
1.3431
1.20915
1.13914
1.18321
1.43031
1.61221
1.66284
1.648
1.95636
1.51799
1.29893
1.17846
1.13207
1.20181
1.47564
1.6281
1.66629
1.65191
1.88882
1.44685
1.25637
1.14347
1.12869
1.23143
1.51106
1.63733
1.66818
1.65675
1.80792
1.36668
1.20861
1.11455
1.12739
1.26349
1.53458
1.64393
1.66671
1.65861
1.70356
1.27081
1.16081
1.09678
1.12932
1.29429
1.55138
1.64833
1.66827
1.65764
1.57438
1.17144
1.11745
1.08354
1.13648
1.328
1.56659
1.6553
1.67536
1.65991
1.40324
1.08544
1.05938
1.06651
1.1598
1.37064
1.59025
1.6704
1.68578
1.6654
1.19098
1.00229
0.982597
1.03734
1.17467
1.40371
1.61367
1.67618
1.68784
1.67174
2.42757
2.30545
2.16973
2.03579
1.87978
1.70289
1.52532
1.35973
1.1104
0.970396
2.42731
2.3038
2.16931
2.03383
1.87707
1.70027
1.52299
1.35622
1.10898
0.973579
2.42722
2.30187
2.16917
2.02998
1.8727
1.69619
1.51922
1.35063
1.10682
0.97718
2.42739
2.29936
2.16656
2.02484
1.86706
1.6909
1.51437
1.34334
1.1048
0.983761
2.4278
2.29668
2.16228
2.01831
1.85968
1.68411
1.50836
1.33459
1.10403
0.994107
2.42815
2.29321
2.15605
2.00977
1.85036
1.67582
1.50103
1.32431
1.10504
1.00909
2.4271
2.28863
2.14805
1.99948
1.83929
1.6659
1.49228
1.31304
1.10771
1.03035
2.42338
2.28282
2.13932
1.98804
1.82653
1.65432
1.48191
1.30097
1.10997
1.05875
2.41719
2.27641
2.13088
1.97664
1.81287
1.64125
1.46961
1.28842
1.11038
1.09208
2.40842
2.27076
2.12416
1.96614
1.79856
1.62642
1.45529
1.27594
1.11078
1.1281
2.39961
2.26613
2.11905
1.95643
1.78386
1.61039
1.43867
1.26366
1.11207
1.16626
2.39345
2.26293
2.11349
1.94576
1.76773
1.59251
1.41959
1.25165
1.11517
1.20414
2.38958
2.25798
2.10327
1.93055
1.74861
1.57208
1.39772
1.24016
1.11628
1.24273
2.3858
2.2477
2.08671
1.90864
1.72439
1.54857
1.37271
1.2282
1.12222
1.28377
2.37897
2.23069
2.06183
1.87858
1.69415
1.52032
1.34419
1.21647
1.13455
1.32695
2.36866
2.20815
2.02987
1.841
1.65794
1.48711
1.31229
1.20466
1.15508
1.37206
2.35608
2.18198
1.99246
1.79827
1.61663
1.44854
1.2783
1.19291
1.18883
1.41877
2.34339
2.15319
1.95151
1.75158
1.57206
1.40547
1.24381
1.18604
1.23972
1.46566
2.3318
2.1227
1.90765
1.70298
1.52474
1.3585
1.21522
1.18093
1.31081
1.50578
2.31998
2.08922
1.86122
1.65233
1.47603
1.30933
1.19337
1.18382
1.39395
1.53679
2.32
2.08918
1.86121
1.65238
1.47599
1.30921
1.19333
1.18391
1.39481
1.53641
2.3318
2.1227
1.90767
1.703
1.52475
1.35847
1.21517
1.1809
1.31103
1.50542
2.34339
2.1532
1.95154
1.7516
1.57203
1.40544
1.24378
1.18599
1.23967
1.4655
2.35608
2.18199
1.99247
1.79828
1.61665
1.44851
1.27825
1.19286
1.1888
1.41871
2.36866
2.20816
2.02988
1.84101
1.65795
1.4871
1.31227
1.20462
1.15504
1.37205
2.37897
2.2307
2.06184
1.8786
1.69416
1.52031
1.34419
1.21644
1.13451
1.32699
2.38581
2.2477
2.08672
1.90864
1.7244
1.54857
1.37271
1.22818
1.12218
1.28379
2.38958
2.25798
2.10327
1.93055
1.74861
1.57209
1.39773
1.24017
1.11626
1.24271
2.39346
2.26294
2.11349
1.94576
1.76774
1.59252
1.4196
1.25167
1.11519
1.2041
2.39961
2.26614
2.11906
1.95644
1.78387
1.6104
1.43869
1.26367
1.11208
1.16624
2.40842
2.27076
2.12417
1.96615
1.79857
1.62644
1.45531
1.27596
1.11079
1.12807
2.41719
2.27642
2.13089
1.97665
1.81288
1.64126
1.46963
1.28844
1.1104
1.09206
2.42338
2.28282
2.13933
1.98805
1.82654
1.65433
1.48194
1.30099
1.10998
1.05873
2.4271
2.28864
2.14806
1.99949
1.8393
1.66591
1.4923
1.31306
1.10772
1.03033
2.42815
2.29321
2.15605
2.00978
1.85037
1.67584
1.50105
1.32433
1.10504
1.00908
2.4278
2.29668
2.16229
2.01832
1.85969
1.68412
1.50837
1.33461
1.10404
0.994099
2.42739
2.29937
2.16656
2.02485
1.86706
1.69091
1.51437
1.34335
1.10481
0.983753
2.42722
2.30187
2.16917
2.02998
1.8727
1.6962
1.51923
1.35064
1.10684
0.977169
2.42731
2.3038
2.16931
2.03384
1.87707
1.70028
1.523
1.35623
1.109
0.973562
2.42757
2.30545
2.16973
2.03579
1.87978
1.7029
1.52533
1.35974
1.11043
0.970382
2.69002
2.67073
2.65698
2.64149
2.62672
2.60712
2.58319
2.5496
2.5083
2.45531
2.69497
2.67649
2.65978
2.63914
2.6185
2.59477
2.56961
2.53824
2.49982
2.45224
2.69836
2.68272
2.66474
2.64079
2.6162
2.58977
2.56286
2.5319
2.49519
2.45163
2.69461
2.67996
2.66206
2.63742
2.6112
2.58344
2.55565
2.52586
2.49219
2.4536
2.68955
2.67262
2.6526
2.62748
2.60153
2.57473
2.5479
2.52009
2.48954
2.45568
2.6836
2.66304
2.64089
2.61576
2.59153
2.56655
2.54058
2.51433
2.48704
2.4575
2.67944
2.65622
2.63283
2.60843
2.58632
2.56224
2.53646
2.51091
2.48485
2.45753
2.67947
2.65636
2.63302
2.6084
2.58662
2.56359
2.53841
2.51285
2.48653
2.4589
2.68373
2.66416
2.64403
2.61896
2.59556
2.57256
2.54781
2.52153
2.49369
2.46417
2.68938
2.67404
2.65717
2.63387
2.61007
2.58644
2.56197
2.53541
2.50592
2.47396
2.69363
2.67997
2.66408
2.64264
2.62016
2.59723
2.57406
2.54894
2.52019
2.48714
2.69619
2.68185
2.66555
2.64469
2.6236
2.60212
2.58075
2.55726
2.52974
2.49763
2.69772
2.68066
2.66294
2.64296
2.62415
2.60511
2.58449
2.56121
2.53433
2.50349
2.69512
2.67483
2.65849
2.64184
2.62466
2.60624
2.58574
2.56255
2.53576
2.50573
2.68953
2.67111
2.65683
2.64107
2.62451
2.60617
2.58546
2.56217
2.5353
2.50564
2.68748
2.66998
2.65635
2.64065
2.62389
2.60527
2.58429
2.56085
2.53394
2.50453
2.68695
2.66952
2.6559
2.64004
2.62303
2.60415
2.58303
2.55955
2.53276
2.50357
2.6868
2.66913
2.65542
2.63937
2.62223
2.60321
2.58214
2.55873
2.53226
2.50326
2.68666
2.6688
2.65495
2.63873
2.62151
2.60244
2.58154
2.55828
2.53217
2.50337
2.68659
2.6688
2.65499
2.63869
2.62141
2.60225
2.58145
2.55825
2.53234
2.50389
1.40653
1.42122
1.43931
1.46053
1.49049
1.56899
1.69835
1.76487
2.39279
2.72321
1.40653
1.42122
1.43931
1.46054
1.49047
1.56889
1.70065
1.75928
2.37032
2.72502
1.40653
1.42122
1.43931
1.46054
1.49045
1.56887
1.70247
1.75521
2.34631
2.72612
1.40653
1.42122
1.43931
1.46054
1.49044
1.56889
1.7035
1.75265
2.32326
2.72458
1.40653
1.42122
1.43931
1.46055
1.49043
1.56885
1.70426
1.75108
2.3018
2.7229
1.40653
1.42122
1.4393
1.46055
1.49042
1.56878
1.70492
1.75023
2.28183
2.7212
1.40653
1.42122
1.4393
1.46055
1.49041
1.56871
1.7055
1.74976
2.26311
2.71982
1.40653
1.42122
1.4393
1.46056
1.4904
1.56866
1.70601
1.74941
2.24531
2.71977
1.40652
1.42123
1.4393
1.46056
1.49039
1.56863
1.70643
1.74912
2.2284
2.72087
1.40652
1.42123
1.43929
1.46057
1.49038
1.56859
1.7068
1.74887
2.21286
2.7227
1.40652
1.42123
1.43929
1.46057
1.49038
1.56854
1.70711
1.74868
2.19905
2.72448
1.40652
1.42123
1.43929
1.46057
1.49037
1.56847
1.70739
1.74854
2.18723
2.72589
1.40652
1.42123
1.43929
1.46058
1.49037
1.56839
1.70764
1.74845
2.17742
2.72709
1.40652
1.42123
1.43928
1.46058
1.49037
1.5683
1.70786
1.74841
2.1693
2.72775
1.40652
1.42124
1.43928
1.46058
1.49038
1.5682
1.70805
1.7484
2.16251
2.72758
1.40652
1.42124
1.43928
1.46058
1.49039
1.5681
1.70821
1.74842
2.15725
2.72695
1.40652
1.42124
1.43928
1.46058
1.49039
1.568
1.70835
1.74844
2.1531
2.72616
1.40652
1.42124
1.43927
1.46058
1.4904
1.56792
1.70845
1.74846
2.14996
2.72561
1.40652
1.42124
1.43927
1.46058
1.4904
1.56786
1.70851
1.74849
2.1478
2.72505
1.40652
1.42124
1.43927
1.46058
1.49041
1.56782
1.70855
1.74851
2.14667
2.7246
1.40652
1.42124
1.43927
1.46058
1.49041
1.56782
1.70855
1.74851
2.14667
2.7246
1.40652
1.42124
1.43927
1.46058
1.4904
1.56786
1.70851
1.74849
2.1478
2.72505
1.40652
1.42124
1.43927
1.46058
1.4904
1.56792
1.70845
1.74846
2.14996
2.72561
1.40652
1.42124
1.43928
1.46058
1.49039
1.568
1.70835
1.74844
2.1531
2.72616
1.40652
1.42124
1.43928
1.46058
1.49039
1.5681
1.70821
1.74842
2.15725
2.72695
1.40652
1.42124
1.43928
1.46058
1.49038
1.5682
1.70805
1.7484
2.16251
2.72758
1.40652
1.42123
1.43928
1.46058
1.49037
1.5683
1.70786
1.74841
2.1693
2.72775
1.40652
1.42123
1.43929
1.46058
1.49037
1.56839
1.70764
1.74845
2.17742
2.72709
1.40652
1.42123
1.43929
1.46057
1.49037
1.56847
1.70739
1.74854
2.18723
2.72589
1.40652
1.42123
1.43929
1.46057
1.49038
1.56854
1.70711
1.74868
2.19905
2.72448
1.40652
1.42123
1.43929
1.46057
1.49038
1.56859
1.7068
1.74887
2.21285
2.7227
1.40652
1.42123
1.4393
1.46056
1.49039
1.56863
1.70643
1.74912
2.2284
2.72087
1.40653
1.42122
1.4393
1.46056
1.4904
1.56866
1.70601
1.74941
2.24531
2.71976
1.40653
1.42122
1.4393
1.46055
1.49041
1.56871
1.7055
1.74976
2.26311
2.71982
1.40653
1.42122
1.4393
1.46055
1.49042
1.56878
1.70492
1.75023
2.28183
2.7212
1.40653
1.42122
1.43931
1.46055
1.49043
1.56885
1.70426
1.75108
2.3018
2.7229
1.40653
1.42122
1.43931
1.46054
1.49044
1.56889
1.7035
1.75265
2.32326
2.72458
1.40653
1.42122
1.43931
1.46054
1.49045
1.56887
1.70247
1.75521
2.34631
2.72612
1.40653
1.42122
1.43931
1.46054
1.49047
1.56889
1.70065
1.75928
2.37032
2.72502
1.40653
1.42122
1.43931
1.46053
1.49049
1.56899
1.69835
1.76487
2.39279
2.72321
2.68659
2.6688
2.65499
2.63869
2.62141
2.60225
2.58146
2.55825
2.53234
2.50389
2.68666
2.6688
2.65495
2.63873
2.62151
2.60244
2.58154
2.55829
2.53217
2.50337
2.6868
2.66913
2.65542
2.63937
2.62223
2.60321
2.58214
2.55873
2.53226
2.50326
2.68695
2.66952
2.6559
2.64004
2.62303
2.60415
2.58303
2.55955
2.53276
2.50357
2.68748
2.66998
2.65635
2.64065
2.62389
2.60527
2.58429
2.56085
2.53394
2.50453
2.68953
2.67111
2.65683
2.64107
2.62451
2.60616
2.58546
2.56217
2.5353
2.50563
2.69512
2.67483
2.65849
2.64183
2.62466
2.60624
2.58574
2.56255
2.53576
2.50573
2.69772
2.68066
2.66294
2.64296
2.62415
2.60511
2.58448
2.56121
2.53433
2.50349
2.69619
2.68185
2.66555
2.64469
2.62359
2.60212
2.58075
2.55726
2.52974
2.49763
2.69363
2.67997
2.66408
2.64264
2.62016
2.59723
2.57406
2.54894
2.52019
2.48714
2.68938
2.67404
2.65717
2.63387
2.61007
2.58644
2.56197
2.53541
2.50592
2.47396
2.68373
2.66416
2.64404
2.61896
2.59557
2.57256
2.54781
2.52154
2.49369
2.46417
2.67947
2.65636
2.63302
2.6084
2.58662
2.56359
2.53842
2.51285
2.48653
2.4589
2.67944
2.65621
2.63282
2.60843
2.58632
2.56224
2.53646
2.51091
2.48485
2.45753
2.6836
2.66303
2.64089
2.61575
2.59153
2.56655
2.54058
2.51433
2.48704
2.4575
2.68954
2.67262
2.65259
2.62747
2.60153
2.57472
2.5479
2.52009
2.48954
2.45568
2.69461
2.67995
2.66205
2.6374
2.61119
2.58343
2.55565
2.52585
2.49219
2.4536
2.69836
2.68272
2.66473
2.64078
2.61619
2.58976
2.56285
2.53189
2.49519
2.45162
2.69497
2.67648
2.65978
2.63914
2.61849
2.59477
2.5696
2.53824
2.49982
2.45224
2.69002
2.67072
2.65698
2.64149
2.62672
2.60711
2.58319
2.5496
2.5083
2.45531
)
;

boundaryField
{
    inlet
    {
        type            calculated;
        value           uniform 1.40001;
    }
    outlet
    {
        type            calculated;
        value           nonuniform List<scalar> 
100
(
1.53644
1.50549
1.46554
1.41872
1.37202
1.32692
1.28369
1.2426
1.204
1.16617
1.12808
1.09215
1.05882
1.03042
1.00916
0.994151
0.983781
0.977173
0.973543
0.970364
1.67144
1.67064
1.66456
1.65811
1.65421
1.65401
1.6542
1.65053
1.64643
1.64266
1.63969
1.63459
1.62693
1.61896
1.61135
1.60302
1.59265
1.58031
1.56815
1.55615
1.67199
1.65311
1.62672
1.6088
1.57287
1.5192
1.48355
1.45518
1.43348
1.43898
1.45177
1.46052
1.45785
1.47708
1.51314
1.56113
1.62027
1.64048
1.64575
1.65816
1.55617
1.56788
1.5803
1.5932
1.60377
1.61181
1.61872
1.62618
1.63423
1.6412
1.64425
1.64498
1.64804
1.65206
1.65683
1.65835
1.65741
1.66
1.66572
1.67199
0.970378
0.97356
0.977184
0.983788
0.994159
1.00917
1.03044
1.05884
1.09217
1.1281
1.1662
1.20405
1.24262
1.28367
1.32688
1.37203
1.41878
1.4657
1.50585
1.53681
)
;
    }
    triangle
    {
        type            calculated;
        value           nonuniform List<scalar> 
40
(
3.40833
3.29299
3.21181
3.13311
3.05682
2.98205
2.90055
2.80851
2.67402
2.50392
0.985933
0.947497
0.944794
0.949167
0.953784
0.959185
0.960415
0.963046
0.962253
0.964147
0.963988
0.96196
0.962524
0.960167
0.959349
0.954269
0.949531
0.944577
0.946923
0.985943
3.40833
3.29299
3.21181
3.13311
3.05682
2.98205
2.90055
2.80852
2.67403
2.50394
)
;
    }
    top
    {
        type            symmetryPlane;
    }
    bottom
    {
        type            symmetryPlane;
    }
    defaultFaces
    {
        type            empty;
    }
}


// ************************************************************************* //
