/*--------------------------------*- C++ -*----------------------------------*\
  =========                 |
  \\      /  F ield         | OpenFOAM: The Open Source CFD Toolbox
   \\    /   O peration     | Website:  https://openfoam.org
    \\  /    A nd           | Version:  8
     \\/     M anipulation  |
\*---------------------------------------------------------------------------*/
FoamFile
{
    version     2.0;
    format      ascii;
    class       volScalarField;
    location    "1.7";
    object      T;
}
// * * * * * * * * * * * * * * * * * * * * * * * * * * * * * * * * * * * * * //

dimensions      [0 0 0 1 0 0 0];

internalField   nonuniform List<scalar> 
2600
(
1.23078
1.16881
1.07103
0.985805
0.999587
1.04302
1.08625
1.09861
1.09939
1.10394
1.26365
1.20444
1.11391
1.02199
1.02492
1.06051
1.09633
1.10266
1.10346
1.10886
1.2711
1.21489
1.1422
1.06479
1.0611
1.08147
1.10639
1.11625
1.11902
1.11921
1.27371
1.21407
1.15877
1.10526
1.10618
1.11872
1.13044
1.14668
1.14908
1.14557
1.27494
1.21432
1.17254
1.14674
1.15249
1.16638
1.17821
1.18864
1.18502
1.18245
1.27781
1.21863
1.18879
1.18922
1.20745
1.22365
1.23856
1.24206
1.23273
1.22035
1.27943
1.22448
1.20283
1.22213
1.25852
1.28633
1.30353
1.30045
1.28171
1.25529
1.28193
1.23093
1.20793
1.23314
1.28102
1.32387
1.34731
1.33508
1.31014
1.27387
1.28248
1.23258
1.20533
1.23106
1.28568
1.33665
1.36291
1.34903
1.32339
1.27876
1.28391
1.23249
1.20264
1.22979
1.28594
1.33592
1.36272
1.35074
1.32509
1.28425
1.28382
1.23253
1.20383
1.22997
1.28589
1.33579
1.36473
1.34886
1.3205
1.28743
1.2823
1.23213
1.20431
1.23107
1.28558
1.3362
1.36593
1.34759
1.31718
1.2876
1.28161
1.23074
1.20779
1.23283
1.28062
1.32328
1.34701
1.33447
1.31071
1.27523
1.27928
1.22474
1.20366
1.22284
1.25873
1.2854
1.30098
1.29956
1.2853
1.25202
1.27792
1.2191
1.18962
1.19011
1.2081
1.22234
1.23527
1.24314
1.23644
1.21691
1.27524
1.2146
1.17269
1.14696
1.15222
1.16481
1.17833
1.19032
1.18868
1.17834
1.27399
1.21409
1.15894
1.10506
1.10582
1.11869
1.13269
1.14727
1.14684
1.14958
1.27098
1.21477
1.14195
1.06492
1.06134
1.08153
1.1067
1.11614
1.11724
1.12343
1.26315
1.20432
1.11396
1.02253
1.02527
1.05979
1.09592
1.10232
1.10509
1.10679
1.23064
1.16886
1.07143
0.986114
0.999635
1.04235
1.08605
1.09869
1.10131
1.10094
1.16974
1.10019
1.02265
0.957778
0.976358
1.02559
1.07772
1.09424
1.09635
1.09861
1.12823
1.04282
0.991003
0.939374
0.956592
1.00939
1.0695
1.09029
1.09171
1.09471
1.11929
1.01816
0.97385
0.930403
0.940357
0.994121
1.06288
1.08649
1.08877
1.09118
1.12214
1.0157
0.967135
0.926772
0.933472
0.983125
1.05999
1.08572
1.08709
1.08846
1.13147
1.02184
0.96684
0.926423
0.931135
0.974077
1.05601
1.08555
1.08584
1.08644
1.14394
1.0335
0.972586
0.932923
0.931551
0.964296
1.04832
1.08336
1.08323
1.08527
1.15682
1.04798
0.982546
0.943976
0.932792
0.954431
1.03514
1.07845
1.07947
1.08386
1.16781
1.06293
0.994589
0.953133
0.934978
0.946739
1.01787
1.07069
1.07591
1.08119
1.17599
1.07649
1.00793
0.961235
0.937098
0.941989
1.00153
1.06323
1.07297
1.07836
1.18201
1.08773
1.01975
0.971293
0.939143
0.938768
0.987917
1.05818
1.07025
1.07595
1.18667
1.09772
1.02946
0.981313
0.943355
0.93583
0.975887
1.05361
1.06753
1.07423
1.19105
1.10671
1.03854
0.989464
0.948639
0.93455
0.963661
1.04632
1.06452
1.07257
1.19568
1.11484
1.04766
0.997334
0.954354
0.934741
0.952195
1.03444
1.06117
1.07099
1.20077
1.12262
1.05641
1.0055
0.960567
0.935578
0.94382
1.01901
1.05786
1.07001
1.20615
1.13045
1.06494
1.01363
0.968319
0.937886
0.93934
1.0033
1.055
1.0696
1.2116
1.13841
1.0737
1.0213
0.976735
0.941244
0.937262
0.988852
1.05281
1.06912
1.21682
1.14635
1.0826
1.02951
0.985062
0.94613
0.936117
0.975457
1.0505
1.06815
1.22163
1.1541
1.09136
1.03814
0.993585
0.952192
0.936803
0.963249
1.04608
1.06664
1.22602
1.16145
1.09994
1.04693
1.00242
0.958809
0.937762
0.953427
1.039
1.06495
1.2301
1.16833
1.10827
1.05566
1.0108
0.966325
0.93911
0.946076
1.02898
1.06243
1.47747
1.45877
1.44648
1.43358
1.41994
1.40585
1.39009
1.37131
1.34242
1.32486
1.44655
1.42769
1.4196
1.4098
1.39941
1.38741
1.37286
1.35368
1.3243
1.28864
1.43143
1.41687
1.4088
1.39867
1.3889
1.37763
1.3636
1.34458
1.31583
1.27647
1.41513
1.4042
1.39708
1.38729
1.37795
1.36649
1.35241
1.33335
1.30555
1.26513
1.40181
1.39335
1.38776
1.37878
1.36971
1.35812
1.34416
1.32522
1.29851
1.25856
1.39003
1.38291
1.37817
1.37024
1.36207
1.35091
1.33739
1.31872
1.29321
1.25474
1.37992
1.37377
1.3695
1.36224
1.35465
1.34388
1.33097
1.31281
1.28863
1.25264
1.37062
1.36505
1.36081
1.35386
1.34659
1.33621
1.32401
1.30663
1.28389
1.25068
1.36052
1.35539
1.35127
1.34474
1.33791
1.32805
1.31665
1.30019
1.27896
1.24855
1.34848
1.34447
1.34118
1.3355
1.32936
1.32026
1.3097
1.29422
1.2745
1.24692
1.33968
1.33642
1.33368
1.32868
1.32312
1.31462
1.30463
1.28989
1.27143
1.24629
1.33751
1.33366
1.33054
1.32571
1.32034
1.31205
1.30223
1.28795
1.27033
1.24688
1.33612
1.33293
1.33012
1.32557
1.32019
1.31188
1.30199
1.28793
1.27077
1.2487
1.33417
1.332
1.32978
1.32574
1.32056
1.31248
1.30268
1.28884
1.27217
1.25143
1.33153
1.33014
1.32848
1.32516
1.32054
1.31292
1.30345
1.29014
1.27413
1.25455
1.32856
1.32736
1.32603
1.32333
1.31942
1.31253
1.3037
1.29122
1.2761
1.25765
1.3266
1.32539
1.32409
1.32124
1.31746
1.31127
1.30329
1.29181
1.27773
1.26041
1.32972
1.32695
1.32429
1.32042
1.31619
1.31013
1.3027
1.29216
1.27912
1.26283
1.33542
1.33052
1.326
1.32125
1.31646
1.31011
1.30268
1.29265
1.28035
1.26493
1.33247
1.32913
1.32599
1.32176
1.31676
1.31026
1.30297
1.29346
1.28174
1.26702
1.00186
1.00603
1.01112
1.01708
1.02531
1.04659
1.07816
1.11283
1.27669
1.37572
1.00186
1.00603
1.01112
1.01708
1.02531
1.0466
1.07811
1.11281
1.27646
1.3729
1.00186
1.00603
1.01112
1.01708
1.02531
1.04662
1.07802
1.11275
1.27635
1.3682
1.00186
1.00603
1.01112
1.01708
1.02531
1.04665
1.07793
1.11265
1.27629
1.36277
1.00186
1.00603
1.01112
1.01708
1.02531
1.04668
1.07786
1.11246
1.27613
1.35763
1.00186
1.00603
1.01112
1.01708
1.0253
1.04671
1.07784
1.11218
1.27578
1.35285
1.00186
1.00603
1.01112
1.01708
1.0253
1.04673
1.07786
1.1118
1.27516
1.34842
1.00186
1.00603
1.01112
1.01708
1.02531
1.04674
1.0779
1.11131
1.2743
1.34465
1.00186
1.00603
1.01112
1.01707
1.02531
1.04674
1.07798
1.11073
1.27332
1.34232
1.00186
1.00603
1.01112
1.01707
1.02531
1.04673
1.07809
1.11005
1.27224
1.34183
1.00186
1.00603
1.01112
1.01707
1.02532
1.04672
1.07822
1.10923
1.27084
1.34209
1.00186
1.00603
1.01112
1.01707
1.02532
1.04671
1.07838
1.10834
1.26876
1.34167
1.00186
1.00603
1.01113
1.01707
1.02532
1.0467
1.07855
1.10729
1.26613
1.34024
1.00186
1.00603
1.01113
1.01707
1.02532
1.04668
1.07875
1.1062
1.26324
1.33773
1.00186
1.00603
1.01113
1.01707
1.02532
1.04667
1.07896
1.10505
1.26031
1.33456
1.00186
1.00603
1.01113
1.01707
1.02532
1.04665
1.0792
1.10384
1.25745
1.33147
1.00186
1.00603
1.01113
1.01707
1.02532
1.04664
1.07946
1.1026
1.25469
1.32859
1.00186
1.00603
1.01113
1.01707
1.02532
1.04662
1.07974
1.10133
1.25189
1.32462
1.00186
1.00603
1.01113
1.01707
1.02532
1.0466
1.08002
1.10005
1.24915
1.31934
1.00186
1.00603
1.01113
1.01707
1.02532
1.04658
1.08031
1.09883
1.2468
1.31465
1.00186
1.00603
1.01113
1.01707
1.02532
1.04658
1.08031
1.09883
1.2468
1.31465
1.00186
1.00603
1.01113
1.01707
1.02532
1.0466
1.08002
1.10005
1.24915
1.31934
1.00186
1.00603
1.01113
1.01707
1.02532
1.04662
1.07974
1.10133
1.25189
1.32463
1.00186
1.00603
1.01113
1.01707
1.02532
1.04664
1.07946
1.1026
1.25469
1.32859
1.00186
1.00603
1.01113
1.01707
1.02532
1.04665
1.0792
1.10384
1.25745
1.33147
1.00186
1.00603
1.01113
1.01707
1.02532
1.04667
1.07896
1.10505
1.26031
1.33456
1.00186
1.00603
1.01113
1.01707
1.02532
1.04668
1.07875
1.1062
1.26324
1.33773
1.00186
1.00603
1.01113
1.01707
1.02532
1.0467
1.07855
1.10729
1.26613
1.34024
1.00186
1.00603
1.01112
1.01707
1.02532
1.04671
1.07838
1.10834
1.26876
1.34167
1.00186
1.00603
1.01112
1.01707
1.02532
1.04672
1.07822
1.10923
1.27084
1.34209
1.00186
1.00603
1.01112
1.01707
1.02531
1.04673
1.07809
1.11005
1.27224
1.34183
1.00186
1.00603
1.01112
1.01707
1.02531
1.04674
1.07798
1.11073
1.27332
1.34232
1.00186
1.00603
1.01112
1.01708
1.02531
1.04674
1.0779
1.11131
1.2743
1.34465
1.00186
1.00603
1.01112
1.01708
1.0253
1.04673
1.07786
1.1118
1.27516
1.34842
1.00186
1.00603
1.01112
1.01708
1.0253
1.04671
1.07784
1.11218
1.27578
1.35285
1.00186
1.00603
1.01112
1.01708
1.02531
1.04668
1.07786
1.11246
1.27613
1.35763
1.00186
1.00603
1.01112
1.01708
1.02531
1.04665
1.07793
1.11265
1.27629
1.36277
1.00186
1.00603
1.01112
1.01708
1.02531
1.04662
1.07802
1.11275
1.27635
1.3682
1.00186
1.00603
1.01112
1.01708
1.02531
1.0466
1.07811
1.11281
1.27646
1.3729
1.00186
1.00603
1.01112
1.01708
1.02531
1.04659
1.07816
1.11283
1.27669
1.37572
1.33247
1.32913
1.32599
1.32176
1.31676
1.31026
1.30297
1.29346
1.28174
1.26702
1.33542
1.33052
1.326
1.32125
1.31646
1.31011
1.30268
1.29265
1.28035
1.26493
1.32972
1.32695
1.32428
1.32042
1.31619
1.31013
1.3027
1.29216
1.27912
1.26283
1.3266
1.32539
1.32409
1.32124
1.31746
1.31127
1.30329
1.29181
1.27773
1.26041
1.32856
1.32736
1.32603
1.32333
1.31942
1.31253
1.3037
1.29122
1.2761
1.25765
1.33153
1.33014
1.32848
1.32516
1.32054
1.31292
1.30345
1.29014
1.27413
1.25455
1.33417
1.332
1.32978
1.32574
1.32056
1.31248
1.30267
1.28884
1.27218
1.25143
1.33612
1.33293
1.33012
1.32557
1.32019
1.31188
1.30199
1.28793
1.27077
1.24871
1.33751
1.33366
1.33054
1.32571
1.32034
1.31205
1.30223
1.28795
1.27033
1.24688
1.33968
1.33642
1.33368
1.32868
1.32312
1.31462
1.30463
1.28989
1.27143
1.24629
1.34848
1.34447
1.34118
1.3355
1.32936
1.32026
1.3097
1.29422
1.27451
1.24693
1.36052
1.35539
1.35127
1.34474
1.33791
1.32805
1.31665
1.30019
1.27896
1.24855
1.37062
1.36505
1.36081
1.35386
1.34659
1.3362
1.32401
1.30663
1.28389
1.25069
1.37992
1.37377
1.3695
1.36224
1.35465
1.34388
1.33098
1.31282
1.28863
1.25265
1.39003
1.38291
1.37817
1.37024
1.36207
1.35091
1.33739
1.31872
1.29321
1.25475
1.40181
1.39335
1.38776
1.37878
1.36971
1.35812
1.34416
1.32522
1.29851
1.25857
1.41513
1.4042
1.39708
1.38729
1.37795
1.36649
1.35241
1.33335
1.30555
1.26514
1.43143
1.41687
1.4088
1.39867
1.3889
1.37763
1.3636
1.34458
1.31584
1.27647
1.44655
1.42769
1.4196
1.4098
1.39941
1.38741
1.37286
1.35368
1.3243
1.28865
1.47747
1.45877
1.44648
1.43358
1.41994
1.40585
1.39009
1.37131
1.34242
1.32487
1.2301
1.16833
1.10828
1.05568
1.01082
0.966306
0.939083
0.945994
1.02886
1.06244
1.22602
1.16144
1.09996
1.04696
1.00243
0.958798
0.937733
0.953381
1.0393
1.06486
1.22164
1.15408
1.09136
1.03816
0.993605
0.952232
0.93678
0.963174
1.04647
1.06662
1.21683
1.14634
1.08258
1.02953
0.98509
0.946152
0.936084
0.975289
1.0505
1.06827
1.21161
1.13841
1.07368
1.02128
0.976746
0.941246
0.937216
0.98872
1.05252
1.0693
1.20615
1.13047
1.06492
1.0136
0.96834
0.937922
0.93931
1.00341
1.05473
1.06973
1.20077
1.12264
1.0564
1.00549
0.960592
0.935603
0.943752
1.01922
1.05792
1.06999
1.19568
1.11485
1.04768
0.997345
0.954341
0.934748
0.952041
1.03444
1.06158
1.07079
1.19105
1.10671
1.03855
0.989447
0.948609
0.934589
0.963428
1.04622
1.06479
1.07241
1.18667
1.09772
1.02943
0.981265
0.943387
0.935908
0.975702
1.05369
1.06745
1.07454
1.18202
1.08773
1.01972
0.971271
0.939194
0.938875
0.987809
1.0587
1.06974
1.07645
1.176
1.07647
1.00794
0.961222
0.937074
0.942077
1.00137
1.06397
1.07255
1.07816
1.16781
1.0629
0.994628
0.953072
0.934901
0.946823
1.01747
1.07108
1.07615
1.08058
1.15683
1.04794
0.982534
0.943911
0.932814
0.954497
1.03459
1.07843
1.08017
1.08324
1.14396
1.03343
0.972529
0.932947
0.931648
0.964551
1.04804
1.08339
1.08341
1.08588
1.13151
1.0218
0.966774
0.926469
0.931201
0.974491
1.05605
1.08563
1.08485
1.08749
1.12216
1.01572
0.967058
0.926714
0.933473
0.98353
1.06017
1.08595
1.08634
1.08825
1.11929
1.01822
0.973815
0.930296
0.940351
0.994286
1.06315
1.08658
1.08896
1.09002
1.12824
1.04285
0.991072
0.939339
0.95662
1.00952
1.06903
1.08998
1.09307
1.09308
1.16976
1.10011
1.02248
0.957784
0.976391
1.02609
1.07733
1.09395
1.09698
1.09812
1.27314
1.25527
1.22304
1.18227
1.1363
1.08826
1.04147
0.99495
0.92081
0.873366
1.27295
1.25483
1.22289
1.1818
1.13561
1.08754
1.04076
0.993851
0.920309
0.87439
1.27247
1.25413
1.22271
1.18088
1.13446
1.08631
1.03949
0.991968
0.919446
0.875427
1.27163
1.25302
1.22195
1.17969
1.13294
1.08462
1.03771
0.989384
0.918364
0.877366
1.27039
1.25163
1.22084
1.17829
1.13101
1.08245
1.03542
0.986196
0.917311
0.880528
1.26895
1.24996
1.21939
1.17657
1.12868
1.07985
1.03265
0.982456
0.916467
0.885358
1.26751
1.24811
1.21747
1.17442
1.12594
1.07683
1.02944
0.978407
0.915738
0.892695
1.26646
1.24603
1.21477
1.1714
1.12254
1.07337
1.0258
0.974111
0.914869
0.902934
1.26606
1.24329
1.2105
1.16692
1.11822
1.06938
1.02168
0.969611
0.914303
0.914757
1.26585
1.23923
1.20405
1.16045
1.11263
1.06463
1.01705
0.965118
0.914986
0.926999
1.26487
1.23335
1.19557
1.15214
1.10577
1.05917
1.01183
0.960827
0.91537
0.940952
1.26229
1.22648
1.18633
1.143
1.098
1.05295
1.00595
0.956841
0.916028
0.955048
1.25855
1.21996
1.17788
1.13419
1.09
1.0461
0.999365
0.953254
0.916132
0.969096
1.25534
1.21488
1.17141
1.12661
1.08223
1.03892
0.992087
0.949757
0.918075
0.983334
1.25355
1.21117
1.16614
1.11993
1.07482
1.0313
0.984123
0.946536
0.922493
0.997515
1.25254
1.20778
1.1609
1.11322
1.06738
1.02317
0.97553
0.943473
0.929839
1.01127
1.25101
1.2035
1.15435
1.10552
1.05915
1.01404
0.966508
0.940791
0.941356
1.02417
1.24791
1.19723
1.14557
1.09562
1.04941
1.0035
0.957179
0.940032
0.958041
1.03597
1.24272
1.18859
1.13404
1.08312
1.03734
0.9911
0.949114
0.939181
0.981156
1.0468
1.23583
1.17765
1.12003
1.06801
1.02302
0.977028
0.942548
0.94026
1.00849
1.05649
1.23584
1.17764
1.12003
1.06802
1.02301
0.976995
0.942537
0.940289
1.00876
1.05637
1.24272
1.18859
1.13404
1.08313
1.03734
0.99109
0.949098
0.939173
0.981224
1.04669
1.24791
1.19723
1.14558
1.09562
1.04941
1.0035
0.95717
0.940019
0.958022
1.03593
1.25101
1.20351
1.15435
1.10552
1.05915
1.01404
0.966493
0.94078
0.941343
1.02415
1.25254
1.20779
1.1609
1.11323
1.06738
1.02317
0.975522
0.94346
0.929827
1.01128
1.25356
1.21117
1.16614
1.11994
1.07482
1.0313
0.984124
0.946529
0.92248
0.997533
1.25534
1.21488
1.17141
1.12661
1.08223
1.03892
0.992088
0.949751
0.918065
0.983343
1.25855
1.21997
1.17788
1.13419
1.09
1.0461
0.999369
0.953255
0.916127
0.969088
1.26229
1.22649
1.18633
1.143
1.09801
1.05295
1.00595
0.956846
0.916034
0.955033
1.26487
1.23335
1.19557
1.15215
1.10577
1.05918
1.01183
0.960831
0.91537
0.940942
1.26585
1.23924
1.20405
1.16045
1.11263
1.06463
1.01706
0.965126
0.914988
0.926991
1.26606
1.24329
1.2105
1.16693
1.11823
1.06938
1.02168
0.969618
0.914306
0.914751
1.26646
1.24603
1.21477
1.17141
1.12254
1.07338
1.0258
0.974117
0.914873
0.902927
1.26751
1.24811
1.21747
1.17442
1.12594
1.07684
1.02944
0.978413
0.915741
0.892689
1.26895
1.24996
1.21939
1.17658
1.12868
1.07985
1.03266
0.982461
0.916467
0.885354
1.27039
1.25163
1.22084
1.17829
1.13101
1.08245
1.03543
0.9862
0.917312
0.880525
1.27163
1.25302
1.22195
1.17969
1.13294
1.08462
1.03771
0.989388
0.918367
0.877363
1.27247
1.25413
1.22271
1.18088
1.13446
1.08631
1.03949
0.991972
0.919452
0.875422
1.27295
1.25483
1.22289
1.1818
1.13562
1.08754
1.04076
0.993854
0.920317
0.874384
1.27314
1.25527
1.22304
1.18227
1.1363
1.08826
1.04147
0.994953
0.920819
0.873362
1.32265
1.32101
1.3201
1.31786
1.31459
1.30958
1.30322
1.29449
1.28369
1.27006
1.3092
1.30916
1.30994
1.30971
1.3088
1.3062
1.30172
1.29471
1.28557
1.27386
1.30302
1.30137
1.30189
1.30247
1.30242
1.30133
1.29869
1.29374
1.28633
1.27644
1.30159
1.29906
1.2991
1.29949
1.2995
1.29862
1.29649
1.29259
1.28632
1.27757
1.3015
1.29912
1.29949
1.30042
1.30044
1.29953
1.29724
1.29308
1.28656
1.27773
1.30121
1.29952
1.30093
1.30277
1.30291
1.30213
1.29966
1.29491
1.28761
1.27816
1.30015
1.29907
1.30119
1.30363
1.30411
1.30349
1.30113
1.29633
1.2889
1.27922
1.29795
1.29677
1.29881
1.30142
1.30232
1.30196
1.30018
1.29615
1.2896
1.28091
1.29486
1.29268
1.2939
1.29593
1.2973
1.2972
1.29626
1.2937
1.28879
1.28178
1.29138
1.28821
1.28827
1.28927
1.2907
1.29066
1.29006
1.28851
1.28544
1.28049
1.2884
1.28503
1.28476
1.28543
1.28641
1.2862
1.28538
1.28386
1.28144
1.27792
1.28631
1.2835
1.28369
1.28473
1.28522
1.28482
1.28382
1.28198
1.27926
1.27592
1.28522
1.28354
1.28447
1.28568
1.28585
1.2854
1.2841
1.28188
1.27892
1.27545
1.28565
1.28598
1.28781
1.28819
1.28784
1.28672
1.28484
1.28238
1.27935
1.27595
1.29189
1.29137
1.29165
1.29107
1.2899
1.28821
1.28602
1.28344
1.28033
1.277
1.29638
1.29494
1.29428
1.29308
1.29154
1.2896
1.28728
1.28464
1.28149
1.27822
1.29862
1.29689
1.29592
1.29447
1.29277
1.29074
1.28838
1.28571
1.28257
1.27936
1.29999
1.29811
1.297
1.29543
1.29364
1.29155
1.28918
1.2865
1.28338
1.28018
1.30082
1.29885
1.29764
1.29597
1.29413
1.292
1.28962
1.28694
1.28386
1.28067
1.30118
1.29917
1.29794
1.29622
1.29434
1.29217
1.2898
1.28711
1.28405
1.28092
1.00186
1.00603
1.01113
1.01707
1.02532
1.04654
1.0807
1.09742
1.24428
1.31041
1.00186
1.00603
1.01113
1.01707
1.02532
1.04651
1.08132
1.09602
1.24113
1.30811
1.00186
1.00603
1.01113
1.01707
1.02531
1.0465
1.0818
1.09504
1.23736
1.30776
1.00186
1.00603
1.01113
1.01707
1.02531
1.0465
1.08207
1.09442
1.23297
1.30764
1.00186
1.00603
1.01113
1.01707
1.0253
1.04649
1.08227
1.09404
1.22816
1.3079
1.00186
1.00603
1.01113
1.01707
1.0253
1.04646
1.08245
1.09383
1.22333
1.30789
1.00186
1.00603
1.01113
1.01707
1.0253
1.04644
1.0826
1.09372
1.21891
1.30697
1.00186
1.00603
1.01113
1.01707
1.0253
1.04643
1.08273
1.09364
1.21511
1.30489
1.00186
1.00603
1.01113
1.01707
1.0253
1.04642
1.08284
1.09357
1.21192
1.3019
1.00186
1.00603
1.01113
1.01707
1.02529
1.04641
1.08294
1.09351
1.20911
1.29849
1.00186
1.00603
1.01112
1.01708
1.02529
1.04639
1.08302
1.09346
1.20644
1.29539
1.00186
1.00603
1.01112
1.01708
1.02529
1.04637
1.08309
1.09343
1.20385
1.29292
1.00186
1.00603
1.01112
1.01708
1.02529
1.04635
1.08316
1.09341
1.20139
1.29086
1.00186
1.00603
1.01112
1.01708
1.02529
1.04632
1.08322
1.09341
1.1991
1.28874
1.00186
1.00603
1.01112
1.01708
1.02529
1.0463
1.08327
1.09341
1.19699
1.28638
1.00186
1.00603
1.01112
1.01708
1.02529
1.04627
1.08331
1.09341
1.19539
1.28465
1.00186
1.00603
1.01112
1.01708
1.0253
1.04624
1.08335
1.09342
1.19418
1.28341
1.00186
1.00603
1.01112
1.01708
1.0253
1.04622
1.08337
1.09343
1.19328
1.28255
1.00186
1.00603
1.01112
1.01708
1.0253
1.04621
1.08339
1.09343
1.19268
1.282
1.00186
1.00603
1.01112
1.01708
1.0253
1.0462
1.0834
1.09344
1.19239
1.28178
1.00186
1.00603
1.01112
1.01708
1.0253
1.0462
1.0834
1.09344
1.19239
1.28178
1.00186
1.00603
1.01112
1.01708
1.0253
1.04621
1.08339
1.09343
1.19268
1.282
1.00186
1.00603
1.01112
1.01708
1.0253
1.04622
1.08337
1.09343
1.19328
1.28255
1.00186
1.00603
1.01112
1.01708
1.0253
1.04624
1.08335
1.09342
1.19418
1.28341
1.00186
1.00603
1.01112
1.01708
1.02529
1.04627
1.08331
1.09341
1.19539
1.28465
1.00186
1.00603
1.01112
1.01708
1.02529
1.0463
1.08327
1.09341
1.19699
1.28638
1.00186
1.00603
1.01112
1.01708
1.02529
1.04632
1.08322
1.09341
1.1991
1.28874
1.00186
1.00603
1.01112
1.01708
1.02529
1.04635
1.08316
1.09341
1.20139
1.29086
1.00186
1.00603
1.01112
1.01708
1.02529
1.04637
1.08309
1.09343
1.20385
1.29292
1.00186
1.00603
1.01112
1.01708
1.02529
1.04639
1.08302
1.09346
1.20644
1.29539
1.00186
1.00603
1.01113
1.01707
1.02529
1.04641
1.08294
1.09351
1.20911
1.29849
1.00186
1.00603
1.01113
1.01707
1.0253
1.04642
1.08284
1.09357
1.21192
1.3019
1.00186
1.00603
1.01113
1.01707
1.0253
1.04643
1.08273
1.09364
1.21511
1.30489
1.00186
1.00603
1.01113
1.01707
1.0253
1.04644
1.0826
1.09372
1.21891
1.30697
1.00186
1.00603
1.01113
1.01707
1.0253
1.04646
1.08245
1.09383
1.22333
1.30789
1.00186
1.00603
1.01113
1.01707
1.0253
1.04649
1.08227
1.09404
1.22816
1.3079
1.00186
1.00603
1.01113
1.01707
1.02531
1.0465
1.08207
1.09442
1.23297
1.30764
1.00186
1.00603
1.01113
1.01707
1.02531
1.0465
1.0818
1.09504
1.23736
1.30776
1.00186
1.00603
1.01113
1.01707
1.02532
1.04651
1.08132
1.09602
1.24113
1.30811
1.00186
1.00603
1.01113
1.01707
1.02532
1.04654
1.0807
1.09742
1.24428
1.31041
1.30118
1.29917
1.29794
1.29622
1.29434
1.29217
1.2898
1.28711
1.28405
1.28092
1.30082
1.29885
1.29764
1.29597
1.29413
1.292
1.28962
1.28694
1.28386
1.28067
1.29999
1.29811
1.297
1.29543
1.29364
1.29155
1.28918
1.2865
1.28338
1.28018
1.29862
1.29689
1.29592
1.29447
1.29277
1.29074
1.28838
1.28571
1.28257
1.27936
1.29638
1.29494
1.29428
1.29308
1.29154
1.2896
1.28728
1.28464
1.28149
1.27822
1.29189
1.29137
1.29165
1.29107
1.2899
1.28821
1.28602
1.28344
1.28033
1.277
1.28565
1.28598
1.28781
1.28819
1.28784
1.28672
1.28484
1.28238
1.27935
1.27595
1.28522
1.28354
1.28447
1.28568
1.28585
1.2854
1.2841
1.28188
1.27892
1.27545
1.28631
1.2835
1.28369
1.28473
1.28522
1.28482
1.28382
1.28198
1.27926
1.27592
1.2884
1.28503
1.28476
1.28543
1.28641
1.2862
1.28538
1.28386
1.28144
1.27792
1.29138
1.28821
1.28826
1.28927
1.2907
1.29066
1.29006
1.28851
1.28544
1.28049
1.29486
1.29268
1.2939
1.29593
1.2973
1.2972
1.29626
1.2937
1.28878
1.28178
1.29795
1.29677
1.29881
1.30142
1.30232
1.30197
1.30018
1.29615
1.2896
1.2809
1.30015
1.29907
1.3012
1.30363
1.30411
1.30349
1.30113
1.29632
1.2889
1.27921
1.30121
1.29953
1.30093
1.30278
1.30291
1.30214
1.29966
1.29491
1.28761
1.27816
1.3015
1.29912
1.2995
1.30042
1.30044
1.29953
1.29724
1.29308
1.28656
1.27773
1.30159
1.29906
1.2991
1.29949
1.2995
1.29863
1.29649
1.29259
1.28632
1.27757
1.30302
1.30137
1.3019
1.30248
1.30243
1.30133
1.29869
1.29374
1.28633
1.27644
1.3092
1.30917
1.30994
1.30971
1.30881
1.3062
1.30172
1.29471
1.28557
1.27386
1.32265
1.32101
1.3201
1.31786
1.31459
1.30958
1.30322
1.29449
1.28369
1.27006
)
;

boundaryField
{
    inlet
    {
        type            fixedValue;
        value           uniform 1;
    }
    outlet
    {
        type            inletOutlet;
        inletValue      uniform 1;
        value           nonuniform List<scalar> 
100
(
1.05635
1.04665
1.0359
1.02414
1.0113
0.997587
0.983418
0.969173
0.955111
0.940995
0.926985
0.914679
0.902848
0.89261
0.885287
0.880479
0.877339
0.875419
0.874402
0.873378
1.09874
1.09459
1.091
1.08839
1.0865
1.08544
1.08387
1.08115
1.07836
1.07604
1.07434
1.0726
1.07099
1.07005
1.06965
1.06913
1.0681
1.0666
1.06495
1.06244
1.10395
1.10956
1.11924
1.145
1.18218
1.2204
1.25543
1.27356
1.27868
1.28436
1.28714
1.28759
1.27514
1.25142
1.21659
1.17888
1.14959
1.12285
1.10671
1.10146
1.06247
1.06485
1.06656
1.06821
1.06932
1.06981
1.07007
1.07079
1.07239
1.07457
1.07663
1.07826
1.08056
1.08315
1.08582
1.08766
1.0884
1.08996
1.09287
1.09795
0.873382
0.874407
0.875423
0.877342
0.880482
0.885291
0.892616
0.902855
0.914685
0.926994
0.941005
0.955126
0.969182
0.98341
0.997568
1.0113
1.02416
1.03594
1.04676
1.05648
)
;
    }
    triangle
    {
        type            zeroGradient;
    }
    top
    {
        type            symmetryPlane;
    }
    bottom
    {
        type            symmetryPlane;
    }
    defaultFaces
    {
        type            empty;
    }
}


// ************************************************************************* //
