/*--------------------------------*- C++ -*----------------------------------*\
  =========                 |
  \\      /  F ield         | OpenFOAM: The Open Source CFD Toolbox
   \\    /   O peration     | Website:  https://openfoam.org
    \\  /    A nd           | Version:  7
     \\/     M anipulation  |
\*---------------------------------------------------------------------------*/
FoamFile
{
    version     2.0;
    format      ascii;
    class       volVectorField;
    location    "0.2";
    object      U;
}
// * * * * * * * * * * * * * * * * * * * * * * * * * * * * * * * * * * * * * //

dimensions      [0 1 -1 0 0 0 0];

internalField   nonuniform List<vector> 
3225
(
(1.1 5.61977e-16 0)
(1.1 6.01765e-16 0)
(1.1 6.36156e-16 0)
(1.1 9.23826e-16 0)
(1.1 8.4523e-16 0)
(1.1 7.98279e-16 0)
(1.1 9.04901e-16 0)
(1.1 2.73151e-16 0)
(1.1 4.13416e-16 0)
(1.1 2.69256e-16 0)
(1.1 3.3496e-16 0)
(1.1 6.06117e-17 0)
(1.1 -9.15753e-17 0)
(1.1 1.16886e-16 0)
(1.1 1.66477e-16 0)
(1.1 -2.88429e-16 0)
(1.1 -3.57969e-16 0)
(1.1 -3.42117e-16 0)
(1.1 -5.03463e-16 0)
(1.1 -6.09112e-16 0)
(1.1 -6.11123e-16 0)
(1.1 -4.24304e-16 0)
(1.1 -2.03979e-16 0)
(1.1 3.14675e-16 0)
(1.1 2.46975e-16 0)
(1.1 7.81213e-16 0)
(1.1 3.61591e-16 0)
(1.1 3.74222e-16 0)
(1.1 9.18542e-16 0)
(1.1 7.14064e-16 0)
(1.1 7.37546e-16 0)
(1.1 6.13743e-16 0)
(1.1 9.39007e-16 0)
(1.1 8.73755e-16 0)
(1.1 4.03521e-16 0)
(1.1 7.19477e-16 0)
(1.1 3.87924e-16 0)
(1.1 7.67468e-16 0)
(1.1 2.16532e-16 0)
(1.1 3.1946e-16 0)
(1.1 6.27251e-16 0)
(1.1 5.80862e-16 0)
(1.1 -9.4856e-17 0)
(1.1 -1.4823e-16 0)
(1.1 -3.8597e-16 0)
(1.1 -2.95203e-16 0)
(1.1 -6.00853e-16 0)
(1.1 -7.03221e-16 0)
(1.1 -4.32227e-16 0)
(1.1 -2.71711e-16 0)
(1.1 -8.27283e-17 0)
(1.1 -1.73797e-16 0)
(1.1 4.92752e-16 0)
(1.1 2.43453e-16 0)
(1.1 7.60591e-16 0)
(1.1 4.97367e-16 0)
(1.1 4.68188e-16 0)
(1.1 2.01995e-16 0)
(1.1 1.89017e-16 0)
(1.1 7.36189e-16 0)
(1.1 9.96185e-16 0)
(1.1 8.39979e-16 0)
(1.1 4.51691e-16 0)
(1.1 4.83239e-16 0)
(1.1 4.6291e-16 0)
(1.1 4.16266e-16 0)
(1.1 7.26296e-16 0)
(1.1 9.29074e-16 0)
(1.1 7.03126e-16 0)
(1.1 8.62184e-17 0)
(1.1 -5.62589e-16 0)
(1.1 -3.47448e-16 0)
(1.1 -3.13402e-16 0)
(1.1 -4.14218e-16 0)
(1.1 -5.50181e-16 0)
(1.1 -3.14785e-16 0)
(1.1 -4.27347e-16 0)
(1.1 -8.17555e-16 0)
(1.1 -1.96117e-16 0)
(1.1 -1.42509e-16 0)
(1.1 8.92807e-17 0)
(1.1 1.13162e-15 0)
(1.1 6.49372e-16 0)
(1.1 6.83406e-16 0)
(1.1 7.06711e-16 0)
(1.1 8.87053e-16 0)
(1.1 8.91932e-16 0)
(1.1 1.35415e-15 0)
(1.1 1.13478e-15 0)
(1.1 8.74915e-16 0)
(1.1 6.78393e-16 0)
(1.1 6.0579e-16 0)
(1.1 5.06318e-16 0)
(1.1 6.01606e-16 0)
(1.1 6.0937e-16 0)
(1.1 4.71603e-16 0)
(1.1 2.90069e-16 0)
(1.1 -1.23358e-16 0)
(1.1 -3.98739e-17 0)
(1.1 -2.44659e-16 0)
(1.1 -3.67359e-16 0)
(1.1 -4.25141e-16 0)
(1.1 -1.06826e-15 0)
(1.1 -7.88008e-16 0)
(1.1 -2.82205e-16 0)
(1.1 3.14521e-16 0)
(1.1 -2.75194e-16 0)
(1.1 -7.1798e-16 0)
(1.1 1.53789e-15 0)
(1.1 1.32691e-15 0)
(1.1 1.47349e-15 0)
(1.1 1.36489e-15 0)
(1.1 1.36597e-15 0)
(1.1 1.28633e-15 0)
(1.1 1.13089e-15 0)
(1.1 5.12689e-16 0)
(1.1 5.68442e-16 0)
(1.1 2.29022e-16 0)
(1.1 1.27452e-16 0)
(1.1 1.11646e-16 0)
(1.1 6.47722e-16 0)
(1.1 4.31755e-16 0)
(1.1 5.24225e-16 0)
(1.1 5.6101e-16 0)
(1.1 5.2872e-16 0)
(1.1 3.56736e-19 0)
(1.1 -4.95887e-17 0)
(1.1 1.26616e-16 0)
(1.1 -1.42483e-16 0)
(1.1 -1.0997e-15 0)
(1.1 -7.73305e-16 0)
(1.1 -1.61184e-16 0)
(1.1 -2.92893e-16 0)
(1.1 -8.86619e-16 0)
(1.1 -1.74278e-15 0)
(1.1 1.12683e-15 0)
(1.1 1.39881e-15 0)
(1.1 1.33304e-15 0)
(1.1 1.29279e-15 0)
(1.1 9.55506e-16 0)
(1.1 4.82048e-16 0)
(1.1 1.04899e-16 0)
(1.1 1.41199e-16 0)
(1.1 -1.07981e-16 0)
(1.1 6.47946e-17 0)
(1.1 -1.63269e-16 0)
(1.1 7.04648e-17 0)
(1.1 4.08435e-16 0)
(1.1 8.0797e-16 0)
(1.1 2.59589e-16 0)
(1.1 3.62676e-16 0)
(1.1 1.17306e-16 0)
(1.1 5.38564e-17 0)
(1.1 1.21697e-16 0)
(1.1 1.27352e-16 0)
(1.1 5.13542e-16 0)
(1.1 5.09432e-16 0)
(1.1 -2.74649e-16 0)
(1.1 -4.52452e-16 0)
(1.1 -8.74855e-16 0)
(1.1 -6.11486e-16 0)
(1.1 -6.28805e-16 0)
(1.1 5.55198e-16 0)
(1.1 1.03989e-15 0)
(1.1 8.23247e-16 0)
(1.1 8.19669e-16 0)
(1.1 5.16704e-16 0)
(1.1 -5.22036e-16 0)
(1.1 -6.08304e-16 0)
(1.1 -2.93937e-16 0)
(1.1 -5.41826e-16 0)
(1.1 -3.46135e-16 0)
(1.1 -5.71173e-16 0)
(1.1 -1.22338e-16 0)
(1.1 -6.60014e-18 0)
(1.1 8.7082e-16 0)
(1.1 7.66755e-16 0)
(1.1 8.15257e-16 0)
(1.1 -6.73847e-17 0)
(1.1 7.53105e-17 0)
(1.1 1.49786e-16 0)
(1.1 2.20163e-16 0)
(1.1 6.41517e-16 0)
(1.1 8.73519e-16 0)
(1.1 5.92423e-16 0)
(1.1 3.20632e-16 0)
(1.1 -1.76144e-16 0)
(1.1 -2.64995e-16 0)
(1.1 8.93139e-17 0)
(1.1 6.63502e-16 0)
(1.1 4.95484e-16 0)
(1.1 5.1169e-16 0)
(1.1 2.31125e-16 0)
(1.1 2.63497e-16 0)
(1.1 2.53876e-16 0)
(1.1 2.84717e-18 0)
(1.1 -6.08873e-16 0)
(1.1 -6.12177e-16 0)
(1.1 -6.98257e-16 0)
(1.1 -2.80707e-16 0)
(1.1 1.5527e-16 0)
(1.1 1.62391e-16 0)
(1.1 3.61465e-16 0)
(1.1 8.97633e-16 0)
(1.1 5.92018e-16 0)
(1.1 8.31371e-16 0)
(1.1 -1.02032e-16 0)
(1.1 -9.39786e-17 0)
(1.1 2.85471e-16 0)
(1.1 4.72303e-16 0)
(1.1 1.02648e-15 0)
(1.1 7.72773e-16 0)
(1.1 4.92553e-16 0)
(1.1 2.54275e-16 0)
(1.1 2.51377e-16 0)
(1.1 -1.29256e-16 0)
(1.1 5.15702e-16 0)
(1.1 1.26446e-16 0)
(1.1 4.97758e-17 0)
(1.1 -2.73241e-16 0)
(1.1 -3.7498e-16 0)
(1.1 1.16871e-16 0)
(1.1 -1.66257e-16 0)
(1.1 -2.04418e-16 0)
(1.1 -4.66913e-16 0)
(1.1 -5.52156e-16 0)
(1.1 -4.11448e-16 0)
(1.1 -1.25928e-17 0)
(1.1 -3.79821e-16 0)
(1.1 -7.19932e-16 0)
(1.1 -5.92584e-17 0)
(1.1 6.40551e-16 0)
(1.1 1.16033e-15 0)
(1.1 9.38059e-16 0)
(1.1 5.31017e-16 0)
(1.1 6.64495e-16 0)
(1.1 9.60213e-16 0)
(1.1 1.34352e-15 0)
(1.1 4.30563e-16 0)
(1.1 5.10567e-16 0)
(1.1 4.36542e-16 0)
(1.1 4.37786e-16 0)
(1.1 -3.10356e-17 0)
(1.1 -1.31227e-16 0)
(1.1 -6.83253e-17 0)
(1.1 -2.24856e-16 0)
(1.1 -8.03464e-17 0)
(1.1 -4.05276e-16 0)
(1.1 -1.32178e-16 0)
(1.1 -4.47004e-16 0)
(1.1 -7.14497e-17 0)
(1.1 -3.19119e-16 0)
(1.1 9.83551e-17 0)
(1.1 -9.17769e-17 0)
(1.1 3.2244e-17 0)
(1.1 1.80617e-16 0)
(1.1 -3.09107e-16 0)
(1.1 4.2239e-17 0)
(1.1 5.87403e-16 0)
(1.1 8.94744e-16 0)
(1.1 1.6106e-15 0)
(1.1 1.4407e-15 0)
(1.1 8.47215e-16 0)
(1.1 8.71098e-16 0)
(1.1 6.67471e-16 0)
(1.1 2.53121e-16 0)
(1.1 1.37546e-16 0)
(1.1 3.02231e-16 0)
(1.1 5.34035e-16 0)
(1.1 1.96306e-16 0)
(1.1 -5.61871e-16 0)
(1.1 -2.62086e-16 0)
(1.1 -4.03188e-16 0)
(1.1 -2.02434e-16 0)
(1.1 -1.35659e-16 0)
(1.1 -1.21427e-16 0)
(1.1 2.83404e-17 0)
(1.1 -5.09955e-17 0)
(1.1 2.96808e-16 0)
(1.1 1.44011e-17 0)
(1.1 3.39985e-16 0)
(1.1 -1.95604e-16 0)
(1.1 -7.28959e-17 0)
(1.1 4.45176e-16 0)
(1.1 8.63575e-16 0)
(1.1 6.02364e-16 0)
(1.1 7.38965e-16 0)
(1.1 1.07376e-15 0)
(1.1 1.33084e-15 0)
(1.1 1.45474e-15 0)
(1.1 7.13151e-16 0)
(1.1 1.15702e-17 0)
(1.1 3.36375e-16 0)
(1.1 -5.70059e-17 0)
(1.1 -8.19515e-17 0)
(1.1 3.83246e-16 0)
(1.1 3.71109e-16 0)
(1.1 -6.52376e-16 0)
(1.1 -6.66638e-16 0)
(1.1 -7.68498e-16 0)
(1.1 -5.39743e-16 0)
(1.1 -4.76337e-16 0)
(1.1 -6.05344e-16 0)
(1.1 6.68085e-17 0)
(1.1 4.27429e-17 0)
(1.1 5.37937e-17 0)
(1.1 3.71841e-16 0)
(1.1 5.2093e-16 0)
(1.1 3.68398e-16 0)
(1.1 5.47131e-16 0)
(1.1 8.71136e-16 0)
(1.1 7.26245e-16 0)
(1.1 8.00712e-16 0)
(1.1 9.23885e-17 0)
(1.1 2.00329e-16 0)
(1.1 6.50397e-16 0)
(1.1 6.59456e-16 0)
(1.1 5.73799e-16 0)
(1.1 5.68298e-16 0)
(1.1 7.49292e-16 0)
(1.1 4.63579e-17 0)
(1.1 -4.99511e-16 0)
(1.1 -7.56432e-17 0)
(1.1 -6.60875e-17 0)
(1.1 -9.38322e-16 0)
(1.1 -8.02567e-16 0)
(1.1 -4.09108e-16 0)
(1.1 -4.05519e-16 0)
(1.1 -4.73095e-16 0)
(1.1 -7.3505e-16 0)
(1.1 -6.18499e-16 0)
(1.1 -4.37507e-16 0)
(1.1 -1.46771e-17 0)
(1.1 7.87424e-16 0)
(1.1 9.24204e-16 0)
(1.1 1.05247e-15 0)
(1.1 9.58558e-16 0)
(1.1 5.48361e-16 0)
(1.1 5.79677e-16 0)
(1.1 7.0674e-16 0)
(1.1 7.73847e-16 0)
(1.1 2.6151e-16 0)
(1.1 5.72281e-16 0)
(1.1 1.27244e-16 0)
(1.1 2.68265e-16 0)
(1.1 4.16474e-16 0)
(1.1 5.50088e-16 0)
(1.1 1.80965e-16 0)
(1.1 -1.62947e-16 0)
(1.1 -8.8912e-16 0)
(1.1 -7.76175e-16 0)
(1.1 -5.17363e-16 0)
(1.1 -5.41222e-16 0)
(1.1 -1.72389e-16 0)
(1.1 -2.43252e-16 0)
(1.1 -2.17889e-16 0)
(1.1 -3.58403e-16 0)
(1.1 -4.8385e-16 0)
(1.1 -2.35748e-16 0)
(1.1 6.0426e-16 0)
(1.1 9.52883e-16 0)
(1.1 7.57333e-16 0)
(1.1 1.02637e-15 0)
(1.1 7.79818e-16 0)
(1.1 6.974e-16 0)
(1.1 7.26541e-16 0)
(1.1 5.78162e-16 0)
(1.1 1.19326e-15 0)
(1.1 5.72798e-16 0)
(1.1 1.79027e-16 0)
(1.1 1.34382e-16 0)
(1.1 -1.20183e-16 0)
(1.1 3.91341e-16 0)
(1.1 2.20357e-16 0)
(1.1 2.44439e-16 0)
(1.1 -2.79616e-16 0)
(1.1 -9.66552e-16 0)
(1.1 -8.90603e-16 0)
(1.1 -9.67929e-16 0)
(1.1 -7.31747e-16 0)
(1.1 -1.06023e-15 0)
(1.1 -8.17743e-16 0)
(1.1 -7.8344e-16 0)
(1.1 -1.86567e-16 0)
(1.1 -1.60862e-16 0)
(1.1 6.00523e-16 0)
(1.1 7.53599e-16 0)
(1.1 8.27249e-16 0)
(1.1 5.84545e-16 0)
(1.1 1.21881e-15 0)
(1.1 1.07733e-15 0)
(1.1 1.15522e-15 0)
(1.1 1.07528e-15 0)
(1.1 8.69818e-16 0)
(1.1 1.05116e-15 0)
(1.1 7.8242e-16 0)
(1.1 9.62786e-17 0)
(1.1 -2.99812e-18 0)
(1.1 -2.29307e-17 0)
(1.1 5.73705e-16 0)
(1.1 7.19966e-17 0)
(1.1 -1.36833e-16 0)
(1.1 -4.09084e-16 0)
(1.1 -7.27379e-16 0)
(1.1 -7.87722e-16 0)
(1.1 -1.24171e-15 0)
(1.1 -4.36704e-16 0)
(1.1 -4.74329e-16 0)
(1.1 -8.63219e-16 0)
(1.1 -4.87693e-16 0)
(1.1 2.96156e-16 0)
(1.1 8.33774e-16 0)
(1.1 6.79339e-16 0)
(1.1 8.34744e-16 0)
(1.1 1.21873e-15 0)
(1.1 9.32662e-16 0)
(1.1 1.1757e-15 0)
(1.1 1.01504e-15 0)
(1.1 8.34365e-16 0)
(1.1 1.03696e-15 0)
(1.1 1.10192e-15 0)
(1.1 6.24173e-16 0)
(1.1 7.92361e-16 0)
(1.1 4.73004e-16 0)
(1.1 -9.3627e-18 0)
(1.1 1.36425e-16 0)
(1.1 4.46205e-17 0)
(1.1 -6.60308e-16 0)
(1.1 -6.26442e-16 0)
(1.1 -1.18573e-15 0)
(1.1 -1.30247e-15 0)
(1.1 -1.24397e-15 0)
(1.1 -8.03648e-16 0)
(1.1 -6.61559e-16 0)
(1.1 -2.47273e-16 0)
(1.1 -4.5583e-16 0)
(1.1 3.23112e-17 0)
(1.1 4.08365e-16 0)
(1.1 2.33627e-16 0)
(1.1 1.24998e-16 0)
(1.1 5.72239e-16 0)
(1.1 5.90456e-16 0)
(1.1 6.6793e-16 0)
(1.1 7.8186e-16 0)
(1.1 5.84735e-16 0)
(1.1 6.72913e-16 0)
(1.1 1.00522e-15 0)
(1.1 9.09297e-16 0)
(1.1 2.44092e-16 0)
(1.1 4.22293e-16 0)
(1.1 2.57745e-16 0)
(1.1 -6.07781e-17 0)
(1.1 2.11241e-16 0)
(1.1 -7.17256e-16 0)
(1.1 -6.25772e-16 0)
(1.1 -3.90551e-16 0)
(1.1 -4.45413e-16 0)
(1.1 -8.43945e-16 0)
(1.1 -1.08785e-15 0)
(1.1 -7.28916e-16 0)
(1.1 -8.02842e-16 0)
(1.1 -6.32363e-16 0)
(1.1 -3.20987e-16 0)
(1.1 2.67671e-16 0)
(1.1 5.40155e-16 0)
(1.1 2.70237e-17 0)
(1.1 -5.67622e-17 0)
(1.1 1.47341e-16 0)
(1.1 1.2526e-16 0)
(1.1 6.41599e-16 0)
(1.1 3.53311e-16 0)
(1.1 5.36034e-16 0)
(1.1 7.66077e-16 0)
(1.1 6.79075e-16 0)
(1.1 7.72382e-16 0)
(1.1 5.41952e-16 0)
(1.1 3.54215e-16 0)
(1.1 1.21482e-16 0)
(1.1 -1.99896e-16 0)
(1.1 -4.81416e-17 0)
(1.1 -6.15406e-16 0)
(1.1 -5.63049e-16 0)
(1.1 -5.62864e-16 0)
(1.1 -7.70171e-17 0)
(1.1 -4.84671e-16 0)
(1.1 -6.77476e-16 0)
(1.1 -1.21175e-15 0)
(1.1 -1.33434e-15 0)
(1.1 -1.06045e-15 0)
(1.1 -8.58791e-16 0)
(1.1 -4.547e-16 0)
(1.1 -2.37496e-16 0)
(1.1 -2.8844e-17 0)
(1.1 -4.39959e-18 0)
(1.1 7.62825e-17 0)
(1.1 3.24345e-16 0)
(1.1 1.01434e-15 0)
(1.1 2.71406e-16 0)
(1.1 3.41414e-16 0)
(1.1 1.32803e-16 0)
(1.1 9.86568e-17 0)
(1.1 1.83276e-16 0)
(1.1 2.20907e-16 0)
(1.1 2.721e-16 0)
(1.1 1.38625e-16 0)
(1.1 -3.77486e-17 0)
(1.1 8.72658e-17 0)
(1.1 -4.00978e-16 0)
(1.1 1.02894e-16 0)
(1.1 -9.4367e-17 0)
(1.1 -1.8029e-16 0)
(1.1 -7.3265e-16 0)
(1.1 -1.10124e-15 0)
(1.1 -1.8918e-15 0)
(1.1 -1.80064e-15 0)
(1.1 -1.6453e-15 0)
(1.1 -1.2136e-15 0)
(1.1 -9.69658e-16 0)
(1.1 -9.92666e-16 0)
(1.1 -3.70006e-16 0)
(1.1 -4.59943e-16 0)
(1.1 -3.51863e-16 0)
(1.1 -7.32407e-17 0)
(1.1 4.60602e-17 0)
(1.1 1.43969e-16 0)
(1.1 -1.1107e-16 0)
(1.1 -2.65922e-16 0)
(1.1 -1.66777e-16 0)
(1.1 -3.54222e-16 0)
(1.1 -2.72346e-16 0)
(1.1 -4.9436e-17 0)
(1.1 -2.24158e-16 0)
(1.1 -1.33376e-17 0)
(1.1 -3.94377e-16 0)
(1.1 -6.56317e-16 0)
(1.1 -1.76443e-16 0)
(1.1 5.96339e-17 0)
(1.1 -1.71516e-16 0)
(1.1 -2.871e-16 0)
(1.1 -4.6678e-16 0)
(1.1 -1.67139e-15 0)
(1.1 -1.41899e-15 0)
(1.1 -1.4057e-15 0)
(1.1 -1.67103e-15 0)
(1.1 -1.30246e-15 0)
(1.1 -1.21629e-15 0)
(1.1 -9.47041e-16 0)
(1.1 -3.68886e-16 0)
(1.1 -2.30701e-16 0)
(1.1 -3.94337e-16 0)
(1.1 -4.33034e-16 0)
(1.1 -4.25065e-16 0)
(1.1 -3.20747e-16 0)
(1.1 -2.48795e-16 0)
(1.1 -1.80664e-16 0)
(1.1 -6.19255e-17 0)
(1.1 -1.11328e-16 0)
(1.1 -3.87027e-16 0)
(1.1 -6.42075e-16 0)
(1.1 -2.48848e-16 0)
(1.1 -5.73165e-16 0)
(1.1 -5.18924e-16 0)
(1.1 -2.45599e-16 0)
(1.1 1.74943e-16 0)
(1.1 -5.15128e-17 0)
(1.1 5.59226e-16 0)
(1.1 6.98649e-16 0)
(1.1 -1.21256e-15 0)
(1.1 -1.09539e-15 0)
(1.1 -1.16164e-15 0)
(1.1 -1.27398e-15 0)
(1.1 -1.5204e-15 0)
(1.1 -1.44915e-15 0)
(1.1 -1.29219e-15 0)
(1.1 -7.55953e-16 0)
(1.1 -7.41336e-16 0)
(1.1 -8.56728e-16 0)
(1.1 -5.02166e-16 0)
(1.1 -4.84659e-16 0)
(1.1 -1.85501e-16 0)
(1.1 -1.64315e-16 0)
(1.1 -2.02225e-16 0)
(1.1 1.76356e-16 0)
(1.1 -8.57442e-17 0)
(1.1 8.14977e-17 0)
(1.1 2.43303e-16 0)
(1.1 5.10071e-17 0)
(1.1 -1.13128e-16 0)
(1.1 9.80523e-17 0)
(1.1 3.58384e-16 0)
(1.1 3.02303e-16 0)
(1.1 4.75168e-16 0)
(1.1 4.05231e-16 0)
(1.1 3.82453e-16 0)
(1.1 -9.26607e-16 0)
(1.1 -6.78688e-16 0)
(1.1 -8.16103e-16 0)
(1.1 -9.25036e-16 0)
(1.1 -1.31417e-15 0)
(1.1 -1.25661e-15 0)
(1.1 -9.11047e-16 0)
(1.1 -8.08385e-16 0)
(1.1 -1.14416e-15 0)
(1.1 -9.97936e-16 0)
(1.1 -8.73752e-16 0)
(1.1 -4.83257e-16 0)
(1.1 -3.46846e-16 0)
(1.1 -7.41387e-17 0)
(1.1 2.16325e-16 0)
(1.1 1.70183e-16 0)
(1.1 2.36617e-16 0)
(1.1 -9.23696e-17 0)
(1.1 3.85192e-16 0)
(1.1 4.10151e-16 0)
(1.1 3.28239e-16 0)
(1.1 8.45907e-16 0)
(1.1 4.08113e-16 0)
(1.1 5.10005e-16 0)
(1.1 2.70957e-16 0)
(1.1 -6.54237e-17 0)
(1.1 -4.16956e-16 0)
(1.1 -1.14039e-15 0)
(1.1 -9.7725e-16 0)
(1.1 -9.78548e-16 0)
(1.1 -5.92296e-16 0)
(1.1 -9.112e-16 0)
(1.1 -7.47916e-16 0)
(1.1 -8.6594e-16 0)
(1.1 -4.22685e-16 0)
(1.1 -7.61066e-16 0)
(1.1 -6.4877e-16 0)
(1.1 -1.07486e-15 0)
(1.1 -6.67553e-16 0)
(1.1 -4.12265e-16 0)
(1.1 -1.92488e-16 0)
(1.1 7.53453e-17 0)
(1.1 2.92557e-16 0)
(1.1 4.09047e-16 0)
(1.1 3.33053e-16 0)
(1.1 1.429e-16 0)
(1.1 8.04458e-16 0)
(1.1 1.31609e-15 0)
(1.1 1.05926e-15 0)
(1.1 4.34477e-16 0)
(1.1 2.94741e-16 0)
(1.1 -1.99709e-16 0)
(1.1 -4.85742e-16 0)
(1.1 -1.62549e-16 0)
(1.1 -1.06614e-15 0)
(1.1 -9.76821e-16 0)
(1.1 -7.71914e-16 0)
(1.1 -5.36139e-16 0)
(1.1 -1.44761e-16 0)
(1.1 -4.86427e-16 0)
(1.1 -1.10447e-15 0)
(1.1 -7.99593e-16 0)
(1.1 -3.34594e-16 0)
(1.1 1.13876e-16 0)
(1.1 -4.0264e-16 0)
(1.1 -4.94288e-16 0)
(1.1 9.03451e-18 0)
(1.1 1.17938e-16 0)
(1.1 2.02998e-16 0)
(1.1 8.59258e-16 0)
(1.1 1.02829e-15 0)
(1.1 8.53066e-16 0)
(1.1 6.61411e-16 0)
(1.1 5.16206e-16 0)
(1.1 8.0965e-16 0)
(1.1 4.81323e-16 0)
(1.1 6.86334e-16 0)
(1.1 1.02206e-16 0)
(1.1 2.33742e-17 0)
(1.1 -1.34259e-16 0)
(1.1 -3.49882e-16 0)
(1.1 -2.90472e-17 0)
(1.1 -3.57492e-16 0)
(1.1 1.04405e-16 0)
(1.1 4.90675e-16 0)
(1.1 8.71527e-16 0)
(1.1 5.66787e-16 0)
(1.1 4.76382e-16 0)
(1.1 2.29868e-16 0)
(1.1 4.12462e-16 0)
(1.1 1.75176e-16 0)
(1.1 7.72172e-16 0)
(1.1 1.81001e-16 0)
(1.1 -3.96365e-17 0)
(1.1 4.78524e-16 0)
(1.1 4.45684e-16 0)
(1.1 4.5313e-16 0)
(1.1 4.27357e-16 0)
(1.1 4.25919e-16 0)
(1.1 5.64083e-16 0)
(1.1 1.91128e-16 0)
(1.1 -4.1148e-16 0)
(1.1 -1.78818e-16 0)
(1.1 -3.10215e-16 0)
(1.1 -3.99148e-16 0)
(1.1 -1.50186e-16 0)
(1.1 -3.5517e-16 0)
(1.1 -5.15205e-16 0)
(1.1 3.07184e-18 0)
(1.1 2.61627e-16 0)
(1.1 4.68486e-16 0)
(1.1 1.3577e-15 0)
(1.1 9.96871e-16 0)
(1.1 1.04897e-15 0)
(1.1 1.04401e-15 0)
(1.1 7.4784e-16 0)
(1.1 4.51793e-16 0)
(1.1 3.84428e-16 0)
(1.1 6.45351e-16 0)
(1.1 6.21023e-16 0)
(1.1 6.74398e-16 0)
(1.1 2.33181e-16 0)
(1.1 7.74896e-17 0)
(1.1 1.6535e-17 0)
(1.1 1.26582e-16 0)
(1.1 3.58015e-16 0)
(1.1 1.5929e-16 0)
(1.1 -6.03853e-16 0)
(1.1 -1.1413e-15 0)
(1.1 -1.01926e-15 0)
(1.1 -1.30406e-15 0)
(1.1 -6.46774e-16 0)
(1.1 -1.18765e-15 0)
(1.1 -9.3992e-16 0)
(1.1 -4.23103e-16 0)
(1.1 5.37615e-17 0)
(1.1 1.2296e-16 0)
(1.1 5.53027e-16 0)
(1.1 7.45742e-16 0)
(1.1 7.50706e-16 0)
(1.1 6.42304e-16 0)
(1.1 8.06226e-16 0)
(1.1 1.0722e-15 0)
(1.1 5.47004e-16 0)
(1.1 7.98907e-16 0)
(1.1 7.54869e-16 0)
(1.1 9.84501e-16 0)
(1.1 1.06371e-15 0)
(1.1 6.832e-16 0)
(1.1 4.05543e-16 0)
(1.1 6.52399e-16 0)
(1.1 2.51795e-16 0)
(1.1 6.93087e-17 0)
(1.1 -2.75884e-16 0)
(1.1 -5.01392e-16 0)
(1.1 -4.78796e-16 0)
(1.1 -6.67643e-16 0)
(1.1 -6.40156e-16 0)
(1.1 -4.38685e-16 0)
(1.1 -8.1066e-16 0)
(1.1 -5.12209e-16 0)
(1.1 -9.62479e-17 0)
(1.1 4.33719e-16 0)
(1.1 5.81625e-16 0)
(1.1 4.64652e-16 0)
(1.1 2.35337e-16 0)
(1.1 8.04715e-16 0)
(1.1 6.61901e-16 0)
(1.1 1.04123e-15 0)
(1.1 9.83945e-16 0)
(1.1 6.74187e-16 0)
(1.1 4.97461e-16 0)
(1.1 3.82822e-16 0)
(1.1 7.52399e-16 0)
(1.1 4.54962e-16 0)
(1.1 6.15731e-16 0)
(1.1 2.76914e-16 0)
(1.1 7.12162e-16 0)
(1.1 3.71348e-16 0)
(1.1 -2.82946e-16 0)
(1.1 -3.98429e-16 0)
(1.1 -6.24326e-16 0)
(1.1 -3.735e-16 0)
(1.1 -1.33103e-16 0)
(1.1 4.63658e-17 0)
(1.1 1.71411e-16 0)
(1.1 -1.548e-17 0)
(1.1 1.50991e-16 0)
(1.1 -1.4955e-16 0)
(1.1 7.49894e-16 0)
(1.1 7.55835e-16 0)
(1.1 7.05687e-16 0)
(1.1 6.6686e-16 0)
(1.1 5.52356e-16 0)
(1.1 7.21245e-16 0)
(1.1 1.009e-15 0)
(1.1 4.33641e-16 0)
(1.1 5.22016e-16 0)
(1.1 1.36912e-16 0)
(1.1 5.24879e-16 0)
(1.1 2.00226e-16 0)
(1.1 1.91781e-16 0)
(1.1 7.08249e-16 0)
(1.1 3.75252e-16 0)
(1.1 4.70154e-16 0)
(1.1 -2.04935e-17 0)
(1.1 -2.14942e-16 0)
(1.1 -2.97778e-16 0)
(1.1 4.0053e-17 0)
(1.1 2.57044e-17 0)
(1.1 7.85634e-18 0)
(1.1 -1.91213e-16 0)
(1.1 -2.17472e-16 0)
(1.1 1.59161e-16 0)
(1.1 5.38279e-16 0)
(1.1 2.54565e-17 0)
(1.1 6.73066e-16 0)
(1.1 4.57435e-16 0)
(1.1 5.74719e-16 0)
(1.1 1.63747e-16 0)
(1.1 -4.01431e-16 0)
(1.1 8.69508e-17 0)
(1.1 4.91843e-16 0)
(1.1 4.28265e-16 0)
(1.1 -7.63331e-17 0)
(1.1 6.42336e-16 0)
(1.1 3.97453e-16 0)
(1.1 3.29817e-16 0)
(1.1 3.31599e-16 0)
(1.1 2.89648e-16 0)
(1.1 9.80069e-18 0)
(1.1 -7.11106e-16 0)
(1.1 -5.3822e-16 0)
(1.1 -7.46623e-16 0)
(1.1 -4.13795e-16 0)
(1.1 4.98591e-16 0)
(1.1 -5.38357e-17 0)
(1.1 2.18708e-16 0)
(1.1 -4.43966e-18 0)
(1.1 -4.59302e-17 0)
(1.1 -2.76952e-16 0)
(1.1 2.46526e-16 0)
(1.1 1.68975e-17 0)
(1.1 9.11735e-16 0)
(1.1 9.59067e-16 0)
(1.1 4.44228e-16 0)
(1.1 -1.85343e-16 0)
(1.1 -4.94906e-16 0)
(1.1 -3.83309e-16 0)
(1.1 -1.54862e-16 0)
(1.1 1.66356e-16 0)
(1.1 8.07691e-17 0)
(1.1 -2.99734e-16 0)
(1.1 -6.90929e-16 0)
(1.1 -7.73158e-16 0)
(1.1 -6.48729e-16 0)
(1.1 -6.64985e-16 0)
(1.1 -8.54887e-16 0)
(1.1 -1.34808e-15 0)
(1.1 -9.5411e-16 0)
(1.1 -7.72634e-16 0)
(1.1 -1.5936e-17 0)
(1.1 1.50241e-16 0)
(1.1 1.50772e-16 0)
(1.1 3.47401e-16 0)
(1.1 1.96552e-16 0)
(1.1 -4.55466e-16 0)
(1.1 -8.22575e-16 0)
(1.1 -8.79725e-16 0)
(1.1 -3.77713e-16 0)
(1.1 9.24096e-16 0)
(1.1 5.84487e-16 0)
(1.1 4.43732e-16 0)
(1.1 4.5095e-16 0)
(1.1 9.28322e-16 0)
(1.1 4.65107e-16 0)
(1.1 -1.34278e-16 0)
(1.1 -2.07709e-16 0)
(1.1 -1.33638e-16 0)
(1.1 -7.00991e-16 0)
(1.1 -9.31154e-16 0)
(1.1 -1.12588e-15 0)
(1.1 -9.32507e-16 0)
(1.1 -1.23582e-15 0)
(1.1 -1.52708e-15 0)
(1.1 -1.72137e-15 0)
(1.1 -1.57773e-15 0)
(1.1 -6.45676e-16 0)
(1.1 2.046e-16 0)
(1.1 1.80112e-16 0)
(1.1 5.44123e-16 0)
(1.1 -9.27294e-18 0)
(1.1 -1.19227e-16 0)
(1.1 -8.18807e-16 0)
(1.1 -7.91375e-16 0)
(1.1 -7.37953e-16 0)
(1.1 -3.30981e-16 0)
(1.1 4.50679e-16 0)
(1.1 2.85544e-16 0)
(1.1 3.76845e-16 0)
(1.1 8.64914e-16 0)
(1.1 1.00577e-15 0)
(1.1 1.04498e-15 0)
(1.1 4.93145e-16 0)
(1.1 1.82994e-16 0)
(1.1 2.95121e-16 0)
(1.1 5.27143e-17 0)
(1.1 -2.18811e-16 0)
(1.1 -1.25697e-16 0)
(1.1 -1.75451e-16 0)
(1.1 -4.59008e-16 0)
(1.1 -8.84194e-16 0)
(1.1 -1.25614e-15 0)
(1.1 -1.64972e-15 0)
(1.1 -1.47025e-15 0)
(1.1 -1.05947e-15 0)
(1.1 -4.30912e-16 0)
(1.1 4.21395e-16 0)
(1.1 8.77817e-17 0)
(1.1 7.83937e-18 0)
(1.1 -3.35793e-16 0)
(1.1 -1.293e-16 0)
(1.1 -2.12878e-16 0)
(1.1 -5.25396e-16 0)
(1.1 5.01141e-16 0)
(1.1 4.9489e-16 0)
(1.1 9.5745e-16 0)
(1.1 1.22264e-15 0)
(1.1 1.04316e-15 0)
(1.1 1.01483e-15 0)
(1.1 3.5267e-16 0)
(1.1 3.04824e-16 0)
(1.1 2.20274e-16 0)
(1.1 4.96831e-16 0)
(1.1 5.5964e-16 0)
(1.1 5.56477e-16 0)
(1.1 -1.24024e-16 0)
(1.1 -3.09788e-16 0)
(1.1 -3.63699e-16 0)
(1.1 -7.64734e-16 0)
(1.1 -1.01882e-15 0)
(1.1 -1.66406e-15 0)
(1.1 -1.59179e-15 0)
(1.1 -9.29735e-16 0)
(1.1 1.31059e-16 0)
(1.1 1.95296e-16 0)
(1.1 -4.68123e-17 0)
(1.1 -7.54692e-17 0)
(1.1 7.51186e-16 0)
(1.1 4.90033e-16 0)
(1.1 -3.82844e-16 0)
(1.1 5.80539e-16 0)
(1.1 6.30123e-16 0)
(1.1 8.80809e-16 0)
(1.1 9.15385e-16 0)
(1.1 8.57927e-16 0)
(1.1 2.82526e-16 0)
(1.1 3.09308e-16 0)
(1.1 5.02717e-16 0)
(1.1 3.99498e-16 0)
(1.1 6.62964e-16 0)
(1.1 6.49242e-16 0)
(1.1 1.6562e-16 0)
(1.1 -1.70017e-16 0)
(1.1 -4.60852e-16 0)
(1.1 -2.92671e-16 0)
(1.1 -6.44977e-16 0)
(1.1 -5.94162e-16 0)
(1.1 -1.32953e-15 0)
(1.1 -1.33106e-15 0)
(1.1 -9.85844e-16 0)
(1.1 -3.62992e-16 0)
(1.1 2.26474e-16 0)
(1.1 1.48864e-16 0)
(1.1 1.92841e-16 0)
(1.1 7.27394e-16 0)
(1.1 6.09361e-16 0)
(1.1 2.74803e-16 0)
(1.1 1.71569e-16 0)
(1.1 2.63463e-16 0)
(1.1 9.59009e-17 0)
(1.1 2.52416e-16 0)
(1.1 6.73286e-17 0)
(1.1 -1.20396e-16 0)
(1.1 -7.97982e-17 0)
(1.1 1.18996e-16 0)
(1.1 2.0012e-16 0)
(1.1 2.71687e-16 0)
(1.1 -1.36864e-16 0)
(1.1 -2.90615e-17 0)
(1.1 -1.34504e-16 0)
(1.1 -4.89562e-16 0)
(1.1 -5.06231e-16 0)
(1.1 -7.74845e-16 0)
(1.1 -5.93827e-16 0)
(1.1 -8.02078e-16 0)
(1.1 -6.18377e-16 0)
(1.1 -5.38169e-16 0)
(1.1 -7.36356e-16 0)
(1.1 -2.86037e-16 0)
(1.1 -3.25168e-17 0)
(1.1 3.15759e-16 0)
(1.1 9.4575e-17 0)
(1.1 -1.33325e-16 0)
(1.1 4.36389e-16 0)
(1.1 4.33385e-17 0)
(1.1 -1.10737e-16 0)
(1.1 -3.27511e-16 0)
(1.1 -5.64435e-16 0)
(1.1 -8.35907e-16 0)
(1.1 -5.2433e-16 0)
(1.1 -3.88871e-16 0)
(1.1 -4.85891e-16 0)
(1.1 -6.37515e-16 0)
(1.1 -1.12166e-15 0)
(1.1 -9.36242e-16 0)
(1.1 -6.5417e-16 0)
(1.1 -8.69493e-16 0)
(1.1 -8.69469e-16 0)
(1.1 -1.20674e-15 0)
(1.1 -9.09726e-16 0)
(1.1 -6.75855e-16 0)
(1.1 -2.11998e-16 0)
(1.1 1.39884e-16 0)
(1.1 9.16104e-17 0)
(1.1 -2.04325e-16 0)
(1.1 -5.10813e-16 0)
(1.1 -3.68107e-16 0)
(1.1 1.14689e-17 0)
(1.1 -9.6769e-17 0)
(1.1 3.22214e-17 0)
(1.1 3.83487e-16 0)
(1.1 1.44637e-16 0)
(1.1 6.09769e-17 0)
(1.1 -2.2791e-16 0)
(1.1 -4.61163e-16 0)
(1.1 -1.01434e-15 0)
(1.1 -1.00523e-15 0)
(1.1 -1.06299e-15 0)
(1.1 -1.019e-15 0)
(1.1 -1.00032e-15 0)
(1.1 -1.28544e-15 0)
(1.1 -1.18134e-15 0)
(1.1 -1.57955e-15 0)
(1.1 -1.32999e-15 0)
(1.1 -8.62279e-16 0)
(1.1 -8.78848e-16 0)
(1.1 -7.05935e-16 0)
(1.1 -2.72209e-16 0)
(1.1 -1.32816e-16 0)
(1.1 -3.43376e-16 0)
(1.1 -2.72842e-16 0)
(1.1 -4.53502e-16 0)
(1.1 -6.5107e-16 0)
(1.1 -4.45854e-16 0)
(1.1 -2.6741e-16 0)
(1.1 8.95144e-17 0)
(1.1 3.8421e-16 0)
(1.1 5.68271e-16 0)
(1.1 -6.92237e-16 0)
(1.1 -5.03406e-16 0)
(1.1 -7.73725e-16 0)
(1.1 -7.94037e-16 0)
(1.1 -9.06686e-16 0)
(1.1 -1.26495e-15 0)
(1.1 -1.4619e-15 0)
(1.1 -1.18643e-15 0)
(1.1 -9.66611e-16 0)
(1.1 -8.41858e-16 0)
(1.1 -8.05735e-16 0)
(1.1 -1.23641e-15 0)
(1.1 -1.01788e-15 0)
(1.1 -8.0774e-16 0)
(1.1 -2.66629e-16 0)
(1.1 -1.20046e-16 0)
(1.1 -5.6532e-17 0)
(1.1 -5.05511e-16 0)
(1.1 -5.57993e-16 0)
(1.1 -6.54317e-16 0)
(1.1 -1.07563e-15 0)
(1.1 -8.16788e-16 0)
(1.1 -2.99003e-16 0)
(1.1 -1.09529e-16 0)
(1.1 -4.02887e-17 0)
(1.1 4.56659e-16 0)
(1.1 1.3722e-16 0)
(1.1 -9.87413e-17 0)
(1.1 -6.69018e-16 0)
(1.1 -5.64535e-16 0)
(1.1 -6.33393e-16 0)
(1.1 -6.46849e-16 0)
(1.1 -7.40211e-16 0)
(1.1 -7.84886e-16 0)
(1.1 -6.62003e-16 0)
(1.1 -7.65932e-16 0)
(1.1 -3.72278e-16 0)
(1.1 -5.52896e-16 0)
(1.1 -6.8954e-16 0)
(1.1 -6.14899e-16 0)
(1.1 -5.8142e-16 0)
(1.1 -7.21723e-17 0)
(1.1 5.13665e-17 0)
(1.1 -5.25015e-16 0)
(1.1 -9.3858e-16 0)
(1.1 -9.23752e-16 0)
(1.1 -1.07899e-15 0)
(1.1 -9.58744e-16 0)
(1.1 -6.37831e-16 0)
(1.1 -5.74748e-16 0)
(1.1 -2.76751e-16 0)
(1.1 -2.18211e-16 0)
(1.1 2.25343e-16 0)
(1.1 3.05615e-16 0)
(1.1 8.67649e-16 0)
(1.1 3.78568e-16 0)
(1.1 1.47803e-16 0)
(1.1 -8.81699e-16 0)
(1.1 -8.96658e-16 0)
(1.1 -8.89831e-16 0)
(1.1 -8.39749e-16 0)
(1.1 -5.96305e-16 0)
(1.1 -5.01483e-16 0)
(1.1 -5.73706e-16 0)
(1.1 -5.7479e-16 0)
(1.1 -3.91732e-16 0)
(1.1 -3.49314e-16 0)
(1.1 -3.73502e-16 0)
(1.1 -4.19177e-16 0)
(1.1 -5.64801e-16 0)
(1.1 -7.59375e-16 0)
(1.1 -5.55212e-16 0)
(1.1 -8.11159e-16 0)
(1.1 -1.28088e-15 0)
(1.1 -8.3328e-16 0)
(1.1 -9.85922e-16 0)
(1.1 -1.02848e-15 0)
(1.1 -1.0504e-15 0)
(1.1 -1.03521e-15 0)
(1.1 -1.78618e-16 0)
(1.1 5.07249e-16 0)
(1.1 1.33017e-15 0)
(1.1 1.15771e-15 0)
(1.1 5.11785e-16 0)
(1.1 4.75811e-17 0)
(1.1 -2.39571e-16 0)
(1.1 -1.59486e-16 0)
(1.1 -2.07903e-17 0)
(1.1 -9.96316e-17 0)
(1.1 -2.67456e-16 0)
(1.1 -7.14615e-16 0)
(1.1 -7.22447e-16 0)
(1.1 -1.08644e-16 0)
(1.1 -8.94511e-17 0)
(1.1 4.6966e-18 0)
(1.1 -2.43827e-16 0)
(1.1 -3.99181e-16 0)
(1.1 -5.76728e-16 0)
(1.1 -5.55976e-16 0)
(1.1 -6.45113e-16 0)
(1.1 -1.0946e-15 0)
(1.1 -9.49758e-16 0)
(1.1 -6.66173e-16 0)
(1.1 -7.51746e-16 0)
(1.1 -6.46371e-16 0)
(1.1 -8.64836e-16 0)
(1.1 -4.22978e-16 0)
(1.1 -8.61872e-16 0)
(1.1 1.19976e-15 0)
(1.1 9.48541e-16 0)
(1.1 3.56325e-16 0)
(1.1 4.57584e-16 0)
(1.1 3.26185e-16 0)
(1.1 5.75352e-16 0)
(1.1 5.91148e-16 0)
(1.1 3.80871e-16 0)
(1.1 -6.19437e-17 0)
(1.1 -4.4447e-17 0)
(1.1 -2.44549e-16 0)
(1.1 -8.22584e-17 0)
(1.1 -2.87843e-16 0)
(1.1 -7.91757e-17 0)
(1.1 -3.03848e-16 0)
(1.1 -2.72425e-16 0)
(1.1 -2.3732e-16 0)
(1.1 -3.06549e-16 0)
(1.1 -2.85672e-16 0)
(1.1 -3.68359e-16 0)
(1.1 -6.7813e-16 0)
(1.1 -3.91622e-16 0)
(1.1 -3.01451e-16 0)
(1.1 -4.45625e-16 0)
(1.1 -4.77448e-16 0)
(1.1 -5.86834e-16 0)
(1.1 -1.34269e-15 0)
(1.1 1.22482e-15 0)
(1.1 7.2493e-16 0)
(1.1 5.93751e-16 0)
(1.1 6.36807e-16 0)
(1.1 7.76128e-16 0)
(1.1 4.45972e-16 0)
(1.1 6.82387e-16 0)
(1.1 6.388e-16 0)
(1.1 3.363e-16 0)
(1.1 1.79092e-16 0)
(1.1 1.83598e-16 0)
(1.1 -4.23608e-16 0)
(1.1 -6.26385e-16 0)
(1.1 -2.1235e-16 0)
(1.1 -4.92787e-16 0)
(1.1 -3.11501e-16 0)
(1.1 -5.61414e-17 0)
(1.1 3.18322e-18 0)
(1.1 -6.94593e-17 0)
(1.1 -4.21957e-17 0)
(1.1 -3.61463e-16 0)
(1.1 -3.51132e-16 0)
(1.1 -5.15254e-16 0)
(1.1 -7.4714e-16 0)
(1.1 -6.69551e-16 0)
(1.1 -1.08107e-15 0)
(1.1 -1.30679e-15 0)
(1.1 1.45473e-15 0)
(1.1 9.99162e-16 0)
(1.1 1.18833e-15 0)
(1.1 7.79448e-16 0)
(1.1 8.50632e-16 0)
(1.1 4.96019e-16 0)
(1.1 6.75441e-16 0)
(1.1 6.32011e-16 0)
(1.1 2.0127e-16 0)
(1.1 -3.14256e-16 0)
(1.1 -2.8886e-16 0)
(1.1 -2.88479e-16 0)
(1.1 -4.60537e-16 0)
(1.1 -4.42066e-16 0)
(1.1 -3.30714e-16 0)
(1.1 -5.48384e-18 0)
(1.1 2.49282e-16 0)
(1.1 2.1965e-16 0)
(1.1 2.55875e-17 0)
(1.1 -1.48734e-16 0)
(1.1 -4.09645e-16 0)
(1.1 -3.52129e-16 0)
(1.1 -6.68379e-16 0)
(1.1 -6.26669e-16 0)
(1.1 -7.78004e-16 0)
(1.1 -1.37439e-15 0)
(1.1 -1.43216e-15 0)
(1.1 1.33587e-15 0)
(1.1 1.02409e-15 0)
(1.1 1.00363e-15 0)
(1.1 1.09161e-15 0)
(1.1 9.34623e-16 0)
(1.1 7.87673e-16 0)
(1.1 5.88134e-16 0)
(1.1 2.34704e-16 0)
(1.1 3.88938e-16 0)
(1.1 2.40953e-16 0)
(1.1 -8.17691e-17 0)
(1.1 -1.61796e-16 0)
(1.1 -3.42714e-17 0)
(1.1 -2.04717e-16 0)
(1.1 6.09795e-17 0)
(1.1 -7.96968e-17 0)
(1.1 5.5387e-17 0)
(1.1 7.32343e-17 0)
(1.1 -2.74217e-16 0)
(1.1 -3.06573e-16 0)
(1.1 -6.30617e-16 0)
(1.1 -7.24659e-16 0)
(1.1 -6.48554e-16 0)
(1.1 -8.86832e-16 0)
(1.1 -1.05114e-15 0)
(1.1 -1.16101e-15 0)
(1.1 -1.21405e-15 0)
(1.1 1.15169e-15 0)
(1.1 6.76185e-16 0)
(1.1 5.48438e-16 0)
(1.1 8.26538e-16 0)
(1.1 5.91877e-16 0)
(1.1 7.67484e-16 0)
(1.1 4.51453e-16 0)
(1.1 2.35473e-16 0)
(1.1 4.93295e-16 0)
(1.1 3.28822e-16 0)
(1.1 1.14416e-16 0)
(1.1 -5.93413e-17 0)
(1.1 5.46913e-17 0)
(1.1 4.43184e-17 0)
(1.1 2.75981e-17 0)
(1.1 -5.18082e-16 0)
(1.1 -8.17365e-16 0)
(1.1 -7.90024e-16 0)
(1.1 -2.92473e-16 0)
(1.1 -2.07675e-16 0)
(1.1 -1.01429e-16 0)
(1.1 -3.18053e-16 0)
(1.1 -5.27665e-16 0)
(1.1 -8.51258e-16 0)
(1.1 -1.14832e-15 0)
(1.1 -1.25134e-15 0)
(1.1 -6.08639e-16 0)
(1.1 4.72216e-16 0)
(1.1 2.79068e-16 0)
(1.1 -1.03701e-16 0)
(1.1 -1.49214e-16 0)
(1.1 -3.98093e-16 0)
(1.1 -2.98206e-16 0)
(1.1 -3.04231e-16 0)
(1.1 -2.28315e-16 0)
(1.1 -6.13437e-17 0)
(1.1 -7.43335e-17 0)
(1.1 -5.67162e-17 0)
(1.1 -3.03932e-16 0)
(1.1 1.41605e-16 0)
(1.1 -1.36217e-17 0)
(1.1 -3.16896e-17 0)
(1.1 -6.29503e-16 0)
(1.1 -5.55382e-16 0)
(1.1 -4.12596e-16 0)
(1.1 -2.91412e-16 0)
(1.1 1.7968e-16 0)
(1.1 2.80473e-16 0)
(1.1 -8.22796e-17 0)
(1.1 -6.48667e-16 0)
(1.1 -9.26811e-16 0)
(1.1 -8.97268e-16 0)
(1.1 -1.06694e-15 0)
(1.1 -7.4625e-16 0)
(1.1 -1.85848e-16 0)
(1.1 -3.16214e-16 0)
(1.1 -4.4117e-16 0)
(1.1 -3.75518e-16 0)
(1.1 -1.89292e-16 0)
(1.1 -2.68661e-16 0)
(1.1 -2.24398e-16 0)
(1.1 -6.07342e-17 0)
(1.1 -1.20365e-16 0)
(1.1 -1.36673e-16 0)
(1.1 1.33902e-16 0)
(1.1 -1.60436e-16 0)
(1.1 4.82838e-17 0)
(1.1 -1.50354e-16 0)
(1.1 -1.23537e-16 0)
(1.1 -7.39427e-16 0)
(1.1 -7.96357e-16 0)
(1.1 -2.96508e-16 0)
(1.1 -4.29861e-16 0)
(1.1 -4.46636e-16 0)
(1.1 -5.38165e-16 0)
(1.1 -5.36855e-16 0)
(1.1 -9.00837e-16 0)
(1.1 -7.74095e-16 0)
(1.1 -5.08204e-16 0)
(1.1 -7.10017e-16 0)
(1.1 -4.39915e-16 0)
(1.1 -4.22272e-16 0)
(1.1 -5.55368e-16 0)
(1.1 -2.42207e-16 0)
(1.1 -2.76728e-16 0)
(1.1 1.30382e-16 0)
(1.1 2.5406e-16 0)
(1.1 2.50409e-16 0)
(1.1 -1.38826e-16 0)
(1.1 -2.70847e-16 0)
(1.1 -2.10331e-16 0)
(1.1 -5.9018e-17 0)
(1.1 -4.78293e-17 0)
(1.1 -9.92278e-17 0)
(1.1 -5.10603e-16 0)
(1.1 -1.9608e-16 0)
(1.1 -4.23503e-16 0)
(1.1 -5.76974e-16 0)
(1.1 -6.60674e-16 0)
(1.1 -9.88125e-16 0)
(1.1 -8.60475e-16 0)
(1.1 -6.07148e-16 0)
(1.1 -6.62034e-16 0)
(1.1 -5.14806e-16 0)
(1.1 -2.4076e-16 0)
(1.1 -3.12478e-16 0)
(1.1 -5.29747e-16 0)
(1.1 -1.95119e-16 0)
(1.1 -2.82398e-16 0)
(1.1 -2.06636e-16 0)
(1.1 -2.20797e-16 0)
(1.1 -4.54004e-16 0)
(1.1 -1.05094e-16 0)
(1.1 -5.09535e-17 0)
(1.1 4.16518e-18 0)
(1.1 9.38673e-17 0)
(1.1 7.61884e-17 0)
(1.1 -1.15411e-16 0)
(1.1 2.95564e-17 0)
(1.1 -2.94011e-16 0)
(1.1 -1.14468e-16 0)
(1.1 -2.03561e-16 0)
(1.1 -2.25702e-16 0)
(1.1 -4.35059e-16 0)
(1.1 -6.10509e-16 0)
(1.1 -6.04179e-16 0)
(1.1 -4.58922e-16 0)
(1.1 -4.82479e-16 0)
(1.1 -4.05125e-16 0)
(1.1 -4.27066e-16 0)
(1.1 9.50308e-17 0)
(1.1 -1.58446e-16 0)
(1.1 -3.26002e-16 0)
(1.1 -3.69841e-16 0)
(1.1 -7.65083e-16 0)
(1.1 -3.74164e-16 0)
(1.1 -3.77886e-16 0)
(1.1 -2.1242e-16 0)
(1.1 -4.76572e-16 0)
(1.1 -4.77254e-16 0)
(1.1 -4.28276e-16 0)
(1.1 -2.36804e-16 0)
(1.1 -1.73852e-16 0)
(1.1 -4.89506e-17 0)
(1.1 -1.74308e-16 0)
(1.1 -1.11728e-16 0)
(1.1 -3.53655e-17 0)
(1.1 -2.08448e-16 0)
(1.1 -1.12363e-16 0)
(1.1 -2.21169e-16 0)
(1.1 -1.72719e-17 0)
(1.1 2.04161e-16 0)
(1.1 1.60161e-16 0)
(1.1 -2.29594e-16 0)
(1.1 -2.52397e-16 0)
(1.1 -4.84609e-16 0)
(1.1 -1.7561e-16 0)
(1.1 -1.20652e-16 0)
(1.1 -2.48661e-16 0)
(1.1 -3.74607e-16 0)
(1.1 -2.45271e-17 0)
(1.1 -1.53273e-16 0)
(1.1 -1.27637e-16 0)
(1.1 -1.75778e-16 0)
(1.1 2.6791e-17 0)