/*--------------------------------*- C++ -*----------------------------------*\
  =========                 |
  \\      /  F ield         | OpenFOAM: The Open Source CFD Toolbox
   \\    /   O peration     | Website:  https://openfoam.org
    \\  /    A nd           | Version:  7
     \\/     M anipulation  |
\*---------------------------------------------------------------------------*/
FoamFile
{
    version     2.0;
    format      ascii;
    class       volScalarField;
    location    "0.2";
    object      p;
}
// * * * * * * * * * * * * * * * * * * * * * * * * * * * * * * * * * * * * * //

dimensions      [1 -1 -2 0 0 0 0];

internalField   nonuniform List<scalar> 
3225
(
0.287257
0.359159
0.348283
0.340076
0.336731
0.336322
0.33908
0.342666
0.345867
0.349172
0.353044
0.357562
0.363064
0.369225
0.375352
0.382639
0.391193
0.294935
0.352656
0.343562
0.337931
0.33438
0.334668
0.337693
0.340926
0.343481
0.346055
0.349475
0.354638
0.36112
0.367125
0.372538
0.379204
0.38732
0.315452
0.347241
0.34212
0.338058
0.335389
0.336733
0.339117
0.34052
0.341204
0.343081
0.347599
0.354463
0.360946
0.36599
0.370583
0.375981
0.384394
0.333251
0.343946
0.345331
0.33998
0.335647
0.334676
0.334266
0.334614
0.336782
0.34241
0.35083
0.358174
0.3622
0.364143
0.366737
0.373352
0.383824
0.34294
0.341121
0.337913
0.332311
0.328619
0.328779
0.331304
0.335853
0.342647
0.350212
0.355453
0.35725
0.357536
0.358995
0.364372
0.373264
0.383074
0.344196
0.33842
0.331234
0.328139
0.329094
0.332493
0.338233
0.344298
0.348414
0.350909
0.351639
0.352171
0.354199
0.35894
0.36576
0.372971
0.382915
0.342061
0.33536
0.329383
0.329002
0.333812
0.340742
0.343896
0.344552
0.345231
0.346386
0.348598
0.351517
0.354902
0.358642
0.363499
0.371782
0.381116
0.339676
0.334881
0.332496
0.336171
0.342779
0.34415
0.342028
0.340635
0.341931
0.345213
0.348987
0.35159
0.353718
0.356132
0.361294
0.370091
0.380041
0.33872
0.336981
0.33952
0.344824
0.346541
0.342241
0.338699
0.338655
0.341354
0.34562
0.348955
0.350408
0.350857
0.35424
0.360613
0.369337
0.379149
0.339493
0.341241
0.346113
0.348494
0.345676
0.33962
0.337112
0.338282
0.341849
0.345466
0.347221
0.347613
0.349385
0.353477
0.36036
0.369114
0.37607
0.342021
0.345249
0.348654
0.348252
0.342866
0.33735
0.336374
0.338483
0.341774
0.34429
0.345494
0.346535
0.348854
0.353533
0.360008
0.366659
0.37153
0.345272
0.346943
0.348229
0.345482
0.339073
0.33574
0.335999
0.338359
0.341353
0.343475
0.344843
0.346303
0.349097
0.35308
0.357707
0.361925
0.367317
0.346767
0.346735
0.345878
0.341336
0.336092
0.334917
0.33601
0.338664
0.341649
0.343618
0.344975
0.346366
0.348226
0.350528
0.353592
0.357985
0.364834
0.34651
0.345257
0.342588
0.337719
0.334624
0.335109
0.336994
0.340022
0.342788
0.343983
0.344467
0.344763
0.345488
0.34678
0.350377
0.356306
0.364182
0.345353
0.343146
0.339643
0.335559
0.334947
0.336876
0.339707
0.342443
0.343469
0.342968
0.342313
0.34171
0.341887
0.344231
0.349194
0.356282
0.36416
0.344197
0.341691
0.338013
0.335952
0.337411
0.340691
0.34281
0.343656
0.342232
0.340254
0.338754
0.338085
0.339735
0.343587
0.349926
0.356518
0.362958
0.343793
0.34152
0.338698
0.338604
0.341637
0.344054
0.344026
0.342272
0.339214
0.336233
0.335489
0.336059
0.339412
0.344766
0.350922
0.355262
0.359723
0.344389
0.342579
0.341286
0.342646
0.344589
0.34475
0.342471
0.338957
0.335004
0.333603
0.333509
0.335879
0.340626
0.34599
0.349635
0.351603
0.355495
0.345455
0.344376
0.344279
0.345018
0.3448
0.342492
0.338953
0.334728
0.332487
0.332137
0.333584
0.337191
0.341732
0.344689
0.345266
0.346819
0.351963
0.345921
0.345299
0.345431
0.344893
0.342286
0.338567
0.334889
0.33222
0.331414
0.332682
0.334921
0.338246
0.34031
0.340208
0.340015
0.342832
0.34975
0.345395
0.344891
0.344695
0.342518
0.338448
0.334821
0.33234
0.331311
0.332398
0.334145
0.335841
0.336991
0.336468
0.335186
0.335875
0.340484
0.348898
0.343952
0.343283
0.342385
0.339212
0.335183
0.332419
0.331858
0.332501
0.333937
0.334757
0.334851
0.333986
0.332372
0.331629
0.333717
0.339854
0.348825
0.34228
0.341255
0.339743
0.336366
0.333293
0.332659
0.333191
0.334135
0.334375
0.333048
0.332011
0.330931
0.329775
0.330215
0.333782
0.340416
0.348741
0.341209
0.339943
0.337998
0.335292
0.334231
0.33437
0.334716
0.334529
0.332346
0.329944
0.329031
0.328911
0.3291
0.33112
0.335212
0.341251
0.347756
0.340983
0.339854
0.338011
0.336504
0.336352
0.335811
0.334909
0.332376
0.329014
0.327068
0.326958
0.328108
0.329856
0.332858
0.336558
0.340481
0.344788
0.341123
0.340297
0.339026
0.338269
0.337547
0.335778
0.332773
0.328894
0.326101
0.325264
0.326005
0.328144
0.330787
0.333436
0.335104
0.33771
0.340806
0.341093
0.340565
0.339778
0.338885
0.337054
0.333545
0.329272
0.325841
0.324323
0.324781
0.326007
0.328147
0.32963
0.330967
0.331838
0.334547
0.336798
0.340413
0.340103
0.339424
0.337842
0.33444
0.330018
0.326198
0.323882
0.324186
0.325236
0.326101
0.326258
0.326388
0.326995
0.328433
0.331583
0.333272
0.338782
0.338529
0.337658
0.335083
0.330966
0.326905
0.32433
0.32403
0.325213
0.325814
0.324586
0.323141
0.322379
0.32367
0.326026
0.329069
0.330397
0.33669
0.336203
0.334931
0.331867
0.328008
0.325141
0.324514
0.325479
0.326369
0.325142
0.321808
0.320249
0.320116
0.322026
0.324662
0.327257
0.32836
0.334951
0.334042
0.332344
0.329288
0.326488
0.325496
0.325913
0.326887
0.326405
0.322832
0.319196
0.318794
0.319695
0.321768
0.324291
0.326186
0.3265
0.334141
0.332797
0.330766
0.328199
0.326881
0.326774
0.327186
0.327216
0.32437
0.32013
0.317849
0.318859
0.32067
0.322499
0.324433
0.324903
0.32406
0.334212
0.332585
0.330393
0.328479
0.327874
0.327717
0.327411
0.325383
0.321183
0.318378
0.317955
0.319994
0.322616
0.32335
0.323665
0.32195
0.320493
0.334512
0.332736
0.330491
0.32895
0.328379
0.327558
0.325447
0.321992
0.318651
0.317632
0.318967
0.32169
0.323815
0.322523
0.320171
0.317039
0.315702
0.334547
0.332643
0.330377
0.328864
0.327535
0.325087
0.321882
0.318917
0.317317
0.318064
0.320211
0.322402
0.32263
0.318598
0.314792
0.311532
0.310501
0.33394
0.331874
0.329446
0.327235
0.324436
0.321357
0.318543
0.316898
0.317331
0.319421
0.320701
0.320908
0.318974
0.312981
0.309191
0.306238
0.30629
0.332437
0.330134
0.327288
0.324078
0.32074
0.317902
0.316143
0.31623
0.318296
0.32082
0.320567
0.317406
0.313526
0.307432
0.304375
0.301757
0.3039
0.330342
0.327749
0.324471
0.320719
0.317452
0.315448
0.315121
0.316791
0.319689
0.32149
0.319245
0.313698
0.309173
0.303376
0.300854
0.298139
0.300999
0.328306
0.325428
0.321838
0.317962
0.315265
0.314458
0.315568
0.318049
0.3207
0.320917
0.317128
0.31139
0.306753
0.301093
0.298765
0.295745
0.298325
0.326881
0.323777
0.32003
0.316379
0.314611
0.314933
0.316671
0.319192
0.320741
0.319125
0.315211
0.310467
0.305954
0.300313
0.297992
0.295411
0.299191
0.326291
0.323075
0.319294
0.316007
0.315126
0.315871
0.317599
0.319531
0.319575
0.317105
0.313841
0.310764
0.306568
0.300505
0.297159
0.293734
0.292577
0.326276
0.32306
0.319321
0.316467
0.315912
0.316556
0.317473
0.318122
0.317722
0.315937
0.313222
0.311304
0.307828
0.301042
0.29539
0.288991
0.271549
0.326314
0.32317
0.319576
0.317119
0.316116
0.315456
0.315279
0.315573
0.316132
0.31584
0.313667
0.311205
0.307652
0.300064
0.293204
0.285856
0.23759
0.325834
0.322895
0.319468
0.316552
0.31441
0.312999
0.312406
0.313162
0.315235
0.316589
0.315068
0.310769
0.305358
0.297038
0.291892
0.283795
0.195091
0.324549
0.321682
0.318136
0.314824
0.312069
0.310006
0.309496
0.311476
0.315067
0.317954
0.31659
0.310383
0.302836
0.294394
0.285929
0.268603
0.138446
0.322738
0.319965
0.316373
0.312634
0.309448
0.307488
0.307716
0.310586
0.31539
0.31903
0.317394
0.309833
0.301549
0.293938
0.278899
0.23982
0.083842
0.32068
0.318054
0.314625
0.310888
0.307915
0.306333
0.30688
0.310592
0.315891
0.319463
0.317326
0.309144
0.30197
0.296377
0.275563
0.205212
0.0540007
0.318799
0.31635
0.313253
0.309789
0.307245
0.30628
0.30745
0.311147
0.315291
0.317546
0.316591
0.308998
0.304277
0.2985
0.265274
0.154282
0.0479896
0.317674
0.315451
0.312681
0.309708
0.307832
0.307537
0.309175
0.311677
0.312854
0.313342
0.3134
0.310597
0.31094
0.298028
0.240724
0.0929878
0.0477691
0.317572
0.315512
0.313194
0.310805
0.309752
0.30996
0.310933
0.311042
0.309511
0.307943
0.308801
0.31301
0.321025
0.29885
0.206892
0.0535352
0.0482043
0.316925
0.31594
0.314391
0.31276
0.31212
0.31169
0.311049
0.309688
0.305776
0.302884
0.304539
0.313731
0.32435
0.287885
0.15166
0.0469553
0.0485555
0.315216
0.315067
0.314493
0.31349
0.312997
0.312362
0.310886
0.307828
0.302994
0.299616
0.301253
0.310447
0.318116
0.256505
0.0845995
0.046642
0.0488094
0.311637
0.312483
0.313238
0.313243
0.313381
0.312536
0.310203
0.306289
0.301643
0.29796
0.298466
0.302616
0.298946
0.189117
0.0511295
0.0472611
0.0489261
0.306924
0.308444
0.310483
0.311711
0.312341
0.311776
0.309343
0.305729
0.3019
0.297767
0.295324
0.291264
0.252128
0.117862
0.0474027
0.0472046
0.0489116
0.304539
0.306241
0.308669
0.310387
0.311266
0.310918
0.308698
0.305086
0.302602
0.297679
0.291782
0.272524
1.55922
1.54695
1.53462
1.52209
1.50866
1.49495
1.55754
1.54557
1.53297
1.52034
1.50708
1.49328
1.55552
1.54378
1.53112
1.51841
1.50528
1.49147
1.55337
1.54162
1.52917
1.51646
1.50327
1.48949
1.55136
1.53949
1.52715
1.51439
1.50103
1.48728
1.54965
1.53754
1.52503
1.51213
1.4987
1.48504
1.54813
1.53562
1.52282
1.50985
1.49648
1.48291
1.54676
1.53379
1.52068
1.50766
1.49446
1.4808
1.54556
1.53235
1.51892
1.50564
1.4924
1.47868
1.54457
1.53136
1.51771
1.50394
1.49039
1.47654
1.54364
1.53039
1.51667
1.50267
1.4887
1.47459
1.54264
1.52923
1.51544
1.50152
1.48752
1.47305
1.54142
1.52797
1.51416
1.50027
1.48636
1.47169
1.54002
1.52671
1.51293
1.49892
1.48499
1.4702
1.53861
1.52541
1.51167
1.49749
1.48346
1.46855
1.53727
1.52392
1.51021
1.49602
1.48191
1.46687
1.53598
1.52227
1.50854
1.4945
1.48042
1.4652
1.53465
1.52072
1.50685
1.4929
1.47889
1.46349
1.53323
1.51938
1.50534
1.49122
1.47713
1.46156
1.53198
1.51829
1.50406
1.48947
1.47508
1.45942
1.53097
1.51722
1.50284
1.48779
1.47303
1.45722
1.53022
1.51609
1.50164
1.48645
1.47127
1.45503
1.5294
1.51496
1.50051
1.48531
1.46974
1.45285
1.52891
1.51434
1.4995
1.4841
1.46815
1.45063
1.52859
1.514
1.49849
1.4826
1.46632
1.4484
1.52824
1.51343
1.49734
1.48083
1.46435
1.44638
1.52763
1.51235
1.49584
1.47896
1.46242
1.44452
1.5266
1.5108
1.4942
1.47727
1.46062
1.44265
1.52531
1.50922
1.49267
1.47569
1.45874
1.44053
1.52413
1.50804
1.49133
1.47404
1.45662
1.43815
1.52331
1.50712
1.48987
1.47218
1.45448
1.43588
1.52264
1.50613
1.48826
1.47032
1.45264
1.43391
1.52179
1.50491
1.4868
1.46891
1.45121
1.43212
1.52072
1.50373
1.48591
1.46799
1.44993
1.43026
1.51968
1.50287
1.48537
1.46721
1.44851
1.42821
1.51923
1.50237
1.4847
1.46602
1.44662
1.42603
1.51919
1.50182
1.48343
1.46406
1.44437
1.42413
1.51906
1.50077
1.48137
1.4617
1.44249
1.42262
1.51833
1.49899
1.47903
1.4599
1.44118
1.42105
1.51679
1.49708
1.47767
1.45902
1.43995
1.41899
1.51519
1.49637
1.47746
1.45838
1.43836
1.41635
1.51482
1.49666
1.47746
1.45746
1.43625
1.41342
1.51557
1.49715
1.47708
1.45584
1.43371
1.41086
1.51664
1.49715
1.47576
1.45344
1.4315
1.40929
1.51714
1.49602
1.47355
1.45135
1.43032
1.40811
1.5164
1.49393
1.4716
1.45042
1.42949
1.40651
1.51465
1.49224
1.47094
1.45005
1.42832
1.40408
1.51324
1.49208
1.47101
1.44952
1.42647
1.40107
1.51328
1.49289
1.47115
1.44838
1.42402
1.39815
1.51447
1.4938
1.47078
1.44651
1.42157
1.39585
1.51583
1.49394
1.46955
1.44442
1.41972
1.39394
1.51646
1.49299
1.46794
1.44294
1.41838
1.39185
1.51597
1.49145
1.46674
1.44215
1.41697
1.38911
1.515
1.49047
1.46623
1.44145
1.41497
1.38603
1.5145
1.49054
1.46601
1.44029
1.41254
1.38355
1.51508
1.49127
1.46564
1.43867
1.41042
1.3818
1.51661
1.49195
1.46479
1.43704
1.40893
1.38022
1.51793
1.49184
1.46377
1.43602
1.40786
1.3782
1.5184
1.4913
1.46325
1.43563
1.40667
1.37517
1.51842
1.49127
1.46343
1.43527
1.40465
1.37115
1.51917
1.49231
1.46385
1.43415
1.40132
1.3671
1.52094
1.49352
1.4636
1.43168
1.39776
1.36472
1.52261
1.49381
1.46209
1.4292
1.3961
1.36357
1.52332
1.49292
1.46064
1.4288
1.39579
1.36228
1.52333
1.4926
1.46123
1.42963
1.39555
1.35996
1.52435
1.49445
1.46307
1.43025
1.39426
1.35563
1.52715
1.49739
1.46459
1.42958
1.39074
1.34942
1.5305
1.49972
1.46488
1.42684
1.38585
1.3456
1.53325
1.50059
1.46359
1.42381
1.38362
1.344
1.53478
1.49997
1.46216
1.42335
1.38331
1.34263
1.53535
1.49939
1.46249
1.42471
1.38352
1.34027
1.53613
1.50044
1.46449
1.4263
1.38297
1.33626
1.53835
1.50362
1.46705
1.42701
1.38062
1.33094
1.54224
1.50777
1.46921
1.42616
1.3769
1.32672
1.54675
1.5113
1.4705
1.42482
1.37429
1.32391
1.55074
1.5135
1.47126
1.42471
1.37357
1.32144
1.55375
1.51515
1.47259
1.42635
1.37401
1.3186
1.55643
1.51802
1.47559
1.42867
1.37402
1.31469
1.56053
1.52308
1.47945
1.43024
1.37208
1.30978
1.56644
1.52885
1.48295
1.43005
1.36848
1.30507
1.5731
1.5336
1.48557
1.42915
1.36528
1.30116
1.57916
1.53652
1.48725
1.42965
1.36486
1.29788
1.58346
1.5386
1.48898
1.4326
1.36707
1.29463
1.58629
1.54159
1.49216
1.43721
1.36973
1.29042
1.58919
1.54665
1.49747
1.44197
1.37108
1.28552
1.59357
1.55326
1.5044
1.44609
1.37109
1.2815
1.59958
1.56011
1.51166
1.44998
1.37135
1.27877
1.60644
1.56652
1.51796
1.45497
1.37337
1.27672
1.61335
1.57301
1.52366
1.46121
1.37729
1.27455
1.62025
1.58036
1.53048
1.468
1.38211
1.27107
1.62733
1.58874
1.53927
1.4752
1.38645
1.26557
1.63455
1.59729
1.54893
1.48322
1.39053
1.25988
1.64137
1.60488
1.55751
1.49208
1.39658
1.25675
1.64737
1.61098
1.56425
1.50065
1.40551
1.25782
1.65306
1.61677
1.57092
1.50921
1.4162
1.26215
1.65968
1.62409
1.57942
1.51942
1.42834
1.26844
1.66721
1.63278
1.58977
1.53209
1.44302
1.2767
1.67358
1.64148
1.6015
1.54727
1.46151
1.29416
1.67895
1.64818
1.60959
1.55769
1.47668
1.31212
1.68838
1.6598
1.62473
1.57857
1.50724
1.38048
1.41216
1.39626
1.38174
1.36715
1.35106
1.33473
1.3184
1.3012
1.28385
1.267
1.2504
1.2332
1.47973
1.46589
1.45205
1.43845
1.42468
1.40914
1.39302
1.37828
1.36388
1.3482
1.33191
1.31512
1.29712
1.27911
1.2623
1.24601
1.22943
1.47764
1.46353
1.4492
1.43512
1.42117
1.4056
1.38926
1.37429
1.36005
1.34475
1.32861
1.31144
1.29313
1.27501
1.25809
1.2421
1.22607
1.47553
1.46129
1.44667
1.43198
1.41762
1.40184
1.38511
1.36983
1.35564
1.34042
1.32423
1.30747
1.28958
1.27147
1.2544
1.23832
1.22181
1.47337
1.45909
1.44428
1.42912
1.41434
1.39829
1.3811
1.36534
1.35091
1.33553
1.31919
1.30268
1.28558
1.26799
1.25083
1.23414
1.21688
1.47122
1.45687
1.44189
1.42641
1.41136
1.39516
1.37762
1.36123
1.34625
1.33054
1.31409
1.29769
1.28102
1.26387
1.24648
1.2294
1.21178
1.46906
1.45453
1.43947
1.4238
1.40863
1.3924
1.37462
1.35762
1.34196
1.32586
1.30926
1.29283
1.27598
1.25849
1.24104
1.22402
1.20643
1.46678
1.45211
1.43703
1.42124
1.40604
1.38993
1.37208
1.35452
1.33821
1.32172
1.3048
1.28798
1.27079
1.25299
1.23532
1.21836
1.20083
1.4646
1.44981
1.43462
1.41868
1.40343
1.38757
1.36981
1.35183
1.33499
1.3181
1.3007
1.28331
1.26567
1.24757
1.22979
1.21277
1.19521
1.46252
1.44768
1.43233
1.41617
1.40071
1.38506
1.36757
1.34941
1.3321
1.31479
1.2969
1.27901
1.26096
1.2425
1.22445
1.20733
1.18978
1.4605
1.4455
1.42993
1.41353
1.39787
1.38228
1.3651
1.34691
1.32919
1.31153
1.29334
1.27512
1.25676
1.23783
1.21938
1.20197
1.18421
1.45862
1.44327
1.42739
1.41068
1.39477
1.37919
1.36227
1.34401
1.3258
1.30808
1.28993
1.2716
1.25295
1.23351
1.21455
1.19663
1.17863
1.45685
1.44113
1.42484
1.40774
1.39153
1.37587
1.35901
1.34042
1.32197
1.30436
1.28639
1.26816
1.24923
1.22932
1.20989
1.19149
1.17298
1.45507
1.43905
1.42239
1.4049
1.38837
1.37255
1.35545
1.33643
1.31763
1.30019
1.28234
1.26416
1.24532
1.22504
1.20523
1.18642
1.16758
1.45315
1.43681
1.41988
1.4022
1.3854
1.36931
1.35193
1.33244
1.31321
1.29556
1.27774
1.25962
1.24061
1.22033
1.20055
1.18146
1.16218
1.45118
1.43441
1.4172
1.39952
1.3826
1.36615
1.34853
1.32867
1.30895
1.29097
1.27284
1.25461
1.2356
1.21521
1.19556
1.17641
1.15689
1.44917
1.43198
1.41449
1.39679
1.37982
1.36313
1.34529
1.32509
1.30484
1.28645
1.26799
1.24958
1.23038
1.20985
1.1904
1.1711
1.15133
1.44718
1.42967
1.41191
1.3941
1.37709
1.36027
1.34222
1.32161
1.30078
1.28201
1.26327
1.24468
1.22514
1.20446
1.18497
1.16535
1.14568
1.44512
1.4275
1.40949
1.39153
1.37446
1.35754
1.3392
1.31809
1.29676
1.27768
1.25866
1.23989
1.22005
1.19895
1.17939
1.15952
1.13964
1.44288
1.42511
1.40699
1.38905
1.37195
1.35482
1.33616
1.31454
1.29274
1.27344
1.2542
1.23524
1.21494
1.19354
1.17375
1.15345
1.13364
1.44053
1.42251
1.40423
1.38643
1.36937
1.35188
1.33285
1.31087
1.28874
1.26926
1.24985
1.2306
1.20995
1.18818
1.16812
1.14742
1.12736
1.43794
1.41965
1.40135
1.38376
1.36665
1.34867
1.32918
1.30693
1.28472
1.26514
1.24551
1.22602
1.20486
1.18284
1.16244
1.14123
1.12109
1.43527
1.4168
1.39852
1.381
1.36368
1.34509
1.32525
1.3028
1.28064
1.26104
1.24107
1.22135
1.19969
1.17723
1.15659
1.13509
1.11473
1.43275
1.41429
1.39589
1.37816
1.36041
1.34126
1.3212
1.29858
1.27641
1.2568
1.23652
1.21632
1.19414
1.17142
1.15067
1.12882
1.10859
1.43049
1.41206
1.39341
1.37531
1.35703
1.33737
1.31711
1.29424
1.27203
1.25228
1.23156
1.211
1.18827
1.16534
1.14471
1.12275
1.10232
1.42853
1.40996
1.39095
1.37254
1.35379
1.33355
1.31298
1.28981
1.26751
1.24764
1.22638
1.20534
1.18212
1.15927
1.13878
1.11662
1.09587
1.4266
1.40778
1.38841
1.36981
1.35073
1.32988
1.30887
1.28532
1.26297
1.2429
1.22102
1.19954
1.17599
1.15315
1.13293
1.11011
1.08885
1.42452
1.40543
1.38579
1.36708
1.34765
1.3262
1.30472
1.2808
1.25844
1.23817
1.21562
1.19369
1.1699
1.14726
1.12675
1.1032
1.08162
1.42218
1.403
1.38316
1.36423
1.34432
1.32225
1.30041
1.27629
1.254
1.23347
1.2102
1.18797
1.16394
1.14129
1.12032
1.096
1.07419
1.41976
1.40053
1.38045
1.36121
1.34065
1.31797
1.29593
1.27181
1.24966
1.22877
1.20477
1.18224
1.15794
1.13514
1.11354
1.08862
1.06693
1.41747
1.39805
1.37759
1.35797
1.33671
1.31349
1.29138
1.26728
1.24531
1.22388
1.19919
1.17645
1.15176
1.12872
1.10655
1.08121
1.0597
1.4153
1.39552
1.37464
1.35459
1.33266
1.30905
1.28687
1.26266
1.24079
1.21865
1.19334
1.17043
1.14533
1.1221
1.09935
1.0737
1.05258
1.4131
1.39299
1.37167
1.35114
1.32864
1.30473
1.28247
1.25801
1.23589
1.21296
1.18718
1.16425
1.13868
1.11517
1.092
1.06628
1.04545
1.41082
1.39051
1.36875
1.3477
1.32476
1.30061
1.2782
1.25331
1.23077
1.20701
1.1809
1.15794
1.13181
1.10806
1.08462
1.05886
1.0382
1.40857
1.38814
1.36581
1.34431
1.32107
1.29671
1.27395
1.24853
1.22552
1.201
1.17462
1.1516
1.12486
1.10086
1.07725
1.05151
1.03064
1.40658
1.38581
1.36278
1.34092
1.31736
1.2927
1.26962
1.24363
1.22018
1.19501
1.16845
1.14519
1.11783
1.09378
1.06997
1.04392
1.02265
1.40477
1.38326
1.35962
1.33757
1.31355
1.28846
1.26503
1.23858
1.21475
1.18901
1.16224
1.13863
1.11076
1.08672
1.06253
1.03602
1.01431
1.40273
1.38039
1.35641
1.33415
1.30946
1.28389
1.26017
1.23332
1.20916
1.18285
1.15585
1.13182
1.10348
1.07957
1.05473
1.02774
1.0057
1.40022
1.37735
1.35321
1.33051
1.305
1.27909
1.25512
1.22781
1.20331
1.17638
1.14912
1.12465
1.09591
1.07213
1.04646
1.01916
0.996895
1.39734
1.37439
1.34994
1.32651
1.3003
1.27421
1.24997
1.22208
1.19717
1.16953
1.14208
1.11716
1.08802
1.06437
1.03777
1.01032
0.987913
1.39446
1.37162
1.34651
1.32227
1.29564
1.26941
1.24479
1.21621
1.19081
1.16245
1.13484
1.10949
1.07998
1.05635
1.02875
1.00131
0.978804
1.39196
1.36892
1.34291
1.3181
1.29125
1.26478
1.23962
1.21025
1.18435
1.15534
1.12761
1.10182
1.07195
1.04817
1.01959
0.992262
0.969606
1.38995
1.36604
1.33918
1.31415
1.28717
1.26027
1.23443
1.20425
1.17788
1.14834
1.1205
1.09424
1.06397
1.03985
1.01037
0.983235
0.960349
1.38801
1.36279
1.33545
1.3104
1.28308
1.25564
1.22913
1.1982
1.17142
1.14148
1.1135
1.08665
1.05591
1.03131
1.00106
0.974226
0.950962
1.38555
1.3593
1.33182
1.30664
1.27871
1.25061
1.22349
1.19199
1.16488
1.13464
1.10642
1.07877
1.04752
1.0224
0.991523
0.965129
0.941324
1.38252
1.35587
1.32826
1.30265
1.27395
1.24508
1.21739
1.18546
1.15812
1.12763
1.0989
1.07027
1.03867
1.01303
0.981684
0.955875
0.931269
1.37932
1.35266
1.32457
1.29828
1.26883
1.23914
1.21087
1.17858
1.15106
1.12019
1.09064
1.06102
1.02938
1.00317
0.971549
0.946413
0.92067
1.37639
1.34952
1.32063
1.29368
1.26354
1.23301
1.20422
1.17162
1.14372
1.11227
1.08169
1.05126
1.01994
0.992944
0.961284
0.936744
0.909451
1.37382
1.34624
1.31657
1.28914
1.25823
1.2269
1.19777
1.16478
1.13618
1.10408
1.07238
1.0414
1.01064
0.982485
0.951084
0.926839
0.897639
1.3713
1.34268
1.31259
1.2848
1.25289
1.22093
1.19157
1.15803
1.12848
1.09579
1.06295
1.03175
1.00161
0.971856
0.941119
0.91658
0.885353
1.36841
1.33898
1.30876
1.28036
1.24743
1.21507
1.18551
1.15117
1.12054
1.08738
1.05348
1.02243
0.99265
0.961033
0.93138
0.905706
0.872885
1.36512
1.33554
1.30487
1.27548
1.24168
1.20924
1.17927
1.14388
1.11221
1.07874
1.04392
1.0133
0.983308
0.949968
0.921571
0.89406
0.860612
1.36197
1.33236
1.30063
1.27007
1.23579
1.20318
1.17248
1.13589
1.10342
1.06975
1.03418
1.00409
0.973182
0.938579
0.911299
0.881758
0.848749
1.35944
1.32903
1.29575
1.26447
1.22999
1.19677
1.16496
1.1272
1.09428
1.06043
1.02414
0.994387
0.962103
0.926829
0.900363
0.869071
0.83726
1.3572
1.32506
1.29051
1.25908
1.22408
1.18993
1.15687
1.11813
1.08504
1.05081
1.01372
0.984005
0.950201
0.914762
0.888833
0.856184
0.825804
1.35461
1.3204
1.28539
1.25405
1.21789
1.18263
1.14849
1.10899
1.07582
1.04085
1.00288
0.972997
0.937744
0.902529
0.876814
0.843084
0.814112
1.35116
1.31558
1.28071
1.2489
1.21123
1.17499
1.14001
1.09984
1.06654
1.03047
0.991663
0.961535
0.925023
0.89021
0.864431
0.82976
0.801857
1.34707
1.31122
1.27634
1.24348
1.20413
1.1672
1.1315
1.09065
1.05702
1.01963
0.980153
0.949762
0.912149
0.877883
0.851726
0.816124
0.789127
1.34298
1.30752
1.27192
1.23742
1.19679
1.15941
1.12293
1.08129
1.04714
1.00838
0.968443
0.937759
0.899174
0.865428
0.838727
0.802333
0.775926
1.33956
1.30413
1.26698
1.23089
1.18936
1.15157
1.11413
1.07159
1.03683
0.996771
0.95659
0.92554
0.885983
0.852791
0.825449
0.78837
0.762493
1.3372
1.3004
1.26122
1.22414
1.18183
1.14348
1.10491
1.06138
1.026
0.984799
0.944525
0.913013
0.872535
0.839797
0.811829
0.77435
0.748931
1.33508
1.29564
1.25491
1.21729
1.17402
1.13493
1.09507
1.05056
1.01463
0.972359
0.932096
0.900066
0.8587
0.826412
0.797867
0.760117
0.735237
1.33215
1.28991
1.24844
1.21032
1.16575
1.12577
1.08457
1.03915
1.00269
0.959392
0.919137
0.886564
0.844495
0.812597
0.783468
0.745602
0.721332
1.3278
1.28383
1.24213
1.20314
1.15701
1.11611
1.07359
1.02733
0.990331
0.945903
0.905609
0.872536
0.829869
0.798363
0.768666
0.730762
0.707072
1.32245
1.27793
1.23622
1.19577
1.14794
1.10618
1.06236
1.0153
0.977606
0.931985
0.89162
0.857954
0.814833
0.783767
0.753553
0.715527
0.692394
1.31681
1.27315
1.23051
1.18808
1.13866
1.09613
1.05096
1.00299
0.964524
0.917688
0.877134
0.842911
0.79941
0.768718
0.737945
0.700235
0.677552
1.31308
1.26868
1.22417
1.17991
1.12914
1.08583
1.03915
0.99021
0.950903
0.902885
0.862243
0.827395
0.783336
0.753032
0.722233
0.684747
0.662303
1.31041
1.26349
1.21683
1.17121
1.11915
1.07498
1.02667
0.976692
0.936648
0.887609
0.846787
0.811161
0.766763
0.73687
0.705854
0.66886
0.647292
1.30705
1.25697
1.20887
1.16196
1.10843
1.06335
1.01329
0.962475
0.921808
0.871682
0.830716
0.794561
0.749687
0.719861
0.688901
0.653006
0.631911
1.30228
1.24974
1.20088
1.15228
1.09712
1.05101
0.999196
0.947664
0.906365
0.855288
0.81421
0.777508
0.73221
0.702538
0.67159
0.636237
0.616307
1.29638
1.24261
1.19288
1.14229
1.08543
1.03816
0.984515
0.93237
0.890439
0.838312
0.797221
0.760196
0.714715
0.685099
0.653904
0.61906
0.600339
1.29049
1.23599
1.18465
1.13195
1.07339
1.02481
0.969295
0.916475
0.873849
0.820726
0.779654
0.742449
0.69733
0.667789
0.635914
0.601814
0.58376
1.28542
1.22916
1.17592
1.12113
1.06075
1.01072
0.953331
0.899894
0.856376
0.802197
0.761249
0.724485
0.679334
0.650123
0.618423
0.585194
0.566425
1.28063
1.22159
1.16643
1.10954
1.04716
0.995781
0.936571
0.882239
0.837879
0.782876
0.742019
0.705241
0.660482
0.632517
0.601212
0.567968
0.549407
1.27528
1.21328
1.15633
1.09697
1.03266
0.979952
0.918855
0.863779
0.818496
0.762538
0.721735
0.685014
0.641159
0.613786
0.583332
0.551734
0.534545
1.26913
1.20465
1.14578
1.08363
1.01745
0.963503
0.900423
0.844195
0.798331
0.741777
0.700826
0.663998
0.620656
0.593979
0.56494
0.537554
0.519606
1.26268
1.19586
1.13473
1.06989
1.00192
0.946138
0.880846
0.824088
0.777488
0.720382
0.679566
0.642818
0.5991
0.573721
0.54672
0.522559
0.504059
1.2562
1.18681
1.12319
1.05561
0.985272
0.927649
0.860457
0.802581
0.755919
0.698818
0.657867
0.621068
0.57802
0.553656
0.527207
0.506029
0.493277
1.24947
1.177
1.11067
1.04021
0.967199
0.907495
0.838406
0.780424
0.733429
0.675947
0.635623
0.599452
0.557651
0.532686
0.509127
0.491574
0.484078
1.24223
1.16603
1.09703
1.02311
0.947013
0.885813
0.815576
0.756432
0.70961
0.652391
0.612471
0.577173
0.537777
0.513273
0.493192
0.478115
0.475051
1.23396
1.15383
1.0821
1.00443
0.925603
0.863085
0.791244
0.73181
0.684583
0.627122
0.588412
0.554585
0.517568
0.496167
0.479151
0.468421
0.467469
1.2249
1.14116
1.06646
0.9845
0.903113
0.839619
0.766379
0.705536
0.658217
0.602013
0.563031
0.530992
0.497998
0.482154
0.46824
0.460322
0.461077
1.21589
1.12847
1.04985
0.963678
0.879963
0.814815
0.739891
0.678986
0.631594
0.575354
0.537383
0.50891
0.479977
0.468355
0.45835
0.45445
0.455949
1.20702
1.11541
1.03199
0.941386
0.854867
0.788202
0.712548
0.6508
0.602951
0.549938
0.514575
0.487048
0.461731
0.456905
0.452448
0.451168
0.452
1.19841
1.10076
1.01176
0.917077
0.827519
0.759201
0.68267
0.62013
0.575476
0.52546
0.491631
0.466944
0.448516
0.447637
0.447103
0.446482
0.447553
1.18915
1.0834
0.989062
0.890056
0.797488
0.727029
0.650532
0.589434
0.547519
0.499018
0.46976
0.451377
0.439597
0.43977
0.440975
0.440872
0.442892
1.17767
1.0633
0.963703
0.860659
0.76452
0.69219
0.617354
0.558889
0.516425
0.472114
0.452825
0.439116
0.431492
0.431674
0.433833
0.435337
0.438883
1.16403
1.04115
0.935668
0.829186
0.728028
0.656575
0.584297
0.524447
0.485206
0.449078
0.437735
0.429013
0.425275
0.425682
0.427651
0.430542
0.435621
1.14826
1.01683
0.90563
0.794198
0.689808
0.620717
0.547732
0.489802
0.45971
0.428475
0.421587
0.419183
0.419837
0.421281
0.422973
0.426148
0.432
1.13112
0.990971
0.871754
0.755424
0.651311
0.581035
0.509361
0.461658
0.435302
0.411436
0.410035
0.413069
0.415696
0.417801
0.419122
0.421459
0.42717
1.1122
0.961829
0.833583
0.712609
0.610989
0.537619
0.472232
0.437908
0.413113
0.400927
0.402428
0.407578
0.410987
0.413567
0.414724
0.416524
0.422098
1.09179
0.92892
0.789516
0.666365
0.565003
0.492173
0.441425
0.415132
0.399656
0.397127
0.399376
0.403504
0.40461
0.40635
0.40834
0.410933
0.416794
1.06981
0.890101
0.73956
0.615279
0.515458
0.452707
0.412853
0.39333
0.390469
0.394012
0.397533
0.398873
0.398382
0.398929
0.401622
0.405726
0.412774
1.04452
0.84245
0.682685
0.563053
0.466027
0.418356
0.390237
0.383558
0.386206
0.391144
0.394375
0.394633
0.393633
0.393461
0.396845
0.40222
0.409819
1.01122
0.785613
0.620746
0.508266
0.418494
0.390045
0.37557
0.376369
0.38103
0.384978
0.388218
0.390026
0.389873
0.389751
0.393184
0.39965
0.408199
0.967637
0.718369
0.551665
0.443768
0.38363
0.377029
0.371687
0.371008
0.373791
0.374685
0.37624
0.380784
0.384636
0.386752
0.390895
0.398164
0.407152
0.913017
0.630086
0.474527
0.387076
0.358429
0.364832
0.367746
0.367122
0.366949
0.365725
0.36681
0.371077
0.377386
0.383494
0.389475
0.396393
0.404071
0.838201
0.517804
0.404727
0.357246
0.350556
0.356455
0.358849
0.35797
0.358751
0.361702
0.365031
0.368234
0.371378
0.37586
0.382248
0.390559
0.400128
0.718915
0.401703
0.35614
0.347703
0.352839
0.352372
0.350438
0.349453
0.350848
0.355938
0.362122
0.367345
0.371129
0.374463
0.379837
0.388585
0.398669
0.546736
0.349768
0.345836
0.343777
0.340399
0.340875
0.343266
0.345573
0.348157
0.351428
0.355604
0.360281
0.365496
0.371008
0.376979
0.385102
0.393954
)
;

boundaryField
{
    inlet
    {
        type            fixedValue;
        value           nonuniform 0();
    }
    outlet
    {
        type            zeroGradient;
    }
    triangle
    {
        type            zeroGradient;
    }
    top
    {
        type            symmetryPlane;
    }
    bottom
    {
        type            symmetryPlane;
    }
    defaultFaces
    {
        type            empty;
    }
    procBoundary13to5
    {
        type            processor;
        value           nonuniform List<scalar> 
25
(
1.56057
1.54808
1.53607
1.52357
1.51018
1.49691
1.48185
1.41472
1.39897
1.3849
1.37025
1.35385
1.33715
1.32103
1.30476
1.28839
1.27205
1.25527
1.23773
1.48185
1.46854
1.45523
1.44193
1.42799
1.42799
)
;
    }
    procBoundary13to6
    {
        type            processor;
        value           nonuniform List<scalar> 
14
(
1.216
1.21295
1.20938
1.20421
1.19871
1.19335
1.18798
1.18256
1.17727
1.17192
1.16651
1.16064
1.15475
1.14896
)
;
    }
    procBoundary13to12
    {
        type            processor;
        value           nonuniform List<scalar> 
100
(
1.57054
1.56854
1.56682
1.56525
1.56358
1.56194
1.5605
1.55929
1.55813
1.5572
1.55644
1.55567
1.55459
1.55318
1.55174
1.55055
1.54949
1.54825
1.5468
1.54554
1.54473
1.54437
1.54382
1.54302
1.5423
1.54205
1.542
1.54178
1.54108
1.53992
1.53871
1.53794
1.53757
1.53724
1.53671
1.53619
1.536
1.53607
1.53612
1.53567
1.53449
1.53339
1.53344
1.53466
1.53616
1.53695
1.53641
1.5349
1.53368
1.53392
1.5356
1.53768
1.53892
1.53887
1.53826
1.53801
1.53936
1.54181
1.54368
1.54439
1.54466
1.54591
1.54819
1.55044
1.55181
1.55267
1.55431
1.55751
1.56171
1.56571
1.56838
1.56963
1.57084
1.57355
1.57814
1.58325
1.58731
1.59007
1.593
1.59789
1.60503
1.61306
1.61973
1.62375
1.62626
1.62924
1.63383
1.63989
1.64658
1.65308
1.65913
1.66501
1.67105
1.67718
1.68345
1.68997
1.69599
1.70092
1.70505
1.71308
)
;
    }
    procBoundary13to14
    {
        type            processor;
        value           nonuniform List<scalar> 
140
(
0.399153
0.395147
0.39511
0.392867
0.394176
0.392213
0.390941
0.389804
0.387197
0.38293
0.378176
0.375582
0.375065
0.374921
0.373389
0.369673
0.365243
0.361937
0.360288
0.359619
0.358948
0.357657
0.354941
0.35095
0.346422
0.342062
0.338192
0.335039
0.332624
0.330982
0.328357
0.324541
0.320926